 Gaussian 16, Revision A.03,
 Gaussian 16:  ES64L-G16RevA.03 25-Dec-2016

 ----------------------------------------------------------------------
 #P UB3LYP/6-311++G(d,p) nosym opt freq SCRF=(PCM,Solvent=n,n-DiMethylF
 ormamide)
 ----------------------------------------------------------------------

 --------
 Oxidized
 --------
 Symbolic Z-matrix:
 Charge =  0 Multiplicity = 1

 SCF Done:  E(UB3LYP) =  -1055.05924986     A.U. after   16 cycles
 SCF Done:  E(UB3LYP) =  -1055.05909096     A.U. after   14 cycles
 SCF Done:  E(UB3LYP) =  -1055.05943520     A.U. after   12 cycles
 SCF Done:  E(UB3LYP) =  -1055.05944201     A.U. after   13 cycles
 SCF Done:  E(UB3LYP) =  -1055.05949777     A.U. after   12 cycles
 SCF Done:  E(UB3LYP) =  -1055.05951221     A.U. after   11 cycles
 SCF Done:  E(UB3LYP) =  -1055.05952499     A.U. after   12 cycles
 SCF Done:  E(UB3LYP) =  -1055.05952486     A.U. after   10 cycles
 SCF Done:  E(UB3LYP) =  -1055.05952709     A.U. after   10 cycles
 SCF Done:  E(UB3LYP) =  -1055.05952718     A.U. after    9 cycles
 SCF Done:  E(UB3LYP) =  -1055.05952720     A.U. after    9 cycles
 SCF Done:  E(UB3LYP) =  -1055.05952721     A.U. after    9 cycles
 Optimization completed.
    -- Stationary point found.
 Normal termination of Gaussian 16 at Sat Feb 10 12:15:08 2024.

 ----------------------------------------------------------------------
 #P Geom=AllCheck Guess=TCheck SCRF=Check GenChk UB3LYP/6-311++G(d,p) F
 req
 ----------------------------------------------------------------------

 Structure from the checkpoint file:  "103.chk"
 --------
 Oxidized
 --------
 Charge =  0 Multiplicity = 1

                          Input orientation:
 ---------------------------------------------------------------------
 Center     Atomic      Atomic             Coordinates (Angstroms)
 Number     Number       Type             X           Y           Z
 ---------------------------------------------------------------------
      1          6           0       -0.152109    1.846904    4.929110
      2          6           0        1.062033    1.214695    4.372900
      3          6           0        1.434379    1.272911    3.080048
      4          6           0        0.511631    2.008132    2.143337
      5          6           0       -0.757747    2.548934    2.671578
      6          6           0       -1.115798    2.479298    3.968845
      7          8           0       -0.333729    1.863949    6.137827
      8          8           0        0.762520    2.153133    0.952529
      9         16           0       -2.580663    3.296310    4.533222
     10          6           0       -3.422952    2.070479    5.670177
     11          6           0       -4.621201    2.809954    6.266098
     12          6           0       -3.825491    0.801207    4.925546
     13          6           0        2.722764    0.641235    2.547208
     14          6           0        3.501926   -0.076252    3.665170
     15          6           0        3.638136    1.743425    1.956445
     16          6           0        2.379477   -0.404681    1.456402
     17          1           0        1.663482    0.714588    5.120629
     18          1           0       -1.397462    3.013732    1.930088
     19          1           0       -2.702201    1.843111    6.452565
     20          1           0       -4.313518    3.698993    6.820889
     21          1           0       -5.143683    2.143546    6.957740
     22          1           0       -5.331618    3.111414    5.490840
     23          1           0       -2.962447    0.286746    4.497413
     24          1           0       -4.528846    1.023124    4.118377
     25          1           0       -4.312034    0.111992    5.623457
     26          1           0        2.921109   -0.886426    4.114346
     27          1           0        3.808688    0.611467    4.457824
     28          1           0        4.407835   -0.515098    3.240591
     29          1           0        3.891684    2.486612    2.717833
     30          1           0        3.167497    2.251590    1.116149
     31          1           0        4.569439    1.288236    1.607868
     32          1           0        1.734464   -1.190181    1.860549
     33          1           0        3.302634   -0.875213    1.106751
     34          1           0        1.880943    0.050798    0.602089
 ---------------------------------------------------------------------

 SCF Done:  E(UB3LYP) =  -1055.05952721     A.U. after    1 cycles

 Alpha  occ. eigenvalues --  -88.86353 -19.14477 -19.14054 -10.29293 -10.28831
 Alpha  occ. eigenvalues --  -10.24194 -10.22051 -10.21609 -10.20980 -10.20543
 Alpha  occ. eigenvalues --  -10.20479 -10.17097 -10.16887 -10.16341 -10.16150
 Alpha  occ. eigenvalues --  -10.16142  -7.94971  -5.91363  -5.90959  -5.90378
 Alpha  occ. eigenvalues --   -1.07566  -1.07051  -0.87658  -0.84712  -0.82002
 Alpha  occ. eigenvalues --   -0.78393  -0.72943  -0.70014  -0.69833  -0.69146
 Alpha  occ. eigenvalues --   -0.69075  -0.63365  -0.61327  -0.57751  -0.55467
 Alpha  occ. eigenvalues --   -0.52938  -0.50045  -0.48707  -0.47658  -0.46504
 Alpha  occ. eigenvalues --   -0.45953  -0.44909  -0.44678  -0.44396  -0.44049
 Alpha  occ. eigenvalues --   -0.43067  -0.42072  -0.40936  -0.39868  -0.39048
 Alpha  occ. eigenvalues --   -0.38630  -0.37953  -0.37115  -0.36289  -0.36016
 Alpha  occ. eigenvalues --   -0.35839  -0.34649  -0.34339  -0.34048  -0.30922
 Alpha  occ. eigenvalues --   -0.29633  -0.28880  -0.27704  -0.24573
 Alpha virt. eigenvalues --   -0.13705  -0.03558  -0.01355  -0.00826  -0.00190
 Alpha virt. eigenvalues --    0.00769   0.01288   0.01580   0.02062   0.02401
 Alpha virt. eigenvalues --    0.02500   0.03175   0.03470   0.03743   0.04221

  Beta  occ. eigenvalues --  -88.86353 -19.14477 -19.14054 -10.29293 -10.28831
  Beta  occ. eigenvalues --  -10.24194 -10.22051 -10.21609 -10.20980 -10.20543
  Beta  occ. eigenvalues --  -10.20479 -10.17097 -10.16887 -10.16341 -10.16150
  Beta  occ. eigenvalues --  -10.16142  -7.94971  -5.91363  -5.90959  -5.90378
  Beta  occ. eigenvalues --   -1.07566  -1.07051  -0.87658  -0.84712  -0.82002
  Beta  occ. eigenvalues --   -0.78393  -0.72943  -0.70014  -0.69833  -0.69146
  Beta  occ. eigenvalues --   -0.69075  -0.63365  -0.61327  -0.57751  -0.55467
  Beta  occ. eigenvalues --   -0.52938  -0.50045  -0.48707  -0.47658  -0.46504
  Beta  occ. eigenvalues --   -0.45953  -0.44909  -0.44678  -0.44396  -0.44049
  Beta  occ. eigenvalues --   -0.43067  -0.42072  -0.40936  -0.39868  -0.39048
  Beta  occ. eigenvalues --   -0.38630  -0.37953  -0.37115  -0.36289  -0.36016
  Beta  occ. eigenvalues --   -0.35839  -0.34649  -0.34339  -0.34048  -0.30922
  Beta  occ. eigenvalues --   -0.29633  -0.28880  -0.27704  -0.24573
  Beta virt. eigenvalues --   -0.13705  -0.03558  -0.01355  -0.00826  -0.00190
  Beta virt. eigenvalues --    0.00769   0.01288   0.01580   0.02062   0.02401
  Beta virt. eigenvalues --    0.02500   0.03175   0.03470   0.03743   0.04221

 Mulliken charges and spin densities:
               1          2
     1  C   -0.659249   0.000000
     2  C   -0.427255  -0.000000
     3  C    1.146340   0.000000
     4  C   -0.875280   0.000000
     5  C   -0.604306  -0.000000
     6  C    1.762025  -0.000000
     7  O   -0.251255   0.000000
     8  O   -0.244805   0.000000
     9  S   -0.535671  -0.000000
    10  C    0.232676  -0.000000
    11  C   -0.668521  -0.000000
    12  C   -0.701823   0.000000
    13  C    0.533771  -0.000000
    14  C   -0.506059   0.000000
    15  C   -0.700521  -0.000000
    16  C   -0.702590   0.000000
    17  H    0.255051   0.000000
    18  H    0.258740  -0.000000
    19  H    0.262216  -0.000000
    20  H    0.168969  -0.000000
    21  H    0.159051   0.000000
    22  H    0.159123   0.000000
    23  H    0.142227  -0.000000
    24  H    0.183516   0.000000
    25  H    0.151265  -0.000000
    26  H    0.143609  -0.000000
    27  H    0.143506  -0.000000
    28  H    0.183543  -0.000000
    29  H    0.148659  -0.000000
    30  H    0.178368  -0.000000
    31  H    0.170562   0.000000
    32  H    0.150296   0.000000
    33  H    0.167004   0.000000
    34  H    0.176817  -0.000000
 Sum of Mulliken charges =  -0.00000   0.00000

 Dipole moment (field-independent basis, Debye):
    X=             -0.2052    Y=             -2.6254    Z=              0.9337  Tot=              2.7940
 Quadrupole moment (field-independent basis, Debye-Ang):
   XX=            -90.0756   YY=           -115.2424   ZZ=           -112.8432
   XY=             -0.9440   XZ=             -4.4998   YZ=             -8.2114

  Exact polarizability: 274.710 -26.105 199.611 -67.934   2.469 309.571
 Approx polarizability: 275.745 -19.535 217.096 -77.362  -3.401 398.388

                      1                      2                      3
                      A                      A                      A
 Frequencies --     29.8020                34.9565                42.8973
 Red. masses --      3.5984                 3.8270                 3.5012
 Frc consts  --      0.0019                 0.0028                 0.0038
 IR Inten    --      1.8819                 2.8494                 1.4499

                      4                      5                      6
                      A                      A                      A
 Frequencies --     71.7202                96.7385               133.0226
 Red. masses --      4.0072                 4.0270                 4.3332
 Frc consts  --      0.0121                 0.0222                 0.0452
 IR Inten    --      0.5671                 2.2220                10.5271

                      7                      8                      9
                      A                      A                      A
 Frequencies --    160.5227               180.8870               208.4424
 Red. masses --      5.5256                 4.3987                 1.2998
 Frc consts  --      0.0839                 0.0848                 0.0333
 IR Inten    --      5.3325                 0.6969                 1.3149

                     10                     11                     12
                      A                      A                      A
 Frequencies --    222.6164               227.5113               240.8443
 Red. masses --      2.1339                 1.1468                 3.3330
 Frc consts  --      0.0623                 0.0350                 0.1139
 IR Inten    --      0.4076                 0.1969                 0.1444

                     13                     14                     15
                      A                      A                      A
 Frequencies --    248.5574               258.2364               266.4676
 Red. masses --      1.2055                 1.3532                 2.3809
 Frc consts  --      0.0439                 0.0532                 0.0996
 IR Inten    --      0.3737                 0.3382                 0.9959

                     16                     17                     18
                      A                      A                      A
 Frequencies --    296.3772               325.3730               330.9745
 Red. masses --      2.9151                 3.1216                 1.0986
 Frc consts  --      0.1509                 0.1947                 0.0709
 IR Inten    --      1.3300                 6.4606                 0.1682

                     19                     20                     21
                      A                      A                      A
 Frequencies --    333.7878               368.6523               380.2924
 Red. masses --      2.9255                 4.7281                 2.3950
 Frc consts  --      0.1920                 0.3786                 0.2041
 IR Inten    --      4.7591                 7.9591                 1.3347

                     22                     23                     24
                      A                      A                      A
 Frequencies --    407.8290               413.1245               425.9955
 Red. masses --      3.1098                 2.7017                 3.4257
 Frc consts  --      0.3047                 0.2717                 0.3663
 IR Inten    --      0.3711                 0.7543                 8.4650

                     25                     26                     27
                      A                      A                      A
 Frequencies --    467.1722               496.2862               502.2792
 Red. masses --      4.6966                 5.4343                 4.2679
 Frc consts  --      0.6039                 0.7886                 0.6344
 IR Inten    --     20.7178                 8.4020                 0.2925

                     28                     29                     30
                      A                      A                      A
 Frequencies --    597.5266               607.6495               621.4508
 Red. masses --      4.3946                 5.0346                 4.5627
 Frc consts  --      0.9244                 1.0953                 1.0382
 IR Inten    --     33.2322                21.9983                 4.1056

                     31                     32                     33
                      A                      A                      A
 Frequencies --    675.5194               735.1404               790.9342
 Red. masses --      5.8257                 6.4813                 3.3712
 Frc consts  --      1.5663                 2.0637                 1.2425
 IR Inten    --      1.3652                17.5800                 6.6030

                     34                     35                     36
                      A                      A                      A
 Frequencies --    804.1916               825.6893               879.3627
 Red. masses --      3.6363                 3.5666                 2.6736
 Frc consts  --      1.3856                 1.4327                 1.2181
 IR Inten    --      2.1341                33.0699                 5.9442

                     37                     38                     39
                      A                      A                      A
 Frequencies --    895.0572               928.0826               936.7559
 Red. masses --      1.6618                 1.7452                 1.7619
 Frc consts  --      0.7844                 0.8856                 0.9109
 IR Inten    --      2.2310                25.0383                 1.8943

                     40                     41                     42
                      A                      A                      A
 Frequencies --    937.9614               943.2425               956.9695
 Red. masses --      1.5393                 1.1707                 4.2829
 Frc consts  --      0.7979                 0.6137                 2.3109
 IR Inten    --     52.8408                 3.8434                10.0370

                     43                     44                     45
                      A                      A                      A
 Frequencies --    960.1420               964.7543              1029.9431
 Red. masses --      1.5019                 1.1974                 2.0577
 Frc consts  --      0.8158                 0.6566                 1.2860
 IR Inten    --      0.7035                 0.0370               255.5765

                     46                     47                     48
                      A                      A                      A
 Frequencies --   1046.1530              1059.1809              1075.2277
 Red. masses --      1.3842                 1.5684                 1.5951
 Frc consts  --      0.8926                 1.0367                 1.0865
 IR Inten    --      0.0574               154.6748                12.9986

                     49                     50                     51
                      A                      A                      A
 Frequencies --   1127.9351              1175.4126              1199.6838
 Red. masses --      2.3687                 1.8626                 3.0706
 Frc consts  --      1.7755                 1.5161                 2.6038
 IR Inten    --      5.6148                30.6294               143.4583

                     52                     53                     54
                      A                      A                      A
 Frequencies --   1213.0096              1224.1835              1242.7488
 Red. masses --      2.6906                 2.0194                 3.7483
 Frc consts  --      2.3325                 1.7830                 3.4107
 IR Inten    --      5.5983                18.5478               136.0291

                     55                     56                     57
                      A                      A                      A
 Frequencies --   1260.4958              1269.4855              1331.8859
 Red. masses --      1.2786                 2.1765                 2.3323
 Frc consts  --      1.1969                 2.0666                 2.4377
 IR Inten    --     33.5906                33.7202                17.0274

                     58                     59                     60
                      A                      A                      A
 Frequencies --   1355.0376              1361.9312              1387.4502
 Red. masses --      1.9278                 1.3167                 1.1954
 Frc consts  --      2.0855                 1.4390                 1.3558
 IR Inten    --     65.2086                 2.2196                 9.7055

                     61                     62                     63
                      A                      A                      A
 Frequencies --   1394.6911              1400.3395              1416.2579
 Red. masses --      1.2377                 1.2444                 1.2193
 Frc consts  --      1.4185                 1.4377                 1.4409
 IR Inten    --     19.8044                11.4086                 6.0760

                     64                     65                     66
                      A                      A                      A
 Frequencies --   1421.0012              1475.2111              1476.6392
 Red. masses --      1.2194                 1.0461                 1.0411
 Frc consts  --      1.4507                 1.3413                 1.3375
 IR Inten    --      5.0733                 0.0247                 1.1125

                     67                     68                     69
                      A                      A                      A
 Frequencies --   1478.2835              1486.6048              1489.1087
 Red. masses --      1.0477                 1.0433                 1.0448
 Frc consts  --      1.3490                 1.3584                 1.3650
 IR Inten    --      6.2406                16.6611                 0.2547

                     70                     71                     72
                      A                      A                      A
 Frequencies --   1489.3989              1491.7835              1495.1683
 Red. masses --      1.0474                 1.0547                 1.0458
 Frc consts  --      1.3689                 1.3830                 1.3775
 IR Inten    --      1.0313                30.5628                13.6089

                     73                     74                     75
                      A                      A                      A
 Frequencies --   1502.5069              1517.2968              1608.3033
 Red. masses --      1.0486                 1.0610                 8.1664
 Frc consts  --      1.3947                 1.4391                12.4456
 IR Inten    --     13.6096                26.0263               363.2088

                     76                     77                     78
                      A                      A                      A
 Frequencies --   1657.6439              1678.5795              1695.2675
 Red. masses --      9.3044                10.9544                10.6995
 Frc consts  --     15.0634                18.1853                18.1172
 IR Inten    --     80.9788               873.4633               258.1619

                     79                     80                     81
                      A                      A                      A
 Frequencies --   3021.3476              3024.1687              3026.3531
 Red. masses --      1.0358                 1.0355                 1.0374
 Frc consts  --      5.5708                 5.5797                 5.5981
 IR Inten    --     30.9285                26.7385                62.2781

                     82                     83                     84
                      A                      A                      A
 Frequencies --   3027.5559              3032.2133              3081.9047
 Red. masses --      1.0354                 1.0381                 1.0998
 Frc consts  --      5.5919                 5.6237                 6.1544
 IR Inten    --     44.9906                39.7631                29.6312

                     85                     86                     87
                      A                      A                      A
 Frequencies --   3084.7565              3085.7655              3087.1224
 Red. masses --      1.1026                 1.1021                 1.1004
 Frc consts  --      6.1818                 6.1828                 6.1789
 IR Inten    --     14.0358                35.0446                20.3295

                     88                     89                     90
                      A                      A                      A
 Frequencies --   3091.1860              3096.1341              3097.3853
 Red. masses --      1.1026                 1.1010                 1.1011
 Frc consts  --      6.2072                 6.2186                 6.2239
 IR Inten    --     57.7843                86.4556                36.5157

                     91                     92                     93
                      A                      A                      A
 Frequencies --   3100.5604              3126.0625              3130.6438
 Red. masses --      1.1025                 1.0888                 1.0989
 Frc consts  --      6.2445                 6.2687                 6.3458
 IR Inten    --     29.3270                25.7808                 0.1255

                     94                     95                     96
                      A                      A                      A
 Frequencies --   3132.8417              3186.4262              3204.9219
 Red. masses --      1.0983                 1.0922                 1.0906
 Frc consts  --      6.3512                 6.5339                 6.5999
 IR Inten    --     37.5231                 1.6323                 1.7123

 - Thermochemistry -
 -------------------
 Temperature   298.150 Kelvin.  Pressure   1.00000 Atm.
 Atom     1 has atomic number  6 and mass  12.00000

 Molecular mass:   238.10275 amu.
 Principal axes and moments of inertia in atomic units:
                           1         2         3
     Eigenvalues --  1661.387217694.344058292.77526
           X            0.86326   0.31793   0.39205
           Y           -0.23569  -0.43296   0.87005
           Z           -0.44636   0.84348   0.29883
 This molecule is an asymmetric top.
 Rotational symmetry number  1.
 Warning -- assumption of classical behavior for rotation
           may cause significant error
 Rotational temperatures (Kelvin)      0.05213     0.01126     0.01044
 Rotational constants (GHZ):           1.08629     0.23455     0.21763
 Zero-point vibrational energy     738113.8 (Joules/Mol)
                                  176.41344 (Kcal/Mol)
 Warning -- explicit consideration of  29 degrees of freedom as
           vibrations may cause significant error
 Vibrational temperatures:     42.88    50.29    61.72   103.19   139.19
          (Kelvin)            191.39   230.96   260.26   299.90   320.30
                              327.34   346.52   357.62   371.54   383.39
                              426.42   468.14   476.20   480.25   530.41
                              547.16   586.77   594.39   612.91   672.16
                              714.05   722.67   859.71   874.27   894.13
                              971.92  1057.70  1137.98  1157.05  1187.98
                             1265.21  1287.79  1335.30  1347.78  1349.52
                             1357.12  1376.87  1381.43  1388.07  1481.86
                             1505.18  1523.93  1547.01  1622.85  1691.16
                             1726.08  1745.25  1761.33  1788.04  1813.57
                             1826.51  1916.29  1949.60  1959.52  1996.23
                             2006.65  2014.78  2037.68  2044.50  2122.50
                             2124.55  2126.92  2138.89  2142.50  2142.91
                             2146.34  2151.21  2161.77  2183.05  2313.99
                             2384.98  2415.10  2439.11  4347.05  4351.10
                             4354.25  4355.98  4362.68  4434.17  4438.28
                             4439.73  4441.68  4447.53  4454.65  4456.45
                             4461.01  4497.71  4504.30  4507.46  4584.56
                             4611.17

 Zero-point correction=                           0.281133 (Hartree/Particle)
 Thermal correction to Energy=                    0.299051
 Thermal correction to Enthalpy=                  0.299995
 Thermal correction to Gibbs Free Energy=         0.235090
 Sum of electronic and zero-point Energies=          -1054.778394
 Sum of electronic and thermal Energies=             -1054.760476
 Sum of electronic and thermal Enthalpies=           -1054.759532
 Sum of electronic and thermal Free Energies=        -1054.824437

                     E (Thermal)             CV                S
                      KCal/Mol        Cal/Mol-Kelvin    Cal/Mol-Kelvin
 Total                  187.657             67.106            136.604
 Electronic               0.000              0.000              0.000
 Translational            0.889              2.981             42.304
 Rotational               0.889              2.981             33.027
 Vibrational            185.880             61.145             61.273
 Vibration     1          0.594              1.984              5.843
 Vibration     2          0.594              1.982              5.526
 Vibration     3          0.595              1.980              5.121
 Vibration     4          0.598              1.967              4.106
 Vibration     5          0.603              1.952              3.519
 Vibration     6          0.613              1.920              2.902
 Vibration     7          0.622              1.891              2.544
 Vibration     8          0.630              1.866              2.319
 Vibration     9          0.642              1.828              2.057
 Vibration    10          0.648              1.807              1.938
 Vibration    11          0.651              1.799              1.898
 Vibration    12          0.658              1.778              1.797
 Vibration    13          0.662              1.765              1.741
 Vibration    14          0.667              1.749              1.674
 Vibration    15          0.672              1.735              1.619
 Vibration    16          0.690              1.680              1.437
 Vibration    17          0.709              1.625              1.283
 Vibration    18          0.713              1.614              1.255
 Vibration    19          0.715              1.608              1.242
 Vibration    20          0.741              1.537              1.085
 Vibration    21          0.750              1.512              1.038
 Vibration    22          0.772              1.453              0.934
 Vibration    23          0.777              1.442              0.916
 Vibration    24          0.788              1.414              0.872
 Vibration    25          0.824              1.323              0.746
 Vibration    26          0.852              1.258              0.667
 Vibration    27          0.858              1.245              0.652
 Vibration    28          0.955              1.037              0.454
 Vibration    29          0.966              1.016              0.437

 Optimization completed.
    -- Stationary point found.
 Normal termination of Gaussian 16 at Sat Feb 10 13:49:41 2024.
