 Gaussian 16, Revision A.03,
 Gaussian 16:  ES64L-G16RevA.03 25-Dec-2016

 ----------------------------------------------
 #P UB3LYP/6-311++G(d,p) nosym opt freq SCF=YQC
 ----------------------------------------------

 -------
 Reduced
 -------
 Symbolic Z-matrix:
 Charge = -2 Multiplicity = 1

 SCF Done:  E(UB3LYP) =  -696.080846090     a.u. after    9 cycles
 SCF Done:  E(UB3LYP) =  -696.099095809     A.U. after   33 cycles
 SCF Done:  E(UB3LYP) =  -696.099095808     a.u. after    1 cycles
 SCF Done:  E(UB3LYP) =  -696.122496177     a.u. after   60 cycles
 SCF Done:  E(UB3LYP) =  -696.123080067     A.U. after   30 cycles
 SCF Done:  E(UB3LYP) =  -696.126571673     a.u. after   30 cycles
 SCF Done:  E(UB3LYP) =  -696.126881211     A.U. after   32 cycles
 SCF Done:  E(UB3LYP) =  -696.126842112     a.u. after   31 cycles
 SCF Done:  E(UB3LYP) =  -696.127104471     A.U. after   33 cycles
 SCF Done:  E(UB3LYP) =  -696.127104472     a.u. after    1 cycles
 SCF Done:  E(UB3LYP) =  -696.135473501     a.u. after    1 cycles
 SCF Done:  E(UB3LYP) =  -696.135447269     a.u. after    3 cycles
 SCF Done:  E(UB3LYP) =  -696.135480807     A.U. after   33 cycles
 SCF Done:  E(UB3LYP) =  -696.135480807     a.u. after    1 cycles
 SCF Done:  E(UB3LYP) =  -696.135467735     a.u. after    1 cycles
 SCF Done:  E(UB3LYP) =  -696.135480557     A.U. after   31 cycles
 SCF Done:  E(UB3LYP) =  -696.135478646     a.u. after    1 cycles
 SCF Done:  E(UB3LYP) =  -696.135480749     A.U. after   32 cycles
 Optimization completed.
    -- Stationary point found.
 Normal termination of Gaussian 16 at Tue Dec 19 18:14:51 2023.

 ----------------------------------------------------------------------
 #P Geom=AllCheck Guess=TCheck SCRF=Check GenChk UB3LYP/6-311++G(d,p) F
 req
 ----------------------------------------------------------------------

 Structure from the checkpoint file:  "045-an.chk"
 -------
 Reduced
 -------
 Charge = -2 Multiplicity = 1

                          Input orientation:
 ---------------------------------------------------------------------
 Center     Atomic      Atomic             Coordinates (Angstroms)
 Number     Number       Type             X           Y           Z
 ---------------------------------------------------------------------
      1          6           0       -1.270755    1.850455   -0.857391
      2          6           0       -2.538425    1.189293   -0.792308
      3          6           0       -2.865375    0.124296    0.050695
      4          6           0       -1.863473   -0.392850    0.957893
      5          6           0       -0.592114    0.260451    0.884190
      6          6           0       -0.265362    1.325762    0.041634
      7          8           0       -1.065164    2.839474   -1.678553
      8          8           0       -2.070017   -1.379448    1.781618
      9          6           0        1.144322    1.952255    0.034871
     10          6           0        1.043049    3.453351    0.407075
     11          6           0        2.110460    1.287775    1.034383
     12          6           0        1.760928    1.826683   -1.380059
     13          6           0       -4.264735   -0.524726    0.032838
     14          6           0       -5.222469    0.121600   -0.986465
     15          6           0       -4.912282   -0.392498    1.434726
     16          6           0       -4.135399   -2.026928   -0.320369
     17          1           0       -3.276597    1.595074   -1.478221
     18          1           0        0.146360   -0.146141    1.569310
     19          1           0        0.359254    3.947941   -0.285460
     20          1           0        2.032787    3.937047    0.365921
     21          1           0        0.655494    3.561536    1.426553
     22          1           0        1.744514    1.368256    2.063327
     23          1           0        3.091931    1.778449    0.985512
     24          1           0        2.252609    0.224966    0.814470
     25          1           0        2.739320    2.327046   -1.430519
     26          1           0        1.903690    0.769858   -1.635845
     27          1           0        1.078577    2.277577   -2.104491
     28          1           0       -4.839932    0.040768   -2.008837
     29          1           0       -5.380897    1.184070   -0.773861
     30          1           0       -6.199069   -0.379692   -0.949159
     31          1           0       -5.058470    0.665187    1.682082
     32          1           0       -4.250290   -0.841071    2.177914
     33          1           0       -5.896702   -0.887882    1.462199
     34          1           0       -3.741622   -2.141748   -1.337451
     35          1           0       -5.112663   -2.529689   -0.272105
     36          1           0       -3.443914   -2.497346    0.382664
 ---------------------------------------------------------------------

 SCF Done:  E(UB3LYP) =  -696.135480749     a.u. after    1 cycles
 SCF Done:  E(UB3LYP) =  -696.135480749     A.U. after   10 cycles

 Alpha  occ. eigenvalues --  -18.76974 -18.76973  -9.94934  -9.94934  -9.93733
 Alpha  occ. eigenvalues --   -9.93733  -9.92702  -9.92701  -9.92256  -9.92255
 Alpha  occ. eigenvalues --   -9.92221  -9.92220  -9.89466  -9.89464  -9.88013
 Alpha  occ. eigenvalues --   -9.88011  -0.68279  -0.67885  -0.58438  -0.58247
 Alpha  occ. eigenvalues --   -0.52374  -0.45953  -0.45920  -0.45527  -0.45019
 Alpha  occ. eigenvalues --   -0.45016  -0.40046  -0.35736  -0.30604  -0.30322
 Alpha  occ. eigenvalues --   -0.26386  -0.22547  -0.21923  -0.21385  -0.20856
 Alpha  occ. eigenvalues --   -0.20814  -0.20006  -0.17821  -0.16560  -0.16375
 Alpha  occ. eigenvalues --   -0.16313  -0.16073  -0.14925  -0.13698  -0.13654
 Alpha  occ. eigenvalues --   -0.13082  -0.10724  -0.10586  -0.10064  -0.09478
 Alpha  occ. eigenvalues --   -0.09436  -0.08884  -0.08738  -0.06895  -0.06599
 Alpha  occ. eigenvalues --   -0.05526   0.02595   0.03087   0.05464   0.05651
 Alpha  occ. eigenvalues --    0.13357
 Alpha virt. eigenvalues --    0.14895   0.14897   0.17568   0.17675   0.18061
 Alpha virt. eigenvalues --    0.18173   0.18695   0.19439   0.20897   0.21052
 Alpha virt. eigenvalues --    0.21085   0.21287   0.21816   0.22506   0.22808

  Beta  occ. eigenvalues --  -18.76974 -18.76973  -9.94934  -9.94934  -9.93733
  Beta  occ. eigenvalues --   -9.93733  -9.92702  -9.92701  -9.92256  -9.92255
  Beta  occ. eigenvalues --   -9.92221  -9.92220  -9.89466  -9.89464  -9.88013
  Beta  occ. eigenvalues --   -9.88011  -0.68279  -0.67885  -0.58438  -0.58247
  Beta  occ. eigenvalues --   -0.52374  -0.45953  -0.45920  -0.45527  -0.45019
  Beta  occ. eigenvalues --   -0.45016  -0.40046  -0.35736  -0.30604  -0.30322
  Beta  occ. eigenvalues --   -0.26386  -0.22547  -0.21923  -0.21385  -0.20856
  Beta  occ. eigenvalues --   -0.20814  -0.20006  -0.17821  -0.16560  -0.16375
  Beta  occ. eigenvalues --   -0.16313  -0.16073  -0.14925  -0.13698  -0.13654
  Beta  occ. eigenvalues --   -0.13082  -0.10724  -0.10586  -0.10064  -0.09478
  Beta  occ. eigenvalues --   -0.09436  -0.08884  -0.08738  -0.06895  -0.06599
  Beta  occ. eigenvalues --   -0.05526   0.02595   0.03087   0.05464   0.05651
  Beta  occ. eigenvalues --    0.13357
  Beta virt. eigenvalues --    0.14895   0.14897   0.17568   0.17675   0.18061
  Beta virt. eigenvalues --    0.18173   0.18695   0.19439   0.20897   0.21052
  Beta virt. eigenvalues --    0.21085   0.21287   0.21816   0.22506   0.22808

 Mulliken charges and spin densities:
               1          2
     1  C   -1.304712  -0.000000
     2  C    0.155615  -0.000000
     3  C    1.565468  -0.000000
     4  C   -1.304890   0.000000
     5  C    0.155532   0.000000
     6  C    1.564585   0.000000
     7  O   -0.507920  -0.000000
     8  O   -0.507880  -0.000000
     9  C    0.245951  -0.000000
    10  C   -0.298802   0.000000
    11  C   -0.712915   0.000000
    12  C   -0.508494   0.000000
    13  C    0.245721   0.000000
    14  C   -0.712951  -0.000000
    15  C   -0.298122  -0.000000
    16  C   -0.508671  -0.000000
    17  H    0.129180  -0.000000
    18  H    0.129153   0.000000
    19  H    0.237640   0.000000
    20  H   -0.233291  -0.000000
    21  H    0.099694  -0.000000
    22  H    0.090633  -0.000000
    23  H   -0.327590  -0.000000
    24  H    0.084989  -0.000000
    25  H    0.017890  -0.000000
    26  H    0.098268  -0.000000
    27  H    0.169206   0.000000
    28  H    0.084874   0.000000
    29  H    0.090638   0.000000
    30  H   -0.327772   0.000000
    31  H    0.099739   0.000000
    32  H    0.237633  -0.000000
    33  H   -0.233760   0.000000
    34  H    0.098291  -0.000000
    35  H    0.017928   0.000000
    36  H    0.169143  -0.000000
 Sum of Mulliken charges =  -2.00000   0.00000

 Dipole moment (field-independent basis, Debye):
    X=             15.2682    Y=             -7.4613    Z=             -0.9824  Tot=             17.0221
 Quadrupole moment (field-independent basis, Debye-Ang):
   XX=           -217.0268   YY=           -164.4675   ZZ=           -139.9125
   XY=            -21.4707   XZ=              2.0097   YZ=             19.7711

  Exact polarizability:********3736.7501803.256 996.772 292.671 571.672
 Approx polarizability:5058.8991695.5901105.583 400.276  75.133 509.982

                      1                      2                      3
                      A                      A                      A
 Frequencies --     48.2563                57.1306                87.1044
 Red. masses --      3.8435                 2.9232                 3.9743
 Frc consts  --      0.0053                 0.0056                 0.0178
 IR Inten    --      3.4762                 2.5214                 1.5469

                      4                      5                      6
                      A                      A                      A
 Frequencies --    158.8128               166.7746               176.6753
 Red. masses --      3.3696                 3.2133                 6.9570
 Frc consts  --      0.0501                 0.0527                 0.1279
 IR Inten    --    223.4114                35.6365                28.4590

                      7                      8                      9
                      A                      A                      A
 Frequencies --    229.3933               241.5433               253.0615
 Red. masses --      3.3101                 3.4334                 1.0407
 Frc consts  --      0.1026                 0.1180                 0.0393
 IR Inten    --      4.6506                29.6849                68.6796

                     10                     11                     12
                      A                      A                      A
 Frequencies --    253.8955               292.9839               295.3409
 Red. masses --      1.0447                 1.1896                 1.2711
 Frc consts  --      0.0397                 0.0602                 0.0653
 IR Inten    --      2.1478                54.3929                28.2425

                     13                     14                     15
                      A                      A                      A
 Frequencies --    297.3145               301.0548               305.5520
 Red. masses --      3.6840                 2.3830                 2.7696
 Frc consts  --      0.1919                 0.1273                 0.1524
 IR Inten    --      9.9661                 1.3368                 1.6416

                     16                     17                     18
                      A                      A                      A
 Frequencies --    311.6985               322.5042               323.2381
 Red. masses --      2.4334                 1.0480                 1.0649
 Frc consts  --      0.1393                 0.0642                 0.0656
 IR Inten    --     48.0723                45.6380               143.9067

                     19                     20                     21
                      A                      A                      A
 Frequencies --    335.9249               375.9860               394.7003
 Red. masses --      4.3553                 2.4303                 2.4064
 Frc consts  --      0.2896                 0.2024                 0.2209
 IR Inten    --    352.0422                77.2702                87.5472

                     22                     23                     24
                      A                      A                      A
 Frequencies --    399.0727               418.7193               438.8359
 Red. masses --      2.6054                 2.7748                 6.3316
 Frc consts  --      0.2445                 0.2866                 0.7184
 IR Inten    --    457.9207                17.9857               179.0029

                     25                     26                     27
                      A                      A                      A
 Frequencies --    450.7950               503.0129               510.4642
 Red. masses --      3.2150                 2.7396                 4.8854
 Frc consts  --      0.3849                 0.4084                 0.7500
 IR Inten    --    758.8272                 1.5764               301.6257

                     28                     29                     30
                      A                      A                      A
 Frequencies --    522.1507               617.3306               653.1784
 Red. masses --      3.0343                 3.6943                 4.8028
 Frc consts  --      0.4874                 0.8295                 1.2073
 IR Inten    --    229.5381               656.4974               153.8797

                     31                     32                     33
                      A                      A                      A
 Frequencies --    706.7327               725.0240               739.0429
 Red. masses --      6.0514                 6.6017                 2.2583
 Frc consts  --      1.7808                 2.0446                 0.7267
 IR Inten    --    213.1116               147.0935                24.0636

                     34                     35                     36
                      A                      A                      A
 Frequencies --    807.5640               810.8202               843.7026
 Red. masses --      3.1072                 3.7614                 1.9643
 Frc consts  --      1.1939                 1.4570                 0.8238
 IR Inten    --     25.0884               502.0812                54.6378

                     37                     38                     39
                      A                      A                      A
 Frequencies --    862.8845               863.4447               914.1890
 Red. masses --      2.8399                 1.6256                 1.8122
 Frc consts  --      1.2458                 0.7140                 0.8923
 IR Inten    --     20.1055                21.0704               190.9741

                     40                     41                     42
                      A                      A                      A
 Frequencies --    914.6835               923.7569               925.5938
 Red. masses --      1.7910                 1.7148                 1.6985
 Frc consts  --      0.8829                 0.8622                 0.8574
 IR Inten    --     30.3541              2399.7905                16.5299

                     43                     44                     45
                      A                      A                      A
 Frequencies --    953.7282               953.7853              1009.4389
 Red. masses --      1.2072                 1.2073                 3.5759
 Frc consts  --      0.6470                 0.6471                 2.1468
 IR Inten    --     14.6610                36.3521                73.9420

                     46                     47                     48
                      A                      A                      A
 Frequencies --   1026.8800              1036.2682              1047.8361
 Red. masses --      1.5425                 1.4171                 1.3884
 Frc consts  --      0.9583                 0.8966                 0.8981
 IR Inten    --   2977.3841                14.8367                45.1480

                     49                     50                     51
                      A                      A                      A
 Frequencies --   1048.0588              1098.2925              1174.7055
 Red. masses --      1.3852                 2.1825                 7.3605
 Frc consts  --      0.8965                 1.5511                 5.9843
 IR Inten    --    157.2721                 6.3039                21.9182

                     52                     53                     54
                      A                      A                      A
 Frequencies --   1203.8544              1206.6424              1208.2968
 Red. masses --      2.1591                 2.4364                 2.5679
 Frc consts  --      1.8436                 2.0900                 2.2089
 IR Inten    --    802.6514              2878.2125               116.0523

                     55                     56                     57
                      A                      A                      A
 Frequencies --   1208.4916              1245.7122              1248.3380
 Red. masses --      2.5938                 2.2737                 2.2205
 Frc consts  --      2.2319                 2.0789                 2.0387
 IR Inten    --      1.1514               126.2795                22.2128

                     58                     59                     60
                      A                      A                      A
 Frequencies --   1263.9814              1286.0008              1326.4380
 Red. masses --      1.9731                 3.6911                 3.3139
 Frc consts  --      1.8572                 3.5966                 3.4353
 IR Inten    --      3.8876               710.0440               280.3581

                     61                     62                     63
                      A                      A                      A
 Frequencies --   1352.7432              1352.9418              1360.5849
 Red. masses --      1.2136                 1.2150                 1.3548
 Frc consts  --      1.3084                 1.3103                 1.4777
 IR Inten    --      3.3555                 9.9404                64.5051

                     64                     65                     66
                      A                      A                      A
 Frequencies --   1368.8996              1377.6696              1393.3969
 Red. masses --      1.3704                 1.4650                 1.3298
 Frc consts  --      1.5130                 1.6382                 1.5212
 IR Inten    --    112.3519              7988.2284                14.8732

                     67                     68                     69
                      A                      A                      A
 Frequencies --   1424.7915              1440.6868              1458.6044
 Red. masses --      2.9352                 6.8121                 1.0474
 Frc consts  --      3.5107                 8.3304                 1.3129
 IR Inten    --    248.7294               143.2846               311.0784

                     70                     71                     72
                      A                      A                      A
 Frequencies --   1458.8964              1466.5927              1484.1229
 Red. masses --      1.0483                 1.9645                 1.1051
 Frc consts  --      1.3146                 2.4895                 1.4341
 IR Inten    --     81.9762               100.3615                42.1297

                     73                     74                     75
                      A                      A                      A
 Frequencies --   1485.4506              1486.2714              1490.3150
 Red. masses --      1.0533                 1.0626                 1.0992
 Frc consts  --      1.3694                 1.3830                 1.4384
 IR Inten    --    145.0671                40.3868              2322.8624

                     76                     77                     78
                      A                      A                      A
 Frequencies --   1492.3135              1493.2297              1509.4785
 Red. masses --      1.0572                 1.2771                 1.0546
 Frc consts  --      1.3872                 1.6778                 1.4157
 IR Inten    --     34.4542                67.8455                 2.4346

                     79                     80                     81
                      A                      A                      A
 Frequencies --   1509.6053              1526.5704              1527.2075
 Red. masses --      1.0545                 1.0574                 1.0641
 Frc consts  --      1.4158                 1.4518                 1.4622
 IR Inten    --     47.3148                 7.6000                73.3227

                     82                     83                     84
                      A                      A                      A
 Frequencies --   1570.2763              2939.4772              2940.3173
 Red. masses --      4.9259                 1.0523                 1.0522
 Frc consts  --      7.1563                 5.3571                 5.3595
 IR Inten    --     36.9271              1387.8216               752.7422

                     85                     86                     87
                      A                      A                      A
 Frequencies --   2956.9013              2958.9808              2983.8298
 Red. masses --      1.0465                 1.0444                 1.0425
 Frc consts  --      5.3909                 5.3876                 5.4685
 IR Inten    --  11970.2211                50.7115              1563.2896

                     88                     89                     90
                      A                      A                      A
 Frequencies --   2984.0228              3022.6366              3025.4030
 Red. masses --      1.0429                 1.0881                 1.0899
 Frc consts  --      5.4713                 5.8571                 5.8776
 IR Inten    --   1841.8421              6951.4392               119.2886

                     91                     92                     93
                      A                      A                      A
 Frequencies --   3029.0807              3029.4730              3040.4467
 Red. masses --      1.0836                 1.0845                 1.0896
 Frc consts  --      5.8578                 5.8645                 5.9346
 IR Inten    --    101.7570                 2.4710              4927.1300

                     94                     95                     96
                      A                      A                      A
 Frequencies --   3042.3985              3066.8769              3067.0288
 Red. masses --      1.0904                 1.1008                 1.1008
 Frc consts  --      5.9465                 6.1005                 6.1007
 IR Inten    --     11.7762                54.6021                56.2274

                     97                     98                     99
                      A                      A                      A
 Frequencies --   3082.4622              3082.9850              3094.2368
 Red. masses --      1.0998                 1.0997                 1.0987
 Frc consts  --      6.1570                 6.1586                 6.1978
 IR Inten    --    356.2177                77.6660                48.8225

                    100                    101                    102
                      A                      A                      A
 Frequencies --   3094.3759              3138.2942              3141.2050
 Red. masses --      1.0986                 1.0851                 1.0862
 Frc consts  --      6.1980                 6.2965                 6.3149
 IR Inten    --    225.0685               134.1091                 1.0017

 - Thermochemistry -
 -------------------
 Temperature   298.150 Kelvin.  Pressure   1.00000 Atm.
 Atom     1 has atomic number  6 and mass  12.00000

 Molecular mass:   220.14633 amu.
 Principal axes and moments of inertia in atomic units:
                           1         2         3
     Eigenvalues --  1719.056895754.312716678.14156
           X            0.87853   0.37452  -0.29650
           Y            0.47324  -0.59799   0.64688
           Z           -0.06496   0.70862   0.70260
 This molecule is an asymmetric top.
 Rotational symmetry number  1.
 Warning -- assumption of classical behavior for rotation
           may cause significant error
 Rotational temperatures (Kelvin)      0.05038     0.01505     0.01297
 Rotational constants (GHZ):           1.04984     0.31363     0.27025
 Zero-point vibrational energy     795981.9 (Joules/Mol)
                                  190.24423 (Kcal/Mol)
 Warning -- explicit consideration of  29 degrees of freedom as
           vibrations may cause significant error
 Vibrational temperatures:     69.43    82.20   125.32   228.50   239.95
          (Kelvin)            254.20   330.05   347.53   364.10   365.30
                              421.54   424.93   427.77   433.15   439.62
                              448.46   464.01   465.07   483.32   540.96
                              567.89   574.18   602.44   631.39   648.59
                              723.72   734.44   751.26   888.20   939.78
                             1016.83  1043.15  1063.32  1161.90  1166.59
                             1213.90  1241.50  1242.30  1315.31  1316.03
                             1329.08  1331.72  1372.20  1372.28  1452.36
                             1477.45  1490.96  1507.60  1507.92  1580.20
                             1690.14  1732.08  1736.09  1738.47  1738.75
                             1792.30  1796.08  1818.59  1850.27  1908.45
                             1946.30  1946.58  1957.58  1969.54  1982.16
                             2004.79  2049.96  2072.83  2098.61  2099.03
                             2110.10  2135.32  2137.23  2138.41  2144.23
                             2147.11  2148.42  2171.80  2171.99  2196.39
                             2197.31  2259.28  4229.25  4230.46  4254.32
                             4257.31  4293.07  4293.34  4348.90  4352.88
                             4358.17  4358.74  4374.52  4377.33  4412.55
                             4412.77  4434.98  4435.73  4451.92  4452.12
                             4515.31  4519.49

 Zero-point correction=                           0.303173 (Hartree/Particle)
 Thermal correction to Energy=                    0.320047
 Thermal correction to Enthalpy=                  0.320991
 Thermal correction to Gibbs Free Energy=         0.260926
 Sum of electronic and zero-point Energies=           -695.832307
 Sum of electronic and thermal Energies=              -695.815434
 Sum of electronic and thermal Enthalpies=            -695.814489
 Sum of electronic and thermal Free Energies=         -695.874554

                     E (Thermal)             CV                S
                      KCal/Mol        Cal/Mol-Kelvin    Cal/Mol-Kelvin
 Total                  200.833             67.601            126.417
 Electronic               0.000              0.000              0.000
 Translational            0.889              2.981             42.070
 Rotational               0.889              2.981             32.557
 Vibrational            199.055             61.640             51.790
 Vibration     1          0.595              1.978              4.888
 Vibration     2          0.596              1.975              4.554
 Vibration     3          0.601              1.958              3.724
 Vibration     4          0.621              1.893              2.564
 Vibration     5          0.624              1.883              2.472
 Vibration     6          0.628              1.871              2.363
 Vibration     7          0.652              1.796              1.884
 Vibration     8          0.658              1.777              1.791
 Vibration     9          0.664              1.758              1.709
 Vibration    10          0.665              1.756              1.703
 Vibration    11          0.688              1.687              1.457
 Vibration    12          0.690              1.682              1.443
 Vibration    13          0.691              1.679              1.432
 Vibration    14          0.693              1.672              1.411
 Vibration    15          0.696              1.663              1.386
 Vibration    16          0.700              1.651              1.353
 Vibration    17          0.708              1.630              1.297
 Vibration    18          0.708              1.629              1.294
 Vibration    19          0.717              1.604              1.231
 Vibration    20          0.747              1.521              1.055
 Vibration    21          0.762              1.481              0.982
 Vibration    22          0.765              1.472              0.966
 Vibration    23          0.782              1.430              0.896
 Vibration    24          0.799              1.386              0.830
 Vibration    25          0.810              1.359              0.793
 Vibration    26          0.858              1.243              0.651
 Vibration    27          0.866              1.227              0.632
 Vibration    28          0.877              1.201              0.605
 Vibration    29          0.977              0.995              0.421

 Optimization completed.
    -- Stationary point found.
 Normal termination of Gaussian 16 at Tue Dec 19 19:09:20 2023.
