 Q-Chem 5.4, Q-Chem, Inc., Pleasanton, CA (2021)
 Q-Chem 5.4.0 for Intel X86 EM64T Linux

User input:
--------------------------------------------------------------
$molecule
-2 1
C                  5.0229910000     -2.5449720000      0.1386800000
C                  5.7627670000     -1.5981510000     -0.5434290000
C                  5.0906870000     -0.5629320000     -1.2437550000
C                  3.6094130000     -2.5182820000      0.1635680000
C                  2.9243350000     -1.4679070000     -0.5462600000
C                  3.7118520000     -0.5112930000     -1.2369930000
C                  2.8956630000     -3.5543070000      0.9037000000
C                  1.4469790000     -3.4293410000      0.8612410000
C                  0.7683720000     -2.3511260000      0.1396750000
C                  1.4704790000     -1.3402560000     -0.5854320000
C                  0.6762110000     -4.3708980000      1.5518380000
C                 -0.6584850000     -2.3312650000      0.1790370000
C                 -1.4050640000     -3.2564330000      0.8578420000
O                  3.5022690000     -4.4775220000      1.5339740000
O                  0.8953680000     -0.3852880000     -1.2266570000
H                  5.5017680000     -3.3516060000      0.6850820000
H                 -2.4877620000     -3.2263230000      0.8621710000
H                  3.1669250000      0.2669520000     -1.7617930000
H                  1.2042100000     -5.1570560000      2.0798430000
H                 -1.1398730000     -1.5295260000     -0.3720370000
C                 -0.7170880000     -4.3139150000      1.5537080000
H                  5.6636630000      0.1881520000     -1.7850280000
H                  6.8499280000     -1.6444580000     -0.5447810000
S                 -1.6123430000     -5.4006080000      2.5674030000
O                 -0.8317930000     -6.6140800000      2.8927680000
O                 -3.0029630000     -5.5889400000      2.1066840000
N                 -1.8337590000     -4.5102500000      4.0633200000
H                 -0.9085230000     -4.3712240000      4.4656310000
H                 -2.3645860000     -5.1189920000      4.6888200000
$end
$rem
MAX_SCF_CYCLES=200
BASIS  =  6-311++G(d,p)
GUI  =  2
JOB_TYPE  =  SP
METHOD  =  B3LYP
SOLVENT_METHOD = PCM
$end
$pcm
theory = CPCM
$end
$solvent
dielectric 37.219
opticaldielectric 1.43
$end

--------------------------------------------------------------

             Standard Nuclear Orientation (Angstroms)
    I     Atom           X                Y                Z
 ----------------------------------------------------------------
    1      C       5.0229910000    -2.5449720000     0.1386800000
    2      C       5.7627670000    -1.5981510000    -0.5434290000
    3      C       5.0906870000    -0.5629320000    -1.2437550000
    4      C       3.6094130000    -2.5182820000     0.1635680000
    5      C       2.9243350000    -1.4679070000    -0.5462600000
    6      C       3.7118520000    -0.5112930000    -1.2369930000
    7      C       2.8956630000    -3.5543070000     0.9037000000
    8      C       1.4469790000    -3.4293410000     0.8612410000
    9      C       0.7683720000    -2.3511260000     0.1396750000
   10      C       1.4704790000    -1.3402560000    -0.5854320000
   11      C       0.6762110000    -4.3708980000     1.5518380000
   12      C      -0.6584850000    -2.3312650000     0.1790370000
   13      C      -1.4050640000    -3.2564330000     0.8578420000
   14      O       3.5022690000    -4.4775220000     1.5339740000
   15      O       0.8953680000    -0.3852880000    -1.2266570000
   16      H       5.5017680000    -3.3516060000     0.6850820000
   17      H      -2.4877620000    -3.2263230000     0.8621710000
   18      H       3.1669250000     0.2669520000    -1.7617930000
   19      H       1.2042100000    -5.1570560000     2.0798430000
   20      H      -1.1398730000    -1.5295260000    -0.3720370000
   21      C      -0.7170880000    -4.3139150000     1.5537080000
   22      H       5.6636630000     0.1881520000    -1.7850280000
   23      H       6.8499280000    -1.6444580000    -0.5447810000
   24      S      -1.6123430000    -5.4006080000     2.5674030000
   25      O      -0.8317930000    -6.6140800000     2.8927680000
   26      O      -3.0029630000    -5.5889400000     2.1066840000
   27      N      -1.8337590000    -4.5102500000     4.0633200000
   28      H      -0.9085230000    -4.3712240000     4.4656310000
   29      H      -2.3645860000    -5.1189920000     4.6888200000
 ----------------------------------------------------------------

   10   -1293.2381254857      5.80e-06  Convergence criterion met
 Total energy in the final basis set =    -1293.2381254857

                    Orbital Energies (a.u.)
 --------------------------------------------------------------

 Alpha MOs
 -- Occupied --
-89.0611 -19.1159 -19.1158 -19.0431 -19.0276 -14.3282 -10.1984 -10.1912
-10.1829 -10.1780 -10.1655 -10.1594 -10.1576 -10.1574 -10.1559 -10.1530
-10.1522 -10.1519 -10.1510 -10.1441  -8.1228  -6.0856  -6.0854  -6.0835
 -1.1121  -1.0026  -0.9656  -0.9463  -0.8887  -0.8473  -0.8347  -0.7747
 -0.7481  -0.7324  -0.7297  -0.6754  -0.6431  -0.6136  -0.5916  -0.5710
 -0.5427  -0.5316  -0.5161  -0.5051  -0.4952  -0.4720  -0.4608  -0.4479
 -0.4443  -0.4360  -0.4193  -0.4076  -0.3975  -0.3942  -0.3866  -0.3838
 -0.3693  -0.3583  -0.3543  -0.3448  -0.3412  -0.3332  -0.3283  -0.3201
 -0.3158  -0.3119  -0.3068  -0.2792  -0.2515  -0.2404  -0.2367  -0.2302
 -0.2198  -0.2071  -0.1202

          Ground-State Mulliken Net Atomic Charges

     Atom                 Charge (a.u.)
  ----------------------------------------
      1 C                     0.032078
      2 C                    -0.521016
      3 C                    -0.514481
      4 C                     0.282498
      5 C                     0.326835
      6 C                     0.009795
      7 C                    -0.590181
      8 C                     0.172756
      9 C                     0.597513
     10 C                    -0.291472
     11 C                    -0.165541
     12 C                    -0.209015
     13 C                    -0.408554
     14 O                    -0.596890
     15 O                    -0.672781
     16 H                     0.154965
     17 H                     0.239555
     18 H                     0.155675
     19 H                     0.209456
     20 H                     0.148519
     21 C                    -0.375599
     22 H                     0.183795
     23 H                     0.183126
     24 S                     0.215850
     25 O                    -0.326369
     26 O                    -0.368132
     27 N                    -0.511005
     28 H                     0.307818
     29 H                     0.330795
  ----------------------------------------
  Sum of atomic charges =    -2.000006

                    Cartesian Multipole Moments
 -----------------------------------------------------------------
    Charge (ESU x 10^10)
                -9.6064
    Dipole Moment (Debye)
         X     -11.3577      Y      30.2266      Z      -2.8573
       Tot      32.4162
    Quadrupole Moments (Debye-Ang)
        XX    -197.0517     XY      24.4765     YY    -285.4366
        XZ      -2.6549     YZ      36.7839     ZZ    -140.0511

 Total job time:  92.59s(wall), 501.01s(cpu)
        *  Thank you very much for using Q-Chem.  Have a nice day.  *
