 Gaussian 16, Revision A.03,
 Gaussian 16:  ES64L-G16RevA.03 25-Dec-2016

 ----------------------------------------------------------------
 #P UB3LYP/6-311++G(d,p) SCRF=(PCM,Solvent=n,n-DiMethylFormamide)
 ----------------------------------------------------------------

 ------------------
 Radical PCM in DMF
 ------------------
 Symbolic Z-matrix:
 Charge = -1 Multiplicity = 2

                         Standard orientation:
 ---------------------------------------------------------------------
 Center     Atomic      Atomic             Coordinates (Angstroms)
 Number     Number       Type             X           Y           Z
 ---------------------------------------------------------------------
      1          6           0       -2.918879   -0.287882    1.268879
      2          6           0       -2.175427   -0.748146   -0.000516
      3          6           0       -2.919216   -0.285043   -1.268695
      4          6           0       -0.714408   -0.322974   -0.000221
      5          6           0        0.280113   -1.271814   -0.000366
      6          6           0        1.694715   -0.973644   -0.000242
      7          8           0        2.577496   -1.882111   -0.000470
      8          6           0        2.045354    0.440952    0.000089
      9          6           0        1.057131    1.391704    0.000275
     10          6           0       -0.359198    1.093972    0.000231
     11          8           0       -1.227556    2.019593    0.000659
     12          6           0        3.507199    0.800023    0.000238
     13          1           0       -2.933430    0.802289    1.319288
     14          1           0       -3.952145   -0.657970    1.268428
     15          1           0       -2.422721   -0.668173    2.167305
     16          1           0       -2.177495   -1.846262   -0.001674
     17          1           0       -2.933778    0.805231   -1.316559
     18          1           0       -2.423237   -0.663249   -2.168095
     19          1           0       -3.952451   -0.655220   -1.268864
     20          1           0        0.024676   -2.329733   -0.000768
     21          1           0        1.310805    2.449841    0.000612
     22          1           0        4.015142    0.376697    0.873797
     23          1           0        3.645927    1.885212    0.001376
     24          1           0        4.014895    0.378594   -0.874396
 ---------------------------------------------------------------------

 SCF Done:  E(UB3LYP) =  -539.024514704     A.U. after   19 cycles

 The electronic state is 2-A.
 Alpha  occ. eigenvalues --  -19.07163 -19.06954 -10.21243 -10.21162 -10.16869
 Alpha  occ. eigenvalues --  -10.16672 -10.16399 -10.15586 -10.15310 -10.15298
 Alpha  occ. eigenvalues --  -10.14677 -10.14674  -0.99211  -0.98901  -0.82521
 Alpha  occ. eigenvalues --   -0.79218  -0.74340  -0.69170  -0.67333  -0.65846
 Alpha  occ. eigenvalues --   -0.58767  -0.58301  -0.52381  -0.48221  -0.45557
 Alpha  occ. eigenvalues --   -0.43839  -0.42558  -0.42234  -0.41717  -0.40362
 Alpha  occ. eigenvalues --   -0.39686  -0.38639  -0.38201  -0.36987  -0.36925
 Alpha  occ. eigenvalues --   -0.35872  -0.34882  -0.33299  -0.33015  -0.32360
 Alpha  occ. eigenvalues --   -0.27124  -0.24150  -0.23600  -0.22883  -0.15552
 Alpha virt. eigenvalues --   -0.00251  -0.00097   0.00572   0.01439   0.01669
 Alpha virt. eigenvalues --    0.02769   0.03119   0.03481   0.04345   0.04369
 Alpha virt. eigenvalues --    0.05250   0.05426   0.05520   0.06465   0.06708

  Beta  occ. eigenvalues --  -19.06495 -19.06256 -10.21092 -10.21003 -10.16877
  Beta  occ. eigenvalues --  -10.16543 -10.16259 -10.15596 -10.15231 -10.15222
  Beta  occ. eigenvalues --  -10.14670 -10.14667  -0.98028  -0.97663  -0.82000
  Beta  occ. eigenvalues --   -0.79020  -0.74149  -0.68720  -0.67310  -0.65104
  Beta  occ. eigenvalues --   -0.58462  -0.58005  -0.52029  -0.48035  -0.45281
  Beta  occ. eigenvalues --   -0.43503  -0.42482  -0.41535  -0.41404  -0.40098
  Beta  occ. eigenvalues --   -0.39106  -0.38080  -0.38060  -0.36711  -0.35916
  Beta  occ. eigenvalues --   -0.34627  -0.33568  -0.32918  -0.32841  -0.32313
  Beta  occ. eigenvalues --   -0.23948  -0.23394  -0.22982  -0.22279
  Beta virt. eigenvalues --   -0.08338  -0.00234   0.00580   0.01109   0.01463
  Beta virt. eigenvalues --    0.01933   0.02783   0.03134   0.04391   0.04415
  Beta virt. eigenvalues --    0.05264   0.05349   0.05542   0.05716   0.06574

 Mulliken charges and spin densities:
               1          2
     1  C   -0.686030   0.010498
     2  C    0.173526  -0.023596
     3  C   -0.685717   0.010494
     4  C    1.137657   0.123670
     5  C   -0.170265   0.044992
     6  C   -0.883862   0.111420
     7  O   -0.509357   0.239433
     8  C    1.068697   0.102468
     9  C   -0.706692   0.057740
    10  C   -0.756412   0.075626
    11  O   -0.465478   0.250832
    12  C   -0.372325   0.003927
    13  H    0.177693  -0.001544
    14  H    0.142473   0.000576
    15  H    0.125105   0.000286
    16  H    0.172986  -0.001098
    17  H    0.177716  -0.001546
    18  H    0.125041   0.000291
    19  H    0.142461   0.000570
    20  H    0.167289  -0.007037
    21  H    0.152410  -0.006938
    22  H    0.164344   0.004644
    23  H    0.144344  -0.000365
    24  H    0.164396   0.004658
 Sum of Mulliken charges =  -1.00000   1.00000

 Dipole moment (field-independent basis, Debye):
    X=             -3.1790    Y=             -0.0975    Z=             -0.0004  Tot=              3.1805
 Quadrupole moment (field-independent basis, Debye-Ang):
   XX=            -97.0568   YY=            -97.2122   ZZ=            -78.1182
   XY=             21.9495   XZ=              0.0056   YZ=             -0.0052

 Normal termination of Gaussian 16 at Sun Jan 21 07:17:35 2024.
