 Q-Chem 5.4, Q-Chem, Inc., Pleasanton, CA (2021)
 Q-Chem 5.4.0 for Intel X86 EM64T Linux

User input:
--------------------------------------------------------------
$molecule
0 1
N                 -2.8408800000      1.5534250000      1.1399060000
C                 -2.4805260000      0.5457070000      0.3189100000
C                 -3.4650460000     -0.1700460000     -0.4130880000
Br                -5.3104030000      0.3179100000     -0.2389950000
C                 -3.1424020000     -1.2053550000     -1.2520990000
C                 -1.8102600000     -1.6130150000     -1.4060980000
Br                -1.5892030000     -3.0645810000     -2.6347080000
C                 -0.7871060000     -0.9567850000     -0.7183040000
C                  0.6453580000     -1.3973420000     -0.8368510000
O                  0.9593740000     -2.4324310000     -1.3956060000
C                  1.6970190000     -0.5316390000     -0.2388470000
C                  3.0423680000     -0.8453940000     -0.4619570000
C                  4.0406770000     -0.0584480000      0.0968880000
C                  3.7040790000      1.0408520000      0.8937130000
C                  2.3708680000      1.3509200000      1.1272530000
C                  1.3601920000      0.5677430000      0.5571410000
C                 -0.0598960000      0.9112380000      0.8201050000
O                 -0.3120560000      1.8444130000      1.5894770000
C                 -1.1195790000      0.1442320000      0.1340420000
H                 -2.1069410000      2.0563440000      1.6249900000
H                 -3.8087720000      1.8225820000      1.2016170000
H                 -3.9206820000     -1.7188970000     -1.7989630000
H                  3.2783770000     -1.7065790000     -1.0740980000
H                  5.0823790000     -0.2987220000     -0.0828030000
H                  4.4852490000      1.6516080000      1.3318430000
H                  2.0878090000      2.1922610000      1.7465310000
$end
$rem
MAX_SCF_CYCLES=200
BASIS  =  6-311++G(d,p)
GUI  =  2
JOB_TYPE  =  SP
METHOD  =  B3LYP
SOLVENT_METHOD = COSMO
$end
$solvent
dielectric 37.219
opticaldielectric 1.43
$end

--------------------------------------------------------------

             Standard Nuclear Orientation (Angstroms)
    I     Atom           X                Y                Z
 ----------------------------------------------------------------
    1      N      -1.3512189237    -2.8093751928    -0.1036192185
    2      C      -1.1133421019    -1.4822482456    -0.0644568853
    3      C      -2.1930034864    -0.5616544705     0.0006695730
    4      Br     -3.9924785237    -1.2198487206     0.0498814346
    5      C      -1.9954169511     0.7947105949     0.0343846266
    6      C      -0.7012125613     1.3306740235    -0.0133948272
    7      Br     -0.6596285634     3.2433367610     0.0599850451
    8      C       0.4101980376     0.4874207304    -0.0784553473
    9      C       1.8068172777     1.0365468481    -0.1679661162
   10      O       2.0257448362     2.2196784845    -0.3536881974
   11      C       2.9437546278     0.0869867683    -0.0310338570
   12      C       4.2467475952     0.5930722396     0.0343192344
   13      C       5.3239377908    -0.2755988876     0.1495770133
   14      C       5.1100534255    -1.6574426651     0.1876563659
   15      C       3.8201164748    -2.1659399114     0.1126371646
   16      C       2.7295560227    -1.2944277125     0.0077359242
   17      C       1.3575058862    -1.8551511318    -0.0750679286
   18      O       1.2192264308    -3.0822428235    -0.1132555297
   19      C       0.2063935499    -0.9295190365    -0.0824380055
   20      H      -0.5538139382    -3.4343848796    -0.1238341580
   21      H      -2.2977767242    -3.1467631429    -0.0464671111
   22      H      -2.8438231565     1.4619601503     0.0934635582
   23      H       4.3880860039     1.6656371877    -0.0067215089
   24      H       6.3321895397     0.1184379790     0.2072560043
   25      H       5.9528742090    -2.3337508638     0.2740722476
   26      H       3.6321409191    -3.2316516431     0.1327869159
 ----------------------------------------------------------------

    9   -5891.4039913798      4.19e-06  Convergence criterion met
 Total energy in the final basis set =    -5891.4039913798
    5   -5891.4184454061      3.31e-06  Convergence criterion met
 Total energy in the final basis set =    -5891.4184454061

                    Orbital Energies (a.u.)
 --------------------------------------------------------------

 Alpha MOs
 -- Occupied --
********-482.8402 -62.5046 -62.4931 -56.3251 -56.3212 -56.3210 -56.3137
-56.3098 -56.3093 -19.1319 -19.1313 -14.3410 -10.2876 -10.2853 -10.2652
-10.2560 -10.2538 -10.2274 -10.2181 -10.2164 -10.2071 -10.2063 -10.1958
-10.1955 -10.1949 -10.1947  -8.7134  -8.7020  -6.5449  -6.5338  -6.5318
 -6.5316  -6.5208  -6.5194  -2.6559  -2.6519  -2.6518  -2.6446  -2.6415
 -2.6415  -2.6412  -2.6402  -2.6298  -2.6297  -1.0710  -1.0664  -0.9604
 -0.8982  -0.8861  -0.8433  -0.8251  -0.7911  -0.7772  -0.7640  -0.7453
 -0.6916  -0.6679  -0.6524  -0.6142  -0.5924  -0.5828  -0.5551  -0.5425
 -0.5170  -0.5045  -0.4832  -0.4808  -0.4736  -0.4641  -0.4588  -0.4492
 -0.4477  -0.4395  -0.4275  -0.4197  -0.4072  -0.3953  -0.3802  -0.3781
 -0.3671  -0.3657  -0.3373  -0.3170  -0.3139  -0.3087  -0.2871  -0.2849
 -0.2777  -0.2745  -0.2656  -0.2320

          Ground-State Mulliken Net Atomic Charges

     Atom                 Charge (a.u.)
  ----------------------------------------
      1 N                    -0.347916
      2 C                    -0.467289
      3 C                     0.412175
      4 Br                   -0.192528
      5 C                    -0.172302
      6 C                     0.076832
      7 Br                   -0.208528
      8 C                     0.780794
      9 C                    -1.108342
     10 O                    -0.219749
     11 C                    -0.037328
     12 C                     0.178093
     13 C                    -0.459189
     14 C                    -0.564517
     15 C                     0.136008
     16 C                     0.255505
     17 C                    -0.264682
     18 O                    -0.325307
     19 C                     0.700406
     20 H                     0.365167
     21 H                     0.295742
     22 H                     0.298684
     23 H                     0.212127
     24 H                     0.221956
     25 H                     0.224380
     26 H                     0.209808
  ----------------------------------------
  Sum of atomic charges =     0.000000

                    Cartesian Multipole Moments
 -----------------------------------------------------------------
    Charge (ESU x 10^10)
                -0.0000
    Dipole Moment (Debye)
         X       0.1873      Y      -3.6645      Z       0.7996
       Tot       3.7554
    Quadrupole Moments (Debye-Ang)
        XX    -104.2185     XY      -2.0337     YY    -139.3000
        XZ       2.2494     YZ       0.6644     ZZ    -137.3151

 Total job time:  82.53s(wall), 628.20s(cpu)
        *  Thank you very much for using Q-Chem.  Have a nice day.  *
