 Gaussian 16, Revision A.03,
 Gaussian 16:  ES64L-G16RevA.03 25-Dec-2016

 ----------------------------------------------------------------
 #P UB3LYP/6-311++G(d,p) SCRF=(PCM,Solvent=n,n-DiMethylFormamide)
 ----------------------------------------------------------------

 ------------------
 Radical PCM in DMF
 ------------------
 Symbolic Z-matrix:
 Charge = -1 Multiplicity = 2

                         Standard orientation:
 ---------------------------------------------------------------------
 Center     Atomic      Atomic             Coordinates (Angstroms)
 Number     Number       Type             X           Y           Z
 ---------------------------------------------------------------------
      1          6           0       -3.688351    0.372529   -0.000115
      2          6           0       -2.183458    0.366788    0.000015
      3          6           0       -1.457166    1.541300    0.000029
      4          6           0       -0.031101    1.585734    0.000044
      5          8           0        0.616440    2.695167    0.000022
      6          6           0        0.670005    0.307100    0.000032
      7          6           0        2.094216    0.277017    0.000002
      8          8           0        2.799233    1.428619   -0.000030
      9          6           0        2.766964   -0.942181   -0.000037
     10          6           0        2.039208   -2.140711   -0.000035
     11          6           0        0.653230   -2.135921   -0.000006
     12          6           0       -0.050051   -0.917384    0.000034
     13          6           0       -1.525130   -0.923764    0.000060
     14          8           0       -2.181425   -1.999385    0.000056
     15          1           0       -4.078134    1.394288   -0.001281
     16          1           0       -4.082217   -0.156551    0.874397
     17          1           0       -4.081966   -0.158535   -0.873515
     18          1           0       -1.965942    2.501926    0.000018
     19          1           0        2.097402    2.157662   -0.000031
     20          1           0        3.851509   -0.937436   -0.000058
     21          1           0        2.576079   -3.085395   -0.000059
     22          1           0        0.079084   -3.054213    0.000004
 ---------------------------------------------------------------------

 SCF Done:  E(UB3LYP) =  -650.002678879     A.U. after   20 cycles

 The electronic state is 2-A.
 Alpha  occ. eigenvalues --  -19.13083 -19.09030 -19.07820 -10.23453 -10.22973
 Alpha  occ. eigenvalues --  -10.22169 -10.17552 -10.17550 -10.17533 -10.17381
 Alpha  occ. eigenvalues --  -10.16610 -10.16307 -10.16122 -10.15852  -1.05400
 Alpha  occ. eigenvalues --   -1.00350  -1.00136  -0.85560  -0.81278  -0.75761
 Alpha  occ. eigenvalues --   -0.74145  -0.70255  -0.66506  -0.62455  -0.59391
 Alpha  occ. eigenvalues --   -0.57168  -0.51261  -0.50830  -0.49729  -0.46267
 Alpha  occ. eigenvalues --   -0.44904  -0.43447  -0.43335  -0.42013  -0.41285
 Alpha  occ. eigenvalues --   -0.39827  -0.38852  -0.37798  -0.37774  -0.37593
 Alpha  occ. eigenvalues --   -0.37410  -0.35329  -0.34643  -0.32944  -0.27718
 Alpha  occ. eigenvalues --   -0.25620  -0.24972  -0.24012  -0.22952  -0.15547
 Alpha virt. eigenvalues --   -0.02475  -0.01674  -0.00207   0.00745   0.01352
 Alpha virt. eigenvalues --    0.02623   0.02824   0.03777   0.04672   0.04695
 Alpha virt. eigenvalues --    0.05190   0.05554   0.05642   0.07224   0.07591

  Beta  occ. eigenvalues --  -19.13063 -19.08498 -19.07195 -10.23443 -10.22753
  Beta  occ. eigenvalues --  -10.22012 -10.17501 -10.17500 -10.17386 -10.17348
  Beta  occ. eigenvalues --  -10.16544 -10.16272 -10.16035 -10.15865  -1.05281
  Beta  occ. eigenvalues --   -0.99434  -0.99059  -0.85328  -0.80795  -0.75557
  Beta  occ. eigenvalues --   -0.73895  -0.69909  -0.65859  -0.62240  -0.59103
  Beta  occ. eigenvalues --   -0.56936  -0.51142  -0.50623  -0.49384  -0.46037
  Beta  occ. eigenvalues --   -0.44800  -0.43113  -0.42511  -0.41585  -0.40842
  Beta  occ. eigenvalues --   -0.39528  -0.38735  -0.37677  -0.37280  -0.36698
  Beta  occ. eigenvalues --   -0.35451  -0.35151  -0.34475  -0.31988  -0.25298
  Beta  occ. eigenvalues --   -0.25165  -0.24348  -0.23455  -0.22145
  Beta virt. eigenvalues --   -0.09108  -0.01457  -0.00515  -0.00185   0.00748
  Beta virt. eigenvalues --    0.01375   0.02638   0.02831   0.03876   0.04700
  Beta virt. eigenvalues --    0.05205   0.05563   0.05687   0.05887   0.07598

 Mulliken charges and spin densities:
               1          2
     1  C   -0.339414   0.001168
     2  C    0.616800   0.122846
     3  C   -0.383008   0.048573
     4  C   -0.951367   0.112839
     5  O   -0.517070   0.187904
     6  C    0.952087   0.024371
     7  C   -0.266878   0.024093
     8  O   -0.400485   0.007278
     9  C   -0.125832   0.048263
    10  C   -0.414455   0.023816
    11  C   -0.136207   0.054636
    12  C    0.347400   0.007541
    13  C   -0.457385   0.111322
    14  O   -0.467502   0.233456
    15  H    0.153249  -0.000002
    16  H    0.167888   0.006787
    17  H    0.167817   0.006764
    18  H    0.156328  -0.007603
    19  H    0.367411  -0.004294
    20  H    0.183891  -0.003988
    21  H    0.187904  -0.002071
    22  H    0.158831  -0.003699
 Sum of Mulliken charges =  -1.00000   1.00000

 Dipole moment (field-independent basis, Debye):
    X=              0.3285    Y=             -1.2212    Z=             -0.0002  Tot=              1.2646
 Quadrupole moment (field-independent basis, Debye-Ang):
   XX=           -101.3213   YY=           -108.9692   ZZ=            -86.8558
   XY=            -19.6811   XZ=              0.0002   YZ=              0.0003

 Normal termination of Gaussian 16 at Thu Jan 25 05:46:40 2024.
