 Gaussian 16, Revision A.03,
 Gaussian 16:  ES64L-G16RevA.03 25-Dec-2016

 ----------------------------------------------------------------------
 #P UB3LYP/6-311++G(d,p) nosym opt freq SCRF=(PCM,Solvent=n,n-DiMethylF
 ormamide)
 ----------------------------------------------------------------------

 --------
 Oxidized
 --------
 Symbolic Z-matrix:
 Charge =  0 Multiplicity = 1

 SCF Done:  E(UB3LYP) =  -918.084302043     A.U. after   15 cycles
 SCF Done:  E(UB3LYP) =  -918.084512991     A.U. after   11 cycles
 SCF Done:  E(UB3LYP) =  -918.084545919     A.U. after   11 cycles
 SCF Done:  E(UB3LYP) =  -918.084475600     A.U. after   11 cycles
 SCF Done:  E(UB3LYP) =  -918.084555321     A.U. after   11 cycles
 SCF Done:  E(UB3LYP) =  -918.084556276     A.U. after    9 cycles
 Optimization completed.
    -- Stationary point found.
 Normal termination of Gaussian 16 at Sat Feb 10 16:36:16 2024.

 ----------------------------------------------------------------------
 #P Geom=AllCheck Guess=TCheck SCRF=Check GenChk UB3LYP/6-311++G(d,p) F
 req
 ----------------------------------------------------------------------

 Structure from the checkpoint file:  "141.chk"
 --------
 Oxidized
 --------
 Charge =  0 Multiplicity = 1

                          Input orientation:
 ---------------------------------------------------------------------
 Center     Atomic      Atomic             Coordinates (Angstroms)
 Number     Number       Type             X           Y           Z
 ---------------------------------------------------------------------
      1          6           0       -3.292121    3.608942    0.083748
      2          6           0       -4.523820    2.967317    0.089182
      3          6           0       -4.571598    1.565028    0.065769
      4          6           0       -2.094764    2.888282    0.055453
      5          6           0       -2.151569    1.477517    0.032310
      6          6           0       -3.379126    0.829905    0.037440
      7          6           0       -0.805096    3.609996    0.050360
      8          6           0        0.442880    2.786190    0.020550
      9          6           0        0.386077    1.375426   -0.002591
     10          6           0       -0.903592    0.653711    0.002524
     11          6           0        1.670436    3.433804    0.015391
     12          6           0        2.862909    2.698684   -0.012963
     13          6           0        2.815132    1.296394   -0.036373
     14          6           0        1.583434    0.654767   -0.030912
     15          8           0       -0.749752    4.835750    0.069639
     16          8           0       -0.958936   -0.572043   -0.016790
     17          1           0       -3.418852   -0.251547    0.019586
     18          1           0        1.540270   -0.426973   -0.048984
     19          1           0       -3.248956    4.690682    0.101820
     20          1           0        1.710161    4.515257    0.033243
     21          8           0        4.002822    3.425185   -0.015725
     22          8           0       -5.711513    0.838530    0.068504
     23          6           0       -6.973586    1.519503    0.097590
     24          6           0        5.264898    2.744219   -0.044836
     25          1           0       -5.430138    3.556226    0.111362
     26          1           0        3.721450    0.707486   -0.058573
     27          1           0       -7.727468    0.735884    0.093478
     28          1           0       -7.096482    2.151926   -0.785073
     29          1           0       -7.072601    2.119586    1.005499
     30          1           0        6.018776    3.527842   -0.040740
     31          1           0        5.363899    2.144136   -0.952748
     32          1           0        5.387817    2.111797    0.837824
 ---------------------------------------------------------------------

 SCF Done:  E(UB3LYP) =  -918.084556276     A.U. after    1 cycles

 Alpha  occ. eigenvalues --  -19.17640 -19.17640 -19.12672 -19.12671 -10.28043
 Alpha  occ. eigenvalues --  -10.28042 -10.26415 -10.26415 -10.23055 -10.23055
 Alpha  occ. eigenvalues --  -10.21066 -10.21065 -10.20184 -10.20183 -10.20130
 Alpha  occ. eigenvalues --  -10.20130 -10.19775 -10.19775 -10.19536 -10.19536
 Alpha  occ. eigenvalues --   -1.09105  -1.09104  -1.05997  -1.05810  -0.89342
 Alpha  occ. eigenvalues --   -0.88147  -0.81256  -0.78684  -0.78519  -0.77365
 Alpha  occ. eigenvalues --   -0.72649  -0.72455  -0.67327  -0.67213  -0.62689
 Alpha  occ. eigenvalues --   -0.62575  -0.58952  -0.56647  -0.56424  -0.53602
 Alpha  occ. eigenvalues --   -0.51822  -0.51349  -0.49856  -0.48526  -0.48463
 Alpha  occ. eigenvalues --   -0.48163  -0.46191  -0.45726  -0.45376  -0.45217
 Alpha  occ. eigenvalues --   -0.45094  -0.43471  -0.43219  -0.42237  -0.41592
 Alpha  occ. eigenvalues --   -0.40321  -0.39831  -0.39701  -0.38826  -0.38189
 Alpha  occ. eigenvalues --   -0.35166  -0.35001  -0.34608  -0.33722  -0.28705
 Alpha  occ. eigenvalues --   -0.28567  -0.27997  -0.27466  -0.25607  -0.24654
 Alpha virt. eigenvalues --   -0.11413  -0.07453  -0.02745  -0.02583  -0.00801
 Alpha virt. eigenvalues --   -0.00273   0.00876   0.00928   0.01609   0.02562
 Alpha virt. eigenvalues --    0.02945   0.03257   0.03303   0.03443   0.03951

  Beta  occ. eigenvalues --  -19.17640 -19.17640 -19.12672 -19.12671 -10.28043
  Beta  occ. eigenvalues --  -10.28042 -10.26415 -10.26415 -10.23055 -10.23055
  Beta  occ. eigenvalues --  -10.21066 -10.21065 -10.20184 -10.20183 -10.20130
  Beta  occ. eigenvalues --  -10.20130 -10.19775 -10.19775 -10.19536 -10.19536
  Beta  occ. eigenvalues --   -1.09105  -1.09104  -1.05997  -1.05810  -0.89342
  Beta  occ. eigenvalues --   -0.88147  -0.81256  -0.78684  -0.78519  -0.77365
  Beta  occ. eigenvalues --   -0.72649  -0.72455  -0.67327  -0.67213  -0.62689
  Beta  occ. eigenvalues --   -0.62575  -0.58952  -0.56647  -0.56424  -0.53602
  Beta  occ. eigenvalues --   -0.51822  -0.51349  -0.49856  -0.48526  -0.48463
  Beta  occ. eigenvalues --   -0.48163  -0.46191  -0.45726  -0.45376  -0.45217
  Beta  occ. eigenvalues --   -0.45094  -0.43471  -0.43219  -0.42237  -0.41592
  Beta  occ. eigenvalues --   -0.40321  -0.39831  -0.39701  -0.38826  -0.38189
  Beta  occ. eigenvalues --   -0.35166  -0.35001  -0.34608  -0.33722  -0.28705
  Beta  occ. eigenvalues --   -0.28567  -0.27997  -0.27466  -0.25607  -0.24654
  Beta virt. eigenvalues --   -0.11413  -0.07453  -0.02745  -0.02583  -0.00801
  Beta virt. eigenvalues --   -0.00273   0.00876   0.00928   0.01609   0.02562
  Beta virt. eigenvalues --    0.02945   0.03257   0.03303   0.03443   0.03951

 Mulliken charges and spin densities:
               1          2
     1  C    0.069139  -0.000000
     2  C    0.112898   0.000000
     3  C   -0.818744  -0.000000
     4  C    0.525542   0.000000
     5  C    0.776912   0.000000
     6  C   -0.441188   0.000000
     7  C   -0.594988  -0.000000
     8  C    0.776910  -0.000000
     9  C    0.525545   0.000000
    10  C   -0.594989  -0.000000
    11  C   -0.441190   0.000000
    12  C   -0.818739   0.000000
    13  C    0.112898  -0.000000
    14  C    0.069138  -0.000000
    15  O   -0.290614  -0.000000
    16  O   -0.290614   0.000000
    17  H    0.195684   0.000000
    18  H    0.190100   0.000000
    19  H    0.190100   0.000000
    20  H    0.195684   0.000000
    21  O   -0.179513  -0.000000
    22  O   -0.179512   0.000000
    23  C   -0.332398   0.000000
    24  C   -0.332398   0.000000
    25  H    0.237636  -0.000000
    26  H    0.237636  -0.000000
    27  H    0.199569  -0.000000
    28  H    0.174904   0.000000
    29  H    0.175059   0.000000
    30  H    0.199569   0.000000
    31  H    0.175060   0.000000
    32  H    0.174903   0.000000
 Sum of Mulliken charges =  -0.00000  -0.00000

 Dipole moment (field-independent basis, Debye):
    X=              0.0000    Y=              0.0000    Z=             -0.0000  Tot=              0.0001
 Quadrupole moment (field-independent basis, Debye-Ang):
   XX=            -45.2123   YY=           -136.0747   ZZ=           -117.2650
   XY=            -12.3241   XZ=             -1.1776   YZ=             -0.1404

  Exact polarizability: 459.691  32.573 313.375  -3.687   2.473 140.880
 Approx polarizability: 470.913  46.167 410.367  -3.287   3.526 164.822

                      1                      2                      3
                      A                      A                      A
 Frequencies --     25.0968                72.8367                76.8980
 Red. masses --      5.9260                 3.6402                 4.6162
 Frc consts  --      0.0022                 0.0114                 0.0161
 IR Inten    --      8.8186                 0.0000                 0.8811

                      4                      5                      6
                      A                      A                      A
 Frequencies --     89.1128               101.3191               124.8295
 Red. masses --      3.6852                 5.0991                 4.6180
 Frc consts  --      0.0172                 0.0308                 0.0424
 IR Inten    --     10.6596                 0.0000                 4.4514

                      7                      8                      9
                      A                      A                      A
 Frequencies --    156.5125               189.2453               191.9114
 Red. masses --      6.4438                 4.3097                 4.7971
 Frc consts  --      0.0930                 0.0909                 0.1041
 IR Inten    --     10.7814                 0.0000                 0.0000

                     10                     11                     12
                      A                      A                      A
 Frequencies --    215.4238               220.3606               255.2827
 Red. masses --      1.1659                 1.2019                 5.2134
 Frc consts  --      0.0319                 0.0344                 0.2002
 IR Inten    --      0.0433                 0.0000                 0.0000

                     13                     14                     15
                      A                      A                      A
 Frequencies --    285.5893               287.4184               309.9954
 Red. masses --      3.6961                 4.0406                 4.6497
 Frc consts  --      0.1776                 0.1967                 0.2633
 IR Inten    --     14.3554                 3.8294                 0.0000

                     16                     17                     18
                      A                      A                      A
 Frequencies --    328.8534               356.0614               414.4962
 Red. masses --      6.4542                 9.8808                 7.3937
 Frc consts  --      0.4112                 0.7381                 0.7484
 IR Inten    --      0.0000                22.4719                 0.0000

                     19                     20                     21
                      A                      A                      A
 Frequencies --    432.3017               445.0003               452.8998
 Red. masses --      3.3189                 3.2732                 6.4329
 Frc consts  --      0.3654                 0.3819                 0.7774
 IR Inten    --      0.9502                 0.0000                23.3778

                     22                     23                     24
                      A                      A                      A
 Frequencies --    473.9682               522.1873               536.9387
 Red. masses --     11.8843                 6.5137                 4.3850
 Frc consts  --      1.5730                 1.0465                 0.7449
 IR Inten    --      0.0000                 0.0000                 0.0000

                     25                     26                     27
                      A                      A                      A
 Frequencies --    579.7021               592.3036               634.7301
 Red. masses --      3.6893                 5.2201                 6.8293
 Frc consts  --      0.7305                 1.0790                 1.6211
 IR Inten    --     24.0244               116.2953                 0.0000

                     28                     29                     30
                      A                      A                      A
 Frequencies --    674.4787               684.0729               699.3695
 Red. masses --      6.2440                 3.3339                 6.9786
 Frc consts  --      1.6736                 0.9192                 2.0111
 IR Inten    --      0.3120                 0.0000                 0.0000

                     31                     32                     33
                      A                      A                      A
 Frequencies --    715.0467               715.2397               763.3153
 Red. masses --      6.8021                 3.8928                 6.7002
 Frc consts  --      2.0491                 1.1733                 2.3001
 IR Inten    --     53.5395                11.1033                81.0909

                     34                     35                     36
                      A                      A                      A
 Frequencies --    785.8211               796.8999               846.9134
 Red. masses --      4.0375                 5.9947                 1.4858
 Frc consts  --      1.4690                 2.2430                 0.6279
 IR Inten    --      0.0000                 0.0000                58.5081

                     37                     38                     39
                      A                      A                      A
 Frequencies --    849.0822               880.8963               912.9268
 Red. masses --      1.7007                 6.6163                 1.4789
 Frc consts  --      0.7224                 3.0249                 0.7262
 IR Inten    --      0.0000                92.0085                 0.0000

                     40                     41                     42
                      A                      A                      A
 Frequencies --    914.0274               975.7391               976.2383
 Red. masses --      1.5140                 5.2210                 5.9751
 Frc consts  --      0.7453                 2.9287                 3.3551
 IR Inten    --     50.7765               344.5566                 0.0000

                     43                     44                     45
                      A                      A                      A
 Frequencies --    986.6624               989.4717              1038.7921
 Red. masses --      1.3293                 1.3575                 3.7390
 Frc consts  --      0.7624                 0.7831                 2.3772
 IR Inten    --      0.0000                 3.7586                 0.0000

                     46                     47                     48
                      A                      A                      A
 Frequencies --   1047.5258              1107.3444              1131.2121
 Red. masses --      2.3189                 3.8555                 1.9814
 Frc consts  --      1.4992                 2.7855                 1.4939
 IR Inten    --     74.3605               300.4819                 0.0000

                     49                     50                     51
                      A                      A                      A
 Frequencies --   1161.4096              1166.4478              1166.4572
 Red. masses --      1.7906                 1.2703                 1.2704
 Frc consts  --      1.4231                 1.0184                 1.0184
 IR Inten    --      0.0000                 2.2300                 0.0013

                     52                     53                     54
                      A                      A                      A
 Frequencies --   1173.9965              1201.5988              1206.3070
 Red. masses --      1.5552                 1.4817                 1.4205
 Frc consts  --      1.2629                 1.2605                 1.2179
 IR Inten    --     22.7759                 0.0000                61.7802

                     55                     56                     57
                      A                      A                      A
 Frequencies --   1230.7627              1245.6726              1268.1876
 Red. masses --      1.6155                 1.9234                 5.5720
 Frc consts  --      1.4418                 1.7585                 5.2799
 IR Inten    --      0.0000               291.5328                 0.0000

                     58                     59                     60
                      A                      A                      A
 Frequencies --   1293.9654              1299.4026              1319.7152
 Red. masses --      3.8367                 2.6623                 2.1610
 Frc consts  --      3.7849                 2.6485                 2.2175
 IR Inten    --   2528.6929               473.7055                 0.0000

                     61                     62                     63
                      A                      A                      A
 Frequencies --   1352.3789              1369.6411              1452.7427
 Red. masses --      9.1690                10.0707                 3.2751
 Frc consts  --      9.8803                11.1307                 4.0724
 IR Inten    --    279.4682                 0.0000               194.6229

                     64                     65                     66
                      A                      A                      A
 Frequencies --   1464.7238              1474.4497              1475.0294
 Red. masses --      2.9102                 1.3031                 1.4029
 Frc consts  --      3.6786                 1.6691                 1.7983
 IR Inten    --      0.0000                25.1808                 0.0000

                     67                     68                     69
                      A                      A                      A
 Frequencies --   1486.6607              1486.7049              1494.8514
 Red. masses --      1.0438                 1.0439                 1.0694
 Frc consts  --      1.3593                 1.3594                 1.4079
 IR Inten    --      0.0008                31.9685                93.4078

                     70                     71                     72
                      A                      A                      A
 Frequencies --   1494.9473              1511.2856              1520.9859
 Red. masses --      1.0776                 2.8830                 2.8317
 Frc consts  --      1.4189                 3.8797                 3.8597
 IR Inten    --      0.0000                27.3898                 0.0000

                     73                     74                     75
                      A                      A                      A
 Frequencies --   1592.0544              1600.9084              1606.0772
 Red. masses --      6.6226                 7.7614                 6.5333
 Frc consts  --      9.8899                11.7199                 9.9292
 IR Inten    --    110.9602                 0.0000              1493.1832

                     76                     77                     78
                      A                      A                      A
 Frequencies --   1624.6674              1680.5531              1696.4601
 Red. masses --      6.0588                12.4100                10.9766
 Frc consts  --      9.4225                20.6504                18.6125
 IR Inten    --      0.0000                 0.0000               574.2024

                     79                     80                     81
                      A                      A                      A
 Frequencies --   3029.1338              3029.1976              3098.9341
 Red. masses --      1.0325                 1.0326                 1.1076
 Frc consts  --      5.5821                 5.5824                 6.2671
 IR Inten    --    144.3077                 0.0013                 0.2446

                     82                     83                     84
                      A                      A                      A
 Frequencies --   3098.9372              3153.1791              3153.1842
 Red. masses --      1.1076                 1.1021                 1.1021
 Frc consts  --      6.2671                 6.4563                 6.4563
 IR Inten    --     73.6673                42.8803                 0.0024

                     85                     86                     87
                      A                      A                      A
 Frequencies --   3197.5681              3197.5942              3206.2921
 Red. masses --      1.0892                 1.0892                 1.0907
 Frc consts  --      6.5615                 6.5614                 6.6064
 IR Inten    --      1.4361                 0.0001                15.1872

                     88                     89                     90
                      A                      A                      A
 Frequencies --   3206.4934              3217.5594              3217.6006
 Red. masses --      1.0907                 1.0931                 1.0931
 Frc consts  --      6.6074                 6.6673                 6.6674
 IR Inten    --      0.0000                13.8369                 0.0038

 - Thermochemistry -
 -------------------
 Temperature   298.150 Kelvin.  Pressure   1.00000 Atm.
 Atom     1 has atomic number  6 and mass  12.00000

 Molecular mass:   268.07356 amu.
 Principal axes and moments of inertia in atomic units:
                           1         2         3
     Eigenvalues --  1772.04943********************
           X            0.99398  -0.10879   0.01323
           Y            0.10900   0.99390  -0.01674
           Z           -0.01133   0.01808   0.99977
 This molecule is an asymmetric top.
 Rotational symmetry number  1.
 Warning -- assumption of classical behavior for rotation
           may cause significant error
 Rotational temperatures (Kelvin)      0.04888     0.00799     0.00688
 Rotational constants (GHZ):           1.01845     0.16657     0.14342
 Zero-point vibrational energy     638728.5 (Joules/Mol)
                                  152.65978 (Kcal/Mol)
 Warning -- explicit consideration of  26 degrees of freedom as
           vibrations may cause significant error
 Vibrational temperatures:     36.11   104.80   110.64   128.21   145.78
          (Kelvin)            179.60   225.19   272.28   276.12   309.95
                              317.05   367.29   410.90   413.53   446.01
                              473.15   512.29   596.37   621.99   640.26
                              651.62   681.93   751.31   772.54   834.06
                              852.19   913.23   970.42   984.23  1006.24
                             1028.79  1029.07  1098.24  1130.62  1146.56
                             1218.52  1221.64  1267.41  1313.50  1315.08
                             1403.87  1404.59  1419.59  1423.63  1494.59
                             1507.16  1593.22  1627.56  1671.01  1678.26
                             1678.27  1689.12  1728.83  1735.61  1770.79
                             1792.25  1824.64  1861.73  1869.55  1898.78
                             1945.77  1970.61  2090.17  2107.41  2121.40
                             2122.24  2138.97  2139.04  2150.76  2150.90
                             2174.40  2188.36  2290.61  2303.35  2310.79
                             2337.53  2417.94  2440.83  4358.25  4358.34
                             4458.67  4458.68  4536.72  4536.73  4600.59
                             4600.62  4613.14  4613.43  4629.35  4629.41

 Zero-point correction=                           0.243279 (Hartree/Particle)
 Thermal correction to Energy=                    0.259977
 Thermal correction to Enthalpy=                  0.260921
 Thermal correction to Gibbs Free Energy=         0.198574
 Sum of electronic and zero-point Energies=           -917.841277
 Sum of electronic and thermal Energies=              -917.824580
 Sum of electronic and thermal Enthalpies=            -917.823636
 Sum of electronic and thermal Free Energies=         -917.885982

                     E (Thermal)             CV                S
                      KCal/Mol        Cal/Mol-Kelvin    Cal/Mol-Kelvin
 Total                  163.138             64.479            131.219
 Electronic               0.000              0.000              0.000
 Translational            0.889              2.981             42.657
 Rotational               0.889              2.981             33.846
 Vibrational            161.360             58.518             54.716
 Vibration     1          0.593              1.985              6.184
 Vibration     2          0.599              1.967              4.075
 Vibration     3          0.599              1.965              3.969
 Vibration     4          0.602              1.957              3.679
 Vibration     5          0.604              1.948              3.429
 Vibration     6          0.610              1.928              3.024
 Vibration     7          0.620              1.895              2.592
 Vibration     8          0.633              1.855              2.235
 Vibration     9          0.634              1.851              2.209
 Vibration    10          0.645              1.818              1.997
 Vibration    11          0.647              1.810              1.956
 Vibration    12          0.666              1.754              1.694
 Vibration    13          0.683              1.700              1.500
 Vibration    14          0.685              1.697              1.489
 Vibration    15          0.699              1.655              1.362
 Vibration    16          0.712              1.618              1.266
 Vibration    17          0.732              1.563              1.139
 Vibration    18          0.778              1.439              0.911
 Vibration    19          0.793              1.400              0.851
 Vibration    20          0.804              1.372              0.811
 Vibration    21          0.811              1.354              0.787
 Vibration    22          0.831              1.308              0.727
 Vibration    23          0.877              1.201              0.605
 Vibration    24          0.892              1.168              0.572
 Vibration    25          0.936              1.075              0.486
 Vibration    26          0.950              1.048              0.463

 Optimization completed.
    -- Stationary point found.
 Normal termination of Gaussian 16 at Sat Feb 10 18:14:29 2024.
