 Gaussian 16, Revision A.03,
 Gaussian 16:  ES64L-G16RevA.03 25-Dec-2016

 ----------------------------------------------------------------------
 #P UB3LYP/6-311++G(d,p) nosym opt freq SCRF=(PCM,Solvent=n,n-DiMethylF
 ormamide)
 ----------------------------------------------------------------------

 --------
 Oxidized
 --------
 Symbolic Z-matrix:
 Charge =  0 Multiplicity = 1

 SCF Done:  E(UB3LYP) =  -1292.98481688     A.U. after   16 cycles
 SCF Done:  E(UB3LYP) =  -1292.98523608     A.U. after   13 cycles
 SCF Done:  E(UB3LYP) =  -1292.98529358     A.U. after   13 cycles
 SCF Done:  E(UB3LYP) =  -1292.98521292     A.U. after   13 cycles
 SCF Done:  E(UB3LYP) =  -1292.98531383     A.U. after   13 cycles
 SCF Done:  E(UB3LYP) =  -1292.98532266     A.U. after   11 cycles
 SCF Done:  E(UB3LYP) =  -1292.98532621     A.U. after   11 cycles
 SCF Done:  E(UB3LYP) =  -1292.98532787     A.U. after   11 cycles
 SCF Done:  E(UB3LYP) =  -1292.98532964     A.U. after   10 cycles
 SCF Done:  E(UB3LYP) =  -1292.98533184     A.U. after   10 cycles
 SCF Done:  E(UB3LYP) =  -1292.98542337     A.U. after   12 cycles
 SCF Done:  E(UB3LYP) =  -1292.98542171     A.U. after   11 cycles
 SCF Done:  E(UB3LYP) =  -1292.98542541     A.U. after   12 cycles
 SCF Done:  E(UB3LYP) =  -1292.98542670     A.U. after   12 cycles
 SCF Done:  E(UB3LYP) =  -1292.98542763     A.U. after   12 cycles
 SCF Done:  E(UB3LYP) =  -1292.98542752     A.U. after   12 cycles
 SCF Done:  E(UB3LYP) =  -1292.98542878     A.U. after   11 cycles
 SCF Done:  E(UB3LYP) =  -1292.98542875     A.U. after   12 cycles
 SCF Done:  E(UB3LYP) =  -1292.98542880     A.U. after   11 cycles
 Optimization completed.
    -- Stationary point found.
 Normal termination of Gaussian 16 at Sun Feb 11 00:01:36 2024.

 ----------------------------------------------------------------------
 #P Geom=AllCheck Guess=TCheck SCRF=Check GenChk UB3LYP/6-311++G(d,p) F
 req
 ----------------------------------------------------------------------

 Structure from the checkpoint file:  "218.chk"
 --------
 Oxidized
 --------
 Charge =  0 Multiplicity = 1

                          Input orientation:
 ---------------------------------------------------------------------
 Center     Atomic      Atomic             Coordinates (Angstroms)
 Number     Number       Type             X           Y           Z
 ---------------------------------------------------------------------
      1          6           0        5.069759   -2.510348    0.059857
      2          6           0        5.784499   -1.552331   -0.650845
      3          6           0        5.109814   -0.523578   -1.313380
      4          6           0        3.673970   -2.450551    0.115866
      5          6           0        2.993487   -1.413410   -0.552084
      6          6           0        3.721809   -0.455154   -1.263975
      7          6           0        2.934886   -3.488809    0.882404
      8          6           0        1.444996   -3.391762    0.916648
      9          6           0        0.763935   -2.360446    0.250915
     10          6           0        1.510043   -1.315612   -0.516446
     11          6           0        0.723828   -4.355302    1.627837
     12          6           0       -0.632842   -2.300953    0.298901
     13          6           0       -1.352776   -3.254406    1.004410
     14          8           0        3.516234   -4.392131    1.466205
     15          8           0        0.911713   -0.417680   -1.090765
     16          1           0        5.580044   -3.312453    0.577532
     17          1           0       -2.433978   -3.213882    1.037635
     18          1           0        3.186918    0.336457   -1.772926
     19          1           0        1.251090   -5.152818    2.133580
     20          1           0       -1.143451   -1.502602   -0.223394
     21          6           0       -0.659164   -4.271692    1.663868
     22          1           0        5.667793    0.222198   -1.866943
     23          1           0        6.866002   -1.604820   -0.690209
     24         16           0       -1.590354   -5.510749    2.583606
     25          8           0       -0.684350   -6.633132    2.843873
     26          8           0       -2.861880   -5.745484    1.893741
     27          7           0       -1.977948   -4.694864    3.994693
     28          1           0       -1.274130   -4.826961    4.716756
     29          1           0       -2.898304   -4.978576    4.321462
 ---------------------------------------------------------------------

 SCF Done:  E(UB3LYP) =  -1292.98542880     A.U. after    2 cycles

 Alpha  occ. eigenvalues --  -89.09153 -19.14196 -19.14137 -19.14018 -19.13947
 Alpha  occ. eigenvalues --  -14.35968 -10.29233 -10.29207 -10.24290 -10.22557
 Alpha  occ. eigenvalues --  -10.22460 -10.22146 -10.22093 -10.21565 -10.21515
 Alpha  occ. eigenvalues --  -10.21314 -10.20347 -10.20320 -10.20283 -10.20258
 Alpha  occ. eigenvalues --   -8.15301  -6.11581  -6.11552  -6.11395  -1.14554
 Alpha  occ. eigenvalues --   -1.07399  -1.07206  -1.03453  -0.93262  -0.91137
 Alpha  occ. eigenvalues --   -0.89275  -0.83132  -0.80037  -0.78658  -0.78421
 Alpha  occ. eigenvalues --   -0.71786  -0.69549  -0.66976  -0.64420  -0.62878
 Alpha  occ. eigenvalues --   -0.59789  -0.57755  -0.57212  -0.54855  -0.53693
 Alpha  occ. eigenvalues --   -0.52239  -0.51462  -0.50128  -0.49793  -0.47357
 Alpha  occ. eigenvalues --   -0.47003  -0.46737  -0.46458  -0.45949  -0.45582
 Alpha  occ. eigenvalues --   -0.45207  -0.43045  -0.42713  -0.40843  -0.39681
 Alpha  occ. eigenvalues --   -0.38742  -0.38439  -0.37985  -0.37392  -0.35473
 Alpha  occ. eigenvalues --   -0.34540  -0.33523  -0.32232  -0.29844  -0.29665
 Alpha  occ. eigenvalues --   -0.29518  -0.28534  -0.28460  -0.28363
 Alpha virt. eigenvalues --   -0.12956  -0.08707  -0.05611  -0.03794  -0.01437
 Alpha virt. eigenvalues --   -0.00371   0.00792   0.00993   0.01306   0.01912
 Alpha virt. eigenvalues --    0.02533   0.02911   0.03336   0.03524   0.04102

  Beta  occ. eigenvalues --  -89.09153 -19.14196 -19.14137 -19.14018 -19.13947
  Beta  occ. eigenvalues --  -14.35968 -10.29233 -10.29207 -10.24290 -10.22557
  Beta  occ. eigenvalues --  -10.22460 -10.22146 -10.22093 -10.21565 -10.21515
  Beta  occ. eigenvalues --  -10.21314 -10.20347 -10.20320 -10.20283 -10.20258
  Beta  occ. eigenvalues --   -8.15301  -6.11581  -6.11552  -6.11395  -1.14554
  Beta  occ. eigenvalues --   -1.07399  -1.07206  -1.03453  -0.93262  -0.91137
  Beta  occ. eigenvalues --   -0.89275  -0.83132  -0.80037  -0.78658  -0.78421
  Beta  occ. eigenvalues --   -0.71786  -0.69549  -0.66976  -0.64420  -0.62878
  Beta  occ. eigenvalues --   -0.59789  -0.57755  -0.57212  -0.54855  -0.53693
  Beta  occ. eigenvalues --   -0.52239  -0.51462  -0.50128  -0.49793  -0.47357
  Beta  occ. eigenvalues --   -0.47003  -0.46737  -0.46458  -0.45949  -0.45582
  Beta  occ. eigenvalues --   -0.45207  -0.43045  -0.42713  -0.40843  -0.39681
  Beta  occ. eigenvalues --   -0.38742  -0.38439  -0.37985  -0.37392  -0.35473
  Beta  occ. eigenvalues --   -0.34540  -0.33523  -0.32232  -0.29844  -0.29665
  Beta  occ. eigenvalues --   -0.29518  -0.28534  -0.28460  -0.28363
  Beta virt. eigenvalues --   -0.12956  -0.08707  -0.05611  -0.03794  -0.01437
  Beta virt. eigenvalues --   -0.00371   0.00792   0.00993   0.01306   0.01912
  Beta virt. eigenvalues --    0.02533   0.02911   0.03336   0.03524   0.04102

 Mulliken charges and spin densities:
               1          2
     1  C    0.123892  -0.000000
     2  C   -0.398694   0.000000
     3  C   -0.456528  -0.000000
     4  C    0.309700  -0.000000
     5  C    0.287149   0.000000
     6  C    0.154150  -0.000000
     7  C   -0.780394  -0.000000
     8  C    0.429293   0.000000
     9  C    0.603694  -0.000000
    10  C   -0.473649   0.000000
    11  C   -0.025140  -0.000000
    12  C   -0.006952  -0.000000
    13  C   -0.327261  -0.000000
    14  O   -0.252803   0.000000
    15  O   -0.253704  -0.000000
    16  H    0.187196   0.000000
    17  H    0.280346  -0.000000
    18  H    0.189468   0.000000
    19  H    0.241393   0.000000
    20  H    0.193103  -0.000000
    21  C   -0.542325  -0.000000
    22  H    0.210692  -0.000000
    23  H    0.212613   0.000000
    24  S    0.374481   0.000000
    25  O   -0.240552  -0.000000
    26  O   -0.298920  -0.000000
    27  N   -0.398876   0.000000
    28  H    0.318668  -0.000000
    29  H    0.339959  -0.000000
 Sum of Mulliken charges =  -0.00000   0.00000

 Dipole moment (field-independent basis, Debye):
    X=              2.7437    Y=              5.0788    Z=              1.4599  Tot=              5.9543
 Quadrupole moment (field-independent basis, Debye-Ang):
   XX=           -100.4601   YY=           -176.9639   ZZ=           -103.9639
   XY=              0.5414   XZ=            -16.3771   YZ=             -0.8506

  Exact polarizability: 369.400  25.826 279.244 -34.568 -94.156 215.474
 Approx polarizability: 417.190  -7.333 337.993  -9.951-111.685 251.571

                      1                      2                      3
                      A                      A                      A
 Frequencies --     16.3944                31.8734                65.6365
 Red. masses --      7.3539                 7.9771                 7.0260
 Frc consts  --      0.0012                 0.0048                 0.0178
 IR Inten    --      3.7396                 5.3010                 9.2046

                      4                      5                      6
                      A                      A                      A
 Frequencies --    103.9489               111.0507               119.5763
 Red. masses --      6.8809                 4.3770                 2.2858
 Frc consts  --      0.0438                 0.0318                 0.0193
 IR Inten    --      0.7777                 1.4489                42.7212

                      7                      8                      9
                      A                      A                      A
 Frequencies --    140.9187               166.8038               211.6782
 Red. masses --      2.3129                 4.3712                 8.7410
 Frc consts  --      0.0271                 0.0717                 0.2308
 IR Inten    --     35.7261                 8.2052                 1.2477

                     10                     11                     12
                      A                      A                      A
 Frequencies --    222.9845               232.0569               290.1202
 Red. masses --      6.3019                 6.2543                 7.8346
 Frc consts  --      0.1846                 0.1984                 0.3885
 IR Inten    --      0.2957                 8.2965                 0.7050

                     13                     14                     15
                      A                      A                      A
 Frequencies --    326.3510               353.0864               381.9022
 Red. masses --      4.1244                 4.3405                 8.9193
 Frc consts  --      0.2588                 0.3188                 0.7665
 IR Inten    --     15.5218                 4.3458                12.7097

                     16                     17                     18
                      A                      A                      A
 Frequencies --    403.3841               411.0691               430.5727
 Red. masses --      8.8788                 3.3552                 6.5306
 Frc consts  --      0.8512                 0.3340                 0.7133
 IR Inten    --     54.6083                 1.4698                14.9217

                     19                     20                     21
                      A                      A                      A
 Frequencies --    441.7391               443.1366               456.5014
 Red. masses --      6.3252                 3.3555                 6.3574
 Frc consts  --      0.7272                 0.3882                 0.7806
 IR Inten    --     31.1655                 4.1029                10.3139

                     22                     23                     24
                      A                      A                      A
 Frequencies --    474.2786               485.6828               551.3606
 Red. masses --      6.3369                10.3341                 5.4042
 Frc consts  --      0.8398                 1.4362                 0.9679
 IR Inten    --     18.1721                18.4263                78.5004

                     25                     26                     27
                      A                      A                      A
 Frequencies --    562.2622               635.0685               642.5601
 Red. masses --      6.5609                 2.4756                 6.6010
 Frc consts  --      1.2220                 0.5883                 1.6058
 IR Inten    --    124.3580               315.3640                26.3584

                     28                     29                     30
                      A                      A                      A
 Frequencies --    655.7713               668.6952               695.7566
 Red. masses --      6.5822                 4.1566                 6.7505
 Frc consts  --      1.6677                 1.0951                 1.9253
 IR Inten    --     24.0345                41.1292                 0.0609

                     31                     32                     33
                      A                      A                      A
 Frequencies --    714.7629               725.1850               731.3725
 Red. masses --      7.0062                 3.4206                 2.5803
 Frc consts  --      2.1089                 1.0599                 0.8132
 IR Inten    --      7.2269                52.8535                69.6318

                     34                     35                     36
                      A                      A                      A
 Frequencies --    807.0280               814.5258               818.5933
 Red. masses --      1.7668                 3.8103                 4.7877
 Frc consts  --      0.6780                 1.4894                 1.8902
 IR Inten    --      7.0563                 2.6523                34.7956

                     37                     38                     39
                      A                      A                      A
 Frequencies --    860.0574               867.0240               916.8421
 Red. masses --      2.6117                 1.6969                 1.4218
 Frc consts  --      1.1382                 0.7516                 0.7042
 IR Inten    --    239.3550                29.8927                 0.4028

                     40                     41                     42
                      A                      A                      A
 Frequencies --    939.8037               949.0774               967.5785
 Red. masses --      6.8887                 1.4554                 6.1771
 Frc consts  --      3.5848                 0.7724                 3.4072
 IR Inten    --     99.0554                 9.2137               138.1262

                     43                     44                     45
                      A                      A                      A
 Frequencies --   1001.8665              1005.7741              1026.1625
 Red. masses --      1.3532                 1.3950                 1.3375
 Frc consts  --      0.8003                 0.8314                 0.8298
 IR Inten    --      0.2729                 3.9182                 0.0023

                     46                     47                     48
                      A                      A                      A
 Frequencies --   1056.4959              1070.3241              1090.0619
 Red. masses --      2.0432                 3.9909                 1.8499
 Frc consts  --      1.3437                 2.6937                 1.2951
 IR Inten    --      1.3534               158.0203                92.9005

                     49                     50                     51
                      A                      A                      A
 Frequencies --   1107.5150              1114.3134              1136.3011
 Red. masses --      1.9188                 2.1032                 2.3169
 Frc consts  --      1.3867                 1.5386                 1.7626
 IR Inten    --    159.0377                27.5046               106.0983

                     52                     53                     54
                      A                      A                      A
 Frequencies --   1176.1286              1184.8325              1191.1156
 Red. masses --      1.4754                 1.8738                 1.9575
 Frc consts  --      1.2025                 1.5498                 1.6363
 IR Inten    --     22.0486                38.9486                 1.0763

                     55                     56                     57
                      A                      A                      A
 Frequencies --   1230.0819              1263.4726              1275.2930
 Red. masses --      1.7097                 5.9368                 1.6825
 Frc consts  --      1.5242                 5.5839                 1.6122
 IR Inten    --      3.5617               511.3515                 7.8405

                     58                     59                     60
                      A                      A                      A
 Frequencies --   1295.6525              1312.9589              1350.4727
 Red. masses --      4.8607                 2.3376                 7.9855
 Frc consts  --      4.8076                 2.3743                 8.5807
 IR Inten    --   1062.0165                50.3612                53.1530

                     61                     62                     63
                      A                      A                      A
 Frequencies --   1363.0483              1431.9632              1481.1545
 Red. masses --      8.2876                 4.1431                 2.3903
 Frc consts  --      9.0719                 5.0054                 3.0896
 IR Inten    --     11.5020                 5.6852                 5.9180

                     64                     65                     66
                      A                      A                      A
 Frequencies --   1496.0171              1506.2240              1577.9804
 Red. masses --      2.6018                 2.5850                 1.0954
 Frc consts  --      3.4308                 3.4553                 1.6071
 IR Inten    --     22.7655                 3.9310                50.6996

                     67                     68                     69
                      A                      A                      A
 Frequencies --   1601.3152              1613.6463              1616.3332
 Red. masses --      6.9735                 7.5526                 6.0815
 Frc consts  --     10.5355                11.5868                 9.3610
 IR Inten    --      7.5831                 8.5544               375.3778

                     70                     71                     72
                      A                      A                      A
 Frequencies --   1626.4411              1701.5903              1708.4992
 Red. masses --      6.0595                12.4680                11.8933
 Frc consts  --      9.4442                21.2695                20.4541
 IR Inten    --      0.5035                10.5707               768.5369

                     73                     74                     75
                      A                      A                      A
 Frequencies --   3181.2265              3193.1195              3202.2078
 Red. masses --      1.0876                 1.0914                 1.0891
 Frc consts  --      6.4852                 6.5562                 6.5800
 IR Inten    --      2.8592                 8.8161                 2.1655

                     76                     77                     78
                      A                      A                      A
 Frequencies --   3204.7906              3207.8494              3214.0936
 Red. masses --      1.0927                 1.0957                 1.0948
 Frc consts  --      6.6124                 6.6431                 6.6633
 IR Inten    --      2.3436                19.4312                 0.6096

                     79                     80                     81
                      A                      A                      A
 Frequencies --   3218.1420              3491.6969              3592.2558
 Red. masses --      1.0913                 1.0469                 1.0989
 Frc consts  --      6.6586                 7.5199                 8.3548
 IR Inten    --      9.4584                94.6143                92.1887

 - Thermochemistry -
 -------------------
 Temperature   298.150 Kelvin.  Pressure   1.00000 Atm.
 Atom     1 has atomic number  6 and mass  12.00000

 Molecular mass:   287.02523 amu.
 Principal axes and moments of inertia in atomic units:
                           1         2         3
     Eigenvalues --  2159.83578********************
           X            0.74946   0.65907   0.06282
           Y            0.51289  -0.63798   0.57438
           Z           -0.41863   0.39826   0.81617
 This molecule is an asymmetric top.
 Rotational symmetry number  1.
 Warning -- assumption of classical behavior for rotation
           may cause significant error
 Rotational temperatures (Kelvin)      0.04010     0.00796     0.00684
 Rotational constants (GHZ):           0.83559     0.16577     0.14258
 Zero-point vibrational energy     538095.2 (Joules/Mol)
                                  128.60783 (Kcal/Mol)
 Warning -- explicit consideration of  25 degrees of freedom as
           vibrations may cause significant error
 Vibrational temperatures:     23.59    45.86    94.44   149.56   159.78
          (Kelvin)            172.04   202.75   239.99   304.56   320.82
                              333.88   417.42   469.55   508.01   549.47
                              580.38   591.44   619.50   635.56   637.57
                              656.80   682.38   698.79   793.28   808.97
                              913.72   924.50   943.51   962.10  1001.04
                             1028.38  1043.38  1052.28  1161.13  1171.92
                             1177.77  1237.43  1247.45  1319.13  1352.17
                             1365.51  1392.13  1441.46  1447.08  1476.42
                             1520.06  1539.96  1568.36  1593.47  1603.25
                             1634.88  1692.19  1704.71  1713.75  1769.81
                             1817.86  1834.86  1864.16  1889.05  1943.03
                             1961.12  2060.28  2131.05  2152.43  2167.12
                             2270.36  2303.94  2321.68  2325.54  2340.09
                             2448.21  2458.15  4577.08  4594.19  4607.26
                             4610.98  4615.38  4624.36  4630.19  5023.77
                             5168.45

 Zero-point correction=                           0.204950 (Hartree/Particle)
 Thermal correction to Energy=                    0.221326
 Thermal correction to Enthalpy=                  0.222270
 Thermal correction to Gibbs Free Energy=         0.159356
 Sum of electronic and zero-point Energies=          -1292.780479
 Sum of electronic and thermal Energies=             -1292.764103
 Sum of electronic and thermal Enthalpies=           -1292.763159
 Sum of electronic and thermal Free Energies=        -1292.826073

                     E (Thermal)             CV                S
                      KCal/Mol        Cal/Mol-Kelvin    Cal/Mol-Kelvin
 Total                  138.884             63.401            132.414
 Electronic               0.000              0.000              0.000
 Translational            0.889              2.981             42.861
 Rotational               0.889              2.981             34.053
 Vibrational            137.107             57.439             55.500
 Vibration     1          0.593              1.986              7.029
 Vibration     2          0.594              1.983              5.709
 Vibration     3          0.597              1.971              4.280
 Vibration     4          0.605              1.946              3.379
 Vibration     5          0.607              1.940              3.250
 Vibration     6          0.609              1.933              3.107
 Vibration     7          0.615              1.912              2.791
 Vibration     8          0.624              1.883              2.471
 Vibration     9          0.643              1.823              2.029
 Vibration    10          0.649              1.806              1.935
 Vibration    11          0.653              1.792              1.863
 Vibration    12          0.686              1.692              1.473
 Vibration    13          0.710              1.623              1.278
 Vibration    14          0.729              1.569              1.152
 Vibration    15          0.751              1.509              1.032
 Vibration    16          0.769              1.463              0.950
 Vibration    17          0.775              1.446              0.923
 Vibration    18          0.792              1.404              0.857
 Vibration    19          0.802              1.379              0.821
 Vibration    20          0.803              1.376              0.817
 Vibration    21          0.815              1.347              0.776
 Vibration    22          0.831              1.307              0.726
 Vibration    23          0.842              1.282              0.695
 Vibration    24          0.907              1.137              0.541
 Vibration    25          0.918              1.113              0.519

 Optimization completed.
    -- Stationary point found.
 Normal termination of Gaussian 16 at Sun Feb 11 00:50:27 2024.
