 Q-Chem 5.4, Q-Chem, Inc., Pleasanton, CA (2021)
 Q-Chem 5.4.0 for Intel X86 EM64T Linux

User input:
--------------------------------------------------------------
$molecule
-1 2
C                 -1.7548970000      1.4676680000      1.0452310000
C                 -2.9564850000      0.6946390000      0.8071560000
C                 -3.0034310000     -0.5302170000      0.2003500000
C                 -1.7575910000     -1.1536650000     -0.2651010000
C                 -0.5320410000     -0.3853450000     -0.0323550000
C                 -0.5210690000      0.8435810000      0.5806530000
O                 -1.7294970000     -2.2751530000     -0.8291650000
O                 -1.7962560000      2.5866160000      1.6098220000
I                  1.2191360000      1.9958370000      0.9410810000
I                  1.2156260000     -1.3595140000     -0.7352950000
H                 -3.8551510000      1.1828590000      1.1622340000
C                 -4.3303060000     -1.2839020000     -0.0131470000
C                 -5.5391990000     -0.4972260000      0.5296020000
C                 -4.2874070000     -2.6450910000      0.7230470000
C                 -4.5644960000     -1.5196890000     -1.5251500000
H                 -5.6547200000      0.4697390000      0.0315570000
H                 -5.4608020000     -0.3183370000      1.6058350000
H                 -6.4527190000     -1.0746580000      0.3530400000
H                 -4.1538630000     -2.4938270000      1.7991970000
H                 -3.4660970000     -3.2569760000      0.3524280000
H                 -5.2305400000     -3.1841620000      0.5715050000
H                 -4.6295870000     -0.5640530000     -2.0555620000
H                 -5.5077520000     -2.0576340000     -1.6799760000
H                 -3.7501170000     -2.1018720000     -1.9543080000
$end

$rem
BASIS  =  6-311++G(d,p)
GUI  =  2
JOB_TYPE  =  SP
METHOD  =  B3LYP
SCF_CONVERGENCE  = 8
SOLVENT_METHOD = sm12
$end

$smx
solvent dimethylformamide
charges CM5
$end

--------------------------------------------------------------

             Standard Nuclear Orientation (Angstroms)
    I     Atom           X                Y                Z
 ----------------------------------------------------------------
    1      C      -1.7548970000     1.4676680000     1.0452310000
    2      C      -2.9564850000     0.6946390000     0.8071560000
    3      C      -3.0034310000    -0.5302170000     0.2003500000
    4      C      -1.7575910000    -1.1536650000    -0.2651010000
    5      C      -0.5320410000    -0.3853450000    -0.0323550000
    6      C      -0.5210690000     0.8435810000     0.5806530000
    7      O      -1.7294970000    -2.2751530000    -0.8291650000
    8      O      -1.7962560000     2.5866160000     1.6098220000
    9      I       1.2191360000     1.9958370000     0.9410810000
   10      I       1.2156260000    -1.3595140000    -0.7352950000
   11      H      -3.8551510000     1.1828590000     1.1622340000
   12      C      -4.3303060000    -1.2839020000    -0.0131470000
   13      C      -5.5391990000    -0.4972260000     0.5296020000
   14      C      -4.2874070000    -2.6450910000     0.7230470000
   15      C      -4.5644960000    -1.5196890000    -1.5251500000
   16      H      -5.6547200000     0.4697390000     0.0315570000
   17      H      -5.4608020000    -0.3183370000     1.6058350000
   18      H      -6.4527190000    -1.0746580000     0.3530400000
   19      H      -4.1538630000    -2.4938270000     1.7991970000
   20      H      -3.4660970000    -3.2569760000     0.3524280000
   21      H      -5.2305400000    -3.1841620000     0.5715050000
   22      H      -4.6295870000    -0.5640530000    -2.0555620000
   23      H      -5.5077520000    -2.0576340000    -1.6799760000
   24      H      -3.7501170000    -2.1018720000    -1.9543080000
 ----------------------------------------------------------------

   18  -14376.7732227866      6.94e-09  Convergence criterion met
 Total energy in the final basis set =   -14376.8558318715

                    Orbital Energies (a.u.)
 --------------------------------------------------------------

 Alpha MOs
 -- Occupied --
*****************-176.3030-176.3017-165.7067-165.7054-165.7048-165.7046
********-165.7032 -35.7994 -35.7981 -31.2923 -31.2910 -31.2870 -31.2864
-31.2857 -31.2851 -22.9429 -22.9417 -22.9416 -22.9414 -22.9404 -22.9400
-22.9376 -22.9376 -22.9363 -22.9363 -19.0948 -19.0947 -10.2475 -10.2450
-10.2310 -10.2296 -10.2015 -10.1951 -10.1817 -10.1674 -10.1636 -10.1635
 -6.3485  -6.3473  -4.7601  -4.7589  -4.7470  -4.7458  -4.7458  -4.7445
 -2.0263  -2.0248  -2.0219  -2.0210  -2.0209  -2.0198  -2.0098  -2.0097
 -2.0085  -2.0083  -1.0239  -1.0205  -0.8579  -0.8294  -0.7676  -0.7160
 -0.6962  -0.6930  -0.6663  -0.6546  -0.5973  -0.5786  -0.5401  -0.5082
 -0.4818  -0.4521  -0.4500  -0.4396  -0.4360  -0.4302  -0.4095  -0.4065
 -0.3925  -0.3860  -0.3796  -0.3719  -0.3653  -0.3493  -0.3450  -0.3369
 -0.3292  -0.2880  -0.2861  -0.2796  -0.2662  -0.2586  -0.2495  -0.2378
 -0.1797

 Beta MOs
 -- Occupied --
*****************-176.3030-176.3017-165.7067-165.7054-165.7048-165.7046
********-165.7032 -35.7994 -35.7981 -31.2923 -31.2910 -31.2870 -31.2864
-31.2856 -31.2851 -22.9429 -22.9417 -22.9416 -22.9414 -22.9404 -22.9400
-22.9376 -22.9376 -22.9363 -22.9363 -19.0877 -19.0875 -10.2463 -10.2441
-10.2295 -10.2280 -10.2015 -10.1943 -10.1809 -10.1674 -10.1635 -10.1635
 -6.3485  -6.3473  -4.7601  -4.7589  -4.7470  -4.7458  -4.7458  -4.7445
 -2.0263  -2.0248  -2.0218  -2.0209  -2.0209  -2.0198  -2.0097  -2.0096
 -2.0085  -2.0083  -1.0118  -1.0080  -0.8531  -0.8270  -0.7654  -0.7079
 -0.6958  -0.6928  -0.6629  -0.6533  -0.5947  -0.5751  -0.5379  -0.5062
 -0.4797  -0.4486  -0.4479  -0.4391  -0.4242  -0.4225  -0.4060  -0.3958
 -0.3908  -0.3781  -0.3761  -0.3638  -0.3616  -0.3475  -0.3439  -0.3365
 -0.3150  -0.2857  -0.2762  -0.2636  -0.2630  -0.2522  -0.2437  -0.2348

          Ground-State Mulliken Net Atomic Charges

     Atom                 Charge (a.u.)    Spin (a.u.)
  --------------------------------------------------------
      1 C                    -1.825174       0.051533
      2 C                    -0.598405       0.063596
      3 C                     0.778199       0.099273
      4 C                    -1.083420       0.058595
      5 C                    -0.735041       0.084889
      6 C                     0.275115       0.125991
      7 O                    -0.149227       0.261066
      8 O                    -0.261628       0.259697
      9 I                     0.080395       0.004001
     10 I                     0.098745       0.003431
     11 H                     0.175389      -0.006229
     12 C                     1.264108      -0.027877
     13 C                     0.379809       0.001603
     14 C                    -0.480899       0.010989
     15 C                    -0.482296       0.010946
     16 H                     0.138137      -0.000284
     17 H                     0.137955      -0.000285
     18 H                     0.333864       0.000179
     19 H                     0.094213       0.000634
     20 H                     0.100253      -0.001375
     21 H                     0.282569       0.000182
     22 H                     0.094530       0.000638
     23 H                     0.282381       0.000172
     24 H                     0.100429      -0.001362
  --------------------------------------------------------
  Sum of atomic charges =    -1.000000

                    Cartesian Multipole Moments
 -----------------------------------------------------------------
    Charge (ESU x 10^10)
                -4.8032
    Dipole Moment (Debye)
         X       4.2459      Y      -1.4654      Z      -1.7122
       Tot       4.8069
    Quadrupole Moments (Debye-Ang)
        XX    -144.9073     XY       1.4315     YY    -162.6300
        XZ       2.2936     YZ     -13.9199     ZZ    -142.8024

 Total job time:  581.29s(wall), 4405.57s(cpu)
        *  Thank you very much for using Q-Chem.  Have a nice day.  *
