 Gaussian 16, Revision A.03,
 Gaussian 16:  ES64L-G16RevA.03 25-Dec-2016

 ----------------------------------------------------------------
 #P UB3LYP/6-311++G(d,p) SCRF=(PCM,Solvent=n,n-DiMethylFormamide)
 ----------------------------------------------------------------

 ------------------
 Radical PCM in DMF
 ------------------
 Symbolic Z-matrix:
 Charge = -1 Multiplicity = 2

                         Standard orientation:
 ---------------------------------------------------------------------
 Center     Atomic      Atomic             Coordinates (Angstroms)
 Number     Number       Type             X           Y           Z
 ---------------------------------------------------------------------
      1          6           0       -1.018270   -1.491405    0.000077
      2          6           0        0.169497   -0.685730    0.000086
      3          6           0        0.100042    0.692355    0.000100
      4          6           0       -1.175145    1.415229    0.000154
      5          6           0       -2.384173    0.599038   -0.000127
      6          6           0       -2.283730   -0.760810   -0.000043
      7          8           0       -1.070000   -2.755436    0.000128
      8          8           0       -1.237502    2.664598    0.000310
      9          8           0       -3.370069   -1.583768   -0.000017
     10          6           0       -3.707306    1.312883   -0.000297
     11         35           0        1.826381   -1.654051   -0.000019
     12         35           0        1.667794    1.792686   -0.000058
     13          1           0       -3.800146    1.957678    0.879914
     14          1           0       -4.532990    0.600310   -0.009530
     15          1           0       -3.791579    1.971892   -0.870601
     16          1           0       -2.956331   -2.474615   -0.000130
 ---------------------------------------------------------------------

 SCF Done:  E(UB3LYP) =  -5643.39598909     A.U. after   19 cycles

 The electronic state is 2-A.
 Alpha  occ. eigenvalues -- -482.83231-482.83076 -62.48503 -62.48348 -56.30539
 Alpha  occ. eigenvalues --  -56.30379 -56.30165 -56.30130 -56.30017 -56.29973
 Alpha  occ. eigenvalues --  -19.15010 -19.10106 -19.08883 -10.24263 -10.24132
 Alpha  occ. eigenvalues --  -10.23279 -10.23255 -10.23154 -10.17527 -10.16089
 Alpha  occ. eigenvalues --   -8.69468  -8.69316  -6.52603  -6.52438  -6.51355
 Alpha  occ. eigenvalues --   -6.51257  -6.51221  -6.51101  -2.63698  -2.63538
 Alpha  occ. eigenvalues --   -2.63357  -2.63283  -2.63209  -2.63119  -2.62289
 Alpha  occ. eigenvalues --   -2.62288  -2.62146  -2.62145  -1.07275  -1.01777
 Alpha  occ. eigenvalues --   -1.01394  -0.86454  -0.80814  -0.79615  -0.74558
 Alpha  occ. eigenvalues --   -0.69380  -0.66918  -0.59666  -0.57733  -0.53912
 Alpha  occ. eigenvalues --   -0.49873  -0.45515  -0.45163  -0.43563  -0.41672
 Alpha  occ. eigenvalues --   -0.41096  -0.40874  -0.40220  -0.39488  -0.37234
 Alpha  occ. eigenvalues --   -0.36945  -0.35891  -0.33814  -0.30698  -0.30693
 Alpha  occ. eigenvalues --   -0.28277  -0.27289  -0.27220  -0.25262  -0.23116
 Alpha  occ. eigenvalues --   -0.17404
 Alpha virt. eigenvalues --   -0.03690  -0.00964  -0.00311   0.00760   0.01481
 Alpha virt. eigenvalues --    0.01795   0.01805   0.03513   0.03963   0.04589
 Alpha virt. eigenvalues --    0.04924   0.04979   0.06090   0.06281   0.07504

  Beta  occ. eigenvalues -- -482.83230-482.83072 -62.48502 -62.48345 -56.30540
  Beta  occ. eigenvalues --  -56.30381 -56.30160 -56.30129 -56.30004 -56.29972
  Beta  occ. eigenvalues --  -19.14977 -19.09449 -19.08277 -10.24034 -10.24028
  Beta  occ. eigenvalues --  -10.23217 -10.23168 -10.22869 -10.17506 -10.16092
  Beta  occ. eigenvalues --   -8.69466  -8.69310  -6.52605  -6.52443  -6.51346
  Beta  occ. eigenvalues --   -6.51256  -6.51197  -6.51098  -2.63698  -2.63538
  Beta  occ. eigenvalues --   -2.63353  -2.63285  -2.63198  -2.63122  -2.62284
  Beta  occ. eigenvalues --   -2.62284  -2.62133  -2.62133  -1.07058  -1.00731
  Beta  occ. eigenvalues --   -1.00346  -0.85945  -0.80641  -0.79428  -0.74313
  Beta  occ. eigenvalues --   -0.68854  -0.66311  -0.59335  -0.57369  -0.53584
  Beta  occ. eigenvalues --   -0.49687  -0.45150  -0.44025  -0.43081  -0.41329
  Beta  occ. eigenvalues --   -0.40670  -0.40121  -0.40066  -0.38244  -0.37071
  Beta  occ. eigenvalues --   -0.35728  -0.35474  -0.32177  -0.30650  -0.30230
  Beta  occ. eigenvalues --   -0.28143  -0.26758  -0.25168  -0.24723  -0.22502
  Beta virt. eigenvalues --   -0.10321  -0.03535  -0.00275   0.00518   0.00901
  Beta virt. eigenvalues --    0.01495   0.01850   0.03534   0.03988   0.04302
  Beta virt. eigenvalues --    0.04656   0.04976   0.05014   0.06089   0.06357

 Mulliken charges and spin densities:
               1          2
     1  C   -0.697342   0.130663
     2  C    0.721083   0.054709
     3  C   -0.111356   0.187395
     4  C   -0.552510   0.063793
     5  C    1.838484   0.027979
     6  C   -1.449509   0.039781
     7  O   -0.450714   0.237173
     8  O   -0.408331   0.222462
     9  O   -0.292005   0.012339
    10  C   -0.169070   0.006461
    11  Br  -0.113004   0.005166
    12  Br  -0.127604   0.012670
    13  H    0.167547   0.001328
    14  H    0.182869  -0.000135
    15  H    0.167082   0.001299
    16  H    0.294381  -0.003084
 Sum of Mulliken charges =  -1.00000   1.00000

 Dipole moment (field-independent basis, Debye):
    X=              2.8961    Y=             -0.5762    Z=             -0.0006  Tot=              2.9529
 Quadrupole moment (field-independent basis, Debye-Ang):
   XX=           -109.1423   YY=           -131.1557   ZZ=            -97.5260
   XY=              0.6339   XZ=             -0.0003   YZ=             -0.0003

 Normal termination of Gaussian 16 at Sun Jan 28 16:49:58 2024.
