 Q-Chem 5.4, Q-Chem, Inc., Pleasanton, CA (2021)
 Q-Chem 5.4.0 for Intel X86 EM64T Linux

User input:
--------------------------------------------------------------
$molecule
-1 2
C                 -3.03768400    1.85362700    0.33486100
C                 -3.98389800    1.53992200   -0.70254700
C                 -3.96274000    0.33386300   -1.33242100
C                 -3.01122600   -0.71092000   -1.01705400
C                 -2.02567400   -0.42277200    0.03855700
C                 -2.05029900    0.82077700    0.66989400
O                 -3.05675800    2.96869800    0.93397100
O                 -3.07641500   -1.80090100   -1.65855500
C                 -1.10721200    1.27398500    1.76263400
C                 -0.99585100   -1.50993600    0.48467700
C                  0.45367300   -1.00833800    0.30831600
C                  0.79923000   -0.26816400   -0.83156700
C                  1.48609100   -1.35236200    1.19042600
C                  2.80538500   -0.96149100    0.95534700
C                  2.11391600    0.12039100   -1.07364000
C                  3.12866800   -0.22116900   -0.17885000
H                 -4.71137300    2.30709100   -0.95330900
H                 -4.67327200    0.08680100   -2.11621500
H                 -1.61779500    1.27730000    2.73422300
H                 -0.82756200    2.31413600    1.57996400
H                 -0.20510200    0.67585800    1.84765000
H                  0.01714600    0.01615300   -1.52581400
H                  1.26465300   -1.92333300    2.08418200
H                  3.57971700   -1.23466100    1.66594300
H                  2.34554600    0.69896600   -1.96243600
C                 -1.32646600   -1.91568900    1.94552300
H                 -2.37082000   -2.23420400    1.98502100
H                 -0.71428600   -2.76225500    2.27496500
H                 -1.19948500   -1.09987200    2.65641900
C                 -1.01718200   -2.84539200   -0.31953600
H                 -1.97782100   -3.34939400   -0.23081300
H                 -0.83029400   -2.69298300   -1.38015000
H                 -0.22843300   -3.48923200    0.09004100
H                  4.15260800    0.08784700   -0.36210900
$end
$rem
MAX_SCF_CYCLES=200
BASIS  =  6-311++G(d,p)
GUI  =  2
JOB_TYPE  =  SP
METHOD  =  B3LYP
SOLVENT_METHOD = COSMO
$end
$solvent
dielectric 37.219
opticaldielectric 1.43
$end

--------------------------------------------------------------

             Standard Nuclear Orientation (Angstroms)
    I     Atom           X                Y                Z
 ----------------------------------------------------------------
    1      C       2.5782787693    -1.4296041605     0.0340273682
    2      C       3.4795699680    -0.5557074580    -0.6687712145
    3      C       3.1402105511     0.7338648872    -0.9400746998
    4      C       1.8754592007     1.3215913946    -0.5509881697
    5      C       0.9269873757     0.4543393295     0.1679914202
    6      C       1.2814904254    -0.8687782503     0.4312296608
    7      O       2.8897722758    -2.6273605865     0.3005443168
    8      O       1.6558713067     2.5331124145    -0.8473489202
    9      C       0.4219796565    -1.8860676800     1.1490421313
   10      C      -0.4391384962     1.0174645591     0.6760013676
   11      C      -1.6229039524     0.2222626734     0.0842439103
   12      C      -1.5875551036    -0.1807337431    -1.2584938866
   13      C      -2.7997914581    -0.0287399679     0.8013847364
   14      C      -3.8902576394    -0.6691423761     0.2103287354
   15      C      -2.6736760161    -0.8155460750    -1.8545880660
   16      C      -3.8345163951    -1.0679977272    -1.1226374004
   17      H       4.4374160951    -0.9732819629    -0.9667847384
   18      H       3.8138330736     1.4020487302    -1.4692168720
   19      H       0.7987871150    -2.0591452158     2.1652859406
   20      H       0.5125608704    -2.8483420200     0.6398175321
   21      H      -0.6280400926    -1.6168280567     1.2103171840
   22      H      -0.6856142976    -0.0038186753    -1.8326665765
   23      H      -2.8710736861     0.2651952626     1.8417516825
   24      H      -4.7830861426    -0.8592658638     0.7984349280
   25      H      -2.6100757441    -1.1207487618    -2.8943794597
   26      C      -0.4157274329     1.0105733463     2.2275867646
   27      H       0.4603542908     1.5724893903     2.5598793275
   28      H      -1.2990658903     1.5066468212     2.6442336814
   29      H      -0.3497964281     0.0088873959     2.6510640768
   30      C      -0.7612940479     2.4916465245     0.2840069515
   31      H      -0.0288467750     3.1833489516     0.6960577007
   32      H      -0.7739430821     2.6402182332    -0.7934085366
   33      H      -1.7542950202     2.7299319258     0.6859738483
   34      H      -4.6789553751    -1.5699024367    -1.5836605502
 ----------------------------------------------------------------

   10    -770.0281261735      7.90e-06  Convergence criterion met
 Total energy in the final basis set =     -770.0281261735
    4    -770.1126324375      6.67e-06  Convergence criterion met
 Total energy in the final basis set =     -770.1126324375

                    Orbital Energies (a.u.)
 --------------------------------------------------------------

 Alpha MOs
 -- Occupied --
-19.0758 -19.0716 -10.2185 -10.2149 -10.1913 -10.1787 -10.1721 -10.1715
-10.1708 -10.1703 -10.1692 -10.1677 -10.1656 -10.1579 -10.1571 -10.1508
-10.1475 -10.1439  -0.9983  -0.9952  -0.8610  -0.8267  -0.7975  -0.7544
 -0.7434  -0.7294  -0.6928  -0.6737  -0.6570  -0.6182  -0.6008  -0.5855
 -0.5550  -0.5375  -0.5078  -0.4804  -0.4646  -0.4552  -0.4483  -0.4405
 -0.4323  -0.4222  -0.4171  -0.4131  -0.4004  -0.3925  -0.3873  -0.3828
 -0.3806  -0.3706  -0.3681  -0.3659  -0.3565  -0.3507  -0.3438  -0.3295
 -0.3260  -0.3190  -0.2773  -0.2551  -0.2479  -0.2407  -0.2360  -0.2300
 -0.1593

 Beta MOs
 -- Occupied --
-19.0693 -19.0645 -10.2170 -10.2133 -10.1914 -10.1786 -10.1715 -10.1713
-10.1708 -10.1692 -10.1692 -10.1678 -10.1656 -10.1567 -10.1560 -10.1508
-10.1476 -10.1439  -0.9866  -0.9828  -0.8608  -0.8231  -0.7946  -0.7522
 -0.7433  -0.7291  -0.6889  -0.6730  -0.6494  -0.6174  -0.6006  -0.5832
 -0.5518  -0.5352  -0.5072  -0.4786  -0.4622  -0.4534  -0.4470  -0.4395
 -0.4308  -0.4172  -0.4149  -0.4094  -0.3974  -0.3886  -0.3847  -0.3800
 -0.3708  -0.3677  -0.3647  -0.3596  -0.3487  -0.3441  -0.3386  -0.3282
 -0.3246  -0.3182  -0.2549  -0.2480  -0.2453  -0.2349  -0.2283  -0.2240

          Ground-State Mulliken Net Atomic Charges

     Atom                 Charge (a.u.)    Spin (a.u.)
  --------------------------------------------------------
      1 C                    -0.170929       0.121741
      2 C                    -0.074236       0.068847
      3 C                    -0.282654       0.093280
      4 C                    -0.426529       0.092333
      5 C                     0.439966       0.068306
      6 C                     0.227092       0.071164
      7 O                    -0.536786       0.230838
      8 O                    -0.485472       0.247885
      9 C                    -0.661134       0.004432
     10 C                     0.355422      -0.003962
     11 C                     0.843738      -0.001758
     12 C                    -0.447938       0.000892
     13 C                    -0.129067       0.001586
     14 C                    -0.382204       0.000749
     15 C                    -0.533285      -0.003013
     16 C                    -0.386577      -0.001207
     17 H                     0.198703      -0.006768
     18 H                     0.203461      -0.009475
     19 H                     0.198329       0.007584
     20 H                     0.169180       0.002149
     21 H                     0.114315       0.000861
     22 H                     0.212323       0.000377
     23 H                     0.169336      -0.000317
     24 H                     0.220812      -0.000008
     25 H                     0.219038       0.000073
     26 C                    -0.659732       0.006901
     27 H                     0.186347       0.000040
     28 H                     0.150460       0.001017
     29 H                     0.163148      -0.000844
     30 C                    -0.552890       0.008068
     31 H                     0.161257      -0.000702
     32 H                     0.163098      -0.000374
     33 H                     0.144653      -0.000705
     34 H                     0.188753       0.000010
  --------------------------------------------------------
  Sum of atomic charges =    -1.000000

                    Cartesian Multipole Moments
 -----------------------------------------------------------------
    Charge (ESU x 10^10)
                -4.8032
    Dipole Moment (Debye)
         X     -10.6699      Y       0.6236      Z       1.7682
       Tot      10.8334
    Quadrupole Moments (Debye-Ang)
        XX    -137.2490     XY      12.6545     YY    -150.3327
        XZ      -1.5054     YZ       9.8121     ZZ    -109.4572

 Total job time:  146.89s(wall), 1025.49s(cpu)
        *  Thank you very much for using Q-Chem.  Have a nice day.  *
