 Q-Chem 5.4, Q-Chem, Inc., Pleasanton, CA (2021)
 Q-Chem 5.4.0 for Intel X86 EM64T Linux

User input:
--------------------------------------------------------------
$molecule
-2 1
Br                -3.1142420000     -1.1457180000      0.0155150000
C                 -1.2930050000     -0.4631990000      0.0064810000
C                 -1.0286880000      0.9102290000      0.0084330000
Br                -2.4664240000      2.2197790000      0.0203690000
C                  0.2879130000      1.4955420000      0.0021350000
O                  0.5282400000      2.7442720000      0.0039160000
C                  1.2930610000      0.4632600000     -0.0064820000
C                  1.0286550000     -0.9101940000     -0.0084340000
Br                 2.4664680000     -2.2197090000     -0.0203690000
C                 -0.2879100000     -1.4955110000     -0.0021370000
O                 -0.5283060000     -2.7442790000     -0.0039150000
Br                 3.1142390000      1.1455290000     -0.0155120000
$end

$rem
BASIS  =  6-311++G(d,p)
GUI  =  2
JOB_TYPE  =  SP
METHOD  =  B3LYP
SCF_CONVERGENCE  = 8
SOLVENT_METHOD = sm12
$end

$smx
solvent dimethylformamide
charges CM5
$end

--------------------------------------------------------------

             Standard Nuclear Orientation (Angstroms)
    I     Atom           X                Y                Z
 ----------------------------------------------------------------
    1      Br     -3.1142420000    -1.1457180000     0.0155150000
    2      C      -1.2930050000    -0.4631990000     0.0064810000
    3      C      -1.0286880000     0.9102290000     0.0084330000
    4      Br     -2.4664240000     2.2197790000     0.0203690000
    5      C       0.2879130000     1.4955420000     0.0021350000
    6      O       0.5282400000     2.7442720000     0.0039160000
    7      C       1.2930610000     0.4632600000    -0.0064820000
    8      C       1.0286550000    -0.9101940000    -0.0084340000
    9      Br      2.4664680000    -2.2197090000    -0.0203690000
   10      C      -0.2879100000    -1.4955110000    -0.0021370000
   11      O      -0.5283060000    -2.7442790000    -0.0039150000
   12      Br      3.1142390000     1.1455290000    -0.0155120000
 ----------------------------------------------------------------

   15  -10675.7490819534      4.47e-09  Convergence criterion met
 Total energy in the final basis set =   -10675.9980327802

                    Orbital Energies (a.u.)
 --------------------------------------------------------------

 Alpha MOs
 -- Occupied --
********-482.8009-482.8009-482.8009 -62.4533 -62.4533 -62.4533 -62.4533
-56.2737 -56.2737 -56.2737 -56.2737 -56.2702 -56.2702 -56.2702 -56.2702
-56.2698 -56.2698 -56.2698 -56.2698 -19.0150 -19.0150 -10.1929 -10.1929
-10.1906 -10.1906 -10.1901 -10.1901  -8.6617  -8.6617  -8.6617  -8.6617
 -6.4927  -6.4926  -6.4926  -6.4926  -6.4808  -6.4808  -6.4808  -6.4808
 -6.4797  -6.4797  -6.4797  -6.4796  -2.6038  -2.6038  -2.6037  -2.6037
 -2.6003  -2.6002  -2.6002  -2.6002  -2.5994  -2.5994  -2.5994  -2.5994
 -2.5902  -2.5902  -2.5902  -2.5902  -2.5901  -2.5901  -2.5901  -2.5901
 -0.9443  -0.9402  -0.8262  -0.8025  -0.7606  -0.7592  -0.7352  -0.6610
 -0.6502  -0.5411  -0.5352  -0.4675  -0.4209  -0.3877  -0.3875  -0.3704
 -0.3595  -0.3447  -0.3317  -0.3303  -0.3178  -0.2783  -0.2757  -0.2747
 -0.2704  -0.2634  -0.2459  -0.2458  -0.2232  -0.2053  -0.1976  -0.1923
 -0.1228

          Ground-State Mulliken Net Atomic Charges

     Atom                 Charge (a.u.)
  ----------------------------------------
      1 Br                    0.104952
      2 C                     0.573638
      3 C                     0.570540
      4 Br                    0.105618
      5 C                    -2.057283
      6 O                    -0.297389
      7 C                     0.573980
      8 C                     0.570366
      9 Br                    0.105536
     10 C                    -2.057533
     11 O                    -0.297452
     12 Br                    0.105027
  ----------------------------------------
  Sum of atomic charges =    -2.000000

                    Cartesian Multipole Moments
 -----------------------------------------------------------------
    Charge (ESU x 10^10)
                -9.6064
    Dipole Moment (Debye)
         X       0.0006      Y       0.0011      Z      -0.0000
       Tot       0.0012
    Quadrupole Moments (Debye-Ang)
        XX    -164.3540     XY      -4.3487     YY    -186.0822
        XZ       0.2015     YZ      -0.1228     ZZ    -128.5055

 Total job time:  167.90s(wall), 1190.83s(cpu)
        *  Thank you very much for using Q-Chem.  Have a nice day.  *
