 Gaussian 16, Revision A.03,
 Gaussian 16:  ES64L-G16RevA.03 25-Dec-2016

 ----------------------------------------------------------------------
 #P UB3LYP/6-311++G(d,p) nosym opt freq SCRF=(PCM,Solvent=n,n-DiMethylF
 ormamide)
 ----------------------------------------------------------------------

 --------
 Oxidized
 --------
 Symbolic Z-matrix:
 Charge =  0 Multiplicity = 1

 SCF Done:  E(UB3LYP) =  -724.660638373     A.U. after   16 cycles
 SCF Done:  E(UB3LYP) =  -724.660796981     A.U. after   12 cycles
 SCF Done:  E(UB3LYP) =  -724.660827692     A.U. after   11 cycles
 SCF Done:  E(UB3LYP) =  -724.660826654     A.U. after   10 cycles
 SCF Done:  E(UB3LYP) =  -724.660828068     A.U. after   10 cycles
 SCF Done:  E(UB3LYP) =  -724.660829382     A.U. after   10 cycles
 Optimization completed.
    -- Stationary point found.
 Normal termination of Gaussian 16 at Sun Feb 11 00:45:54 2024.

 ----------------------------------------------------------------------
 #P Geom=AllCheck Guess=TCheck SCRF=Check GenChk UB3LYP/6-311++G(d,p) F
 req
 ----------------------------------------------------------------------

 Structure from the checkpoint file:  "273.chk"
 --------
 Oxidized
 --------
 Charge =  0 Multiplicity = 1

                          Input orientation:
 ---------------------------------------------------------------------
 Center     Atomic      Atomic             Coordinates (Angstroms)
 Number     Number       Type             X           Y           Z
 ---------------------------------------------------------------------
      1          6           0       -0.850205    3.805508   -0.148168
      2          6           0       -1.889126    3.138715    0.494704
      3          6           0       -1.703352    1.828665    0.938724
      4          6           0        0.375074    3.162891   -0.347775
      5          6           0        0.564878    1.843684    0.098248
      6          6           0       -0.481792    1.185062    0.740967
      7          6           0        1.476234    3.872741   -1.030146
      8          6           0        2.775486    3.135879   -1.217794
      9          6           0        2.952788    1.843008   -0.775318
     10          6           0        1.876262    1.132626   -0.106236
     11          8           0        1.377742    5.019903   -1.442498
     12          8           0        2.008307   -0.028541    0.294851
     13          7           0        3.733967    3.832866   -1.843950
     14          1           0       -0.975497    4.822164   -0.499329
     15          1           0       -2.838920    3.636668    0.649337
     16          1           0       -2.511042    1.307595    1.439679
     17          1           0       -0.327976    0.169157    1.081969
     18          1           0        3.552300    4.779669   -2.139119
     19          1           0        4.631632    3.396379   -1.992777
     20          7           0        4.231224    1.244168   -1.007518
     21          6           0        5.003822    0.959549    0.207337
     22          6           0        4.218380    0.123125   -1.954640
     23          1           0        5.025921    1.847862    0.842059
     24          1           0        6.032154    0.719268   -0.076616
     25          1           0        4.597001    0.121311    0.788653
     26          1           0        3.683979    0.416901   -2.860506
     27          1           0        3.746484   -0.779706   -1.544187
     28          1           0        5.248710   -0.117556   -2.230872
 ---------------------------------------------------------------------

 SCF Done:  E(UB3LYP) =  -724.660829382     A.U. after    1 cycles

 Alpha  occ. eigenvalues --  -19.14360 -19.11314 -14.34802 -14.31793 -10.29199
 Alpha  occ. eigenvalues --  -10.26684 -10.24924 -10.20948 -10.20751 -10.20646
 Alpha  occ. eigenvalues --  -10.19929 -10.19827 -10.19583 -10.19452 -10.18735
 Alpha  occ. eigenvalues --  -10.18732  -1.07750  -1.04437  -0.95972  -0.92013
 Alpha  occ. eigenvalues --   -0.88802  -0.81465  -0.77734  -0.76009  -0.70829
 Alpha  occ. eigenvalues --   -0.69892  -0.66248  -0.64251  -0.60926  -0.59373
 Alpha  occ. eigenvalues --   -0.57371  -0.54256  -0.51341  -0.50828  -0.48975
 Alpha  occ. eigenvalues --   -0.47466  -0.46923  -0.46091  -0.45175  -0.45048
 Alpha  occ. eigenvalues --   -0.44581  -0.44441  -0.42335  -0.41511  -0.39258
 Alpha  occ. eigenvalues --   -0.38708  -0.38014  -0.37974  -0.37077  -0.36721
 Alpha  occ. eigenvalues --   -0.35889  -0.29614  -0.28507  -0.27744  -0.27667
 Alpha  occ. eigenvalues --   -0.23510  -0.22636
 Alpha virt. eigenvalues --   -0.11929  -0.05233  -0.02160  -0.01006   0.00098
 Alpha virt. eigenvalues --    0.00731   0.01621   0.01957   0.02137   0.02758
 Alpha virt. eigenvalues --    0.03376   0.04113   0.04467   0.04626   0.05306

  Beta  occ. eigenvalues --  -19.14360 -19.11314 -14.34802 -14.31793 -10.29199
  Beta  occ. eigenvalues --  -10.26684 -10.24924 -10.20948 -10.20751 -10.20646
  Beta  occ. eigenvalues --  -10.19929 -10.19827 -10.19583 -10.19452 -10.18735
  Beta  occ. eigenvalues --  -10.18732  -1.07750  -1.04437  -0.95972  -0.92013
  Beta  occ. eigenvalues --   -0.88802  -0.81465  -0.77734  -0.76009  -0.70829
  Beta  occ. eigenvalues --   -0.69892  -0.66248  -0.64251  -0.60926  -0.59373
  Beta  occ. eigenvalues --   -0.57371  -0.54256  -0.51341  -0.50828  -0.48975
  Beta  occ. eigenvalues --   -0.47466  -0.46923  -0.46091  -0.45175  -0.45048
  Beta  occ. eigenvalues --   -0.44581  -0.44441  -0.42335  -0.41511  -0.39258
  Beta  occ. eigenvalues --   -0.38708  -0.38014  -0.37974  -0.37077  -0.36721
  Beta  occ. eigenvalues --   -0.35889  -0.29614  -0.28507  -0.27744  -0.27667
  Beta  occ. eigenvalues --   -0.23510  -0.22636
  Beta virt. eigenvalues --   -0.11929  -0.05233  -0.02160  -0.01006   0.00098
  Beta virt. eigenvalues --    0.00731   0.01621   0.01957   0.02137   0.02758
  Beta virt. eigenvalues --    0.03376   0.04113   0.04467   0.04626   0.05306

 Mulliken charges and spin densities:
               1          2
     1  C   -0.005154  -0.000000
     2  C   -0.308839  -0.000000
     3  C   -0.306909  -0.000000
     4  C    0.983288  -0.000000
     5  C    0.052615   0.000000
     6  C    0.083181  -0.000000
     7  C   -0.707556   0.000000
     8  C    0.268160  -0.000000
     9  C   -0.294851   0.000000
    10  C   -0.841057  -0.000000
    11  O   -0.283599  -0.000000
    12  O   -0.290498  -0.000000
    13  N   -0.465721   0.000000
    14  H    0.179298   0.000000
    15  H    0.205274  -0.000000
    16  H    0.208341  -0.000000
    17  H    0.182005   0.000000
    18  H    0.341448  -0.000000
    19  H    0.328561   0.000000
    20  N    0.181922  -0.000000
    21  C   -0.223353  -0.000000
    22  C   -0.224073  -0.000000
    23  H    0.147643  -0.000000
    24  H    0.151801   0.000000
    25  H    0.169471  -0.000000
    26  H    0.147351  -0.000000
    27  H    0.169342  -0.000000
    28  H    0.151909   0.000000
 Sum of Mulliken charges =  -0.00000  -0.00000

 Dipole moment (field-independent basis, Debye):
    X=              0.2596    Y=              1.8658    Z=             -0.7822  Tot=              2.0397
 Quadrupole moment (field-independent basis, Debye-Ang):
   XX=            -71.0237   YY=            -96.3285   ZZ=            -91.8517
   XY=              6.6326   XZ=            -10.9911   YZ=              0.1199

  Exact polarizability: 267.355  -5.213 280.394 -47.949 -56.375 171.048
 Approx polarizability: 284.725   2.113 365.705 -51.176 -85.999 200.227

                      1                      2                      3
                      A                      A                      A
 Frequencies --     25.4663                51.9526                74.0328
 Red. masses --      2.8889                 6.3017                 6.5755
 Frc consts  --      0.0011                 0.0100                 0.0212
 IR Inten    --      1.7267                 5.7087                 0.9631

                      4                      5                      6
                      A                      A                      A
 Frequencies --    117.4329               153.4943               159.1636
 Red. masses --      4.7101                 2.6998                 4.2189
 Frc consts  --      0.0383                 0.0375                 0.0630
 IR Inten    --      0.4751                 5.0015                 0.5421

                      7                      8                      9
                      A                      A                      A
 Frequencies --    199.8345               208.9076               216.4156
 Red. masses --      4.3210                 1.1876                 1.0922
 Frc consts  --      0.1017                 0.0305                 0.0301
 IR Inten    --      5.3570                 1.0912                 0.1615

                     10                     11                     12
                      A                      A                      A
 Frequencies --    259.3091               262.0013               272.0190
 Red. masses --      1.1342                 3.6411                 3.7895
 Frc consts  --      0.0449                 0.1473                 0.1652
 IR Inten    --    294.5761                 7.0109                 2.0364

                     13                     14                     15
                      A                      A                      A
 Frequencies --    350.0079               376.2763               387.2560
 Red. masses --      3.6959                 5.8385                 4.1958
 Frc consts  --      0.2668                 0.4870                 0.3707
 IR Inten    --      4.4867                11.2847                 2.5765

                     16                     17                     18
                      A                      A                      A
 Frequencies --    393.7513               416.5835               446.3524
 Red. masses --      5.9157                 6.7486                 4.0209
 Frc consts  --      0.5404                 0.6900                 0.4720
 IR Inten    --     42.5280                22.0670                 2.2289

                     19                     20                     21
                      A                      A                      A
 Frequencies --    451.2175               460.5361               508.6843
 Red. masses --      4.0659                 4.4439                 7.7491
 Frc consts  --      0.4877                 0.5553                 1.1814
 IR Inten    --      5.0077                 2.2724                 3.0268

                     22                     23                     24
                      A                      A                      A
 Frequencies --    584.1552               618.1048               658.7196
 Red. masses --      1.9940                 5.6258                 1.6207
 Frc consts  --      0.4009                 1.2664                 0.4143
 IR Inten    --      0.0417                12.5042                 3.5771

                     25                     26                     27
                      A                      A                      A
 Frequencies --    672.0863               714.0230               717.4115
 Red. masses --      6.4938                 5.4878                 4.2205
 Frc consts  --      1.7282                 1.6484                 1.2798
 IR Inten    --      7.1846                 1.1603                28.2015

                     28                     29                     30
                      A                      A                      A
 Frequencies --    740.4148               791.4943               812.0775
 Red. masses --      2.1422                 6.5308                 2.3317
 Frc consts  --      0.6919                 2.4105                 0.9060
 IR Inten    --    104.9382                 0.2130                12.0766

                     31                     32                     33
                      A                      A                      A
 Frequencies --    820.6791               869.1163               910.5309
 Red. masses --      3.8720                 5.2446                 1.3561
 Frc consts  --      1.5365                 2.3341                 0.6624
 IR Inten    --     25.9672                54.5643                 0.0558

                     34                     35                     36
                      A                      A                      A
 Frequencies --    980.4866               996.5436              1017.7622
 Red. masses --      3.5337                 1.3866                 3.6390
 Frc consts  --      2.0015                 0.8113                 2.2209
 IR Inten    --    171.8350                 1.9875                45.1010

                     37                     38                     39
                      A                      A                      A
 Frequencies --   1020.0975              1053.7860              1057.3936
 Red. masses --      1.3285                 1.7077                 1.9416
 Frc consts  --      0.8145                 1.1173                 1.2790
 IR Inten    --      0.1304                25.7172                 7.6052

                     40                     41                     42
                      A                      A                      A
 Frequencies --   1102.7353              1108.2468              1148.0074
 Red. masses --      1.2273                 2.2144                 1.9214
 Frc consts  --      0.8793                 1.6024                 1.4920
 IR Inten    --      5.7138                 2.7381               111.7779

                     43                     44                     45
                      A                      A                      A
 Frequencies --   1165.4329              1178.3018              1190.3174
 Red. masses --      1.5499                 1.1753                 2.2854
 Frc consts  --      1.2403                 0.9614                 1.9078
 IR Inten    --     27.9021                22.9123                 9.5206

                     46                     47                     48
                      A                      A                      A
 Frequencies --   1214.9977              1240.1726              1274.5558
 Red. masses --      3.2497                 2.2371                 2.8852
 Frc consts  --      2.8265                 2.0273                 2.7615
 IR Inten    --     21.6787                69.5123               424.1500

                     49                     50                     51
                      A                      A                      A
 Frequencies --   1308.0363              1344.5291              1368.1901
 Red. masses --      2.2277                 5.6694                 6.7607
 Frc consts  --      2.2457                 6.0385                 7.4565
 IR Inten    --     30.6830               102.0072               212.2633

                     52                     53                     54
                      A                      A                      A
 Frequencies --   1397.4324              1430.5977              1455.0914
 Red. masses --      3.5226                 1.1454                 1.1983
 Frc consts  --      4.0529                 1.3812                 1.4949
 IR Inten    --    338.3224                 0.4088                14.5548

                     55                     56                     57
                      A                      A                      A
 Frequencies --   1470.0111              1477.2470              1481.1873
 Red. masses --      1.0432                 1.0891                 2.1950
 Frc consts  --      1.3282                 1.4003                 2.8373
 IR Inten    --      9.3463                52.6378                 1.0671

                     58                     59                     60
                      A                      A                      A
 Frequencies --   1498.3718              1502.1108              1509.5789
 Red. masses --      1.0459                 2.5690                 1.0843
 Frc consts  --      1.3834                 3.4152                 1.4558
 IR Inten    --      7.5715                19.8087                30.1688

                     61                     62                     63
                      A                      A                      A
 Frequencies --   1554.5372              1585.3113              1619.0482
 Red. masses --      1.4655                 6.8690                 6.2162
 Frc consts  --      2.0866                10.1713                 9.6004
 IR Inten    --    400.1768              1232.7053               225.0924

                     64                     65                     66
                      A                      A                      A
 Frequencies --   1626.5521              1656.1962              1705.3041
 Red. masses --      6.5315                 9.9399                10.0850
 Frc consts  --     10.1811                16.0641                17.2795
 IR Inten    --    160.4829               111.4934               366.0529

                     67                     68                     69
                      A                      A                      A
 Frequencies --   2983.7115              2989.2589              3056.0766
 Red. masses --      1.0440                 1.0468                 1.0871
 Frc consts  --      5.4759                 5.5113                 5.9820
 IR Inten    --     86.6306               146.1436               101.5545

                     70                     71                     72
                      A                      A                      A
 Frequencies --   3057.9834              3095.9662              3097.2156
 Red. masses --      1.0903                 1.1024                 1.1024
 Frc consts  --      6.0071                 6.2258                 6.2306
 IR Inten    --      8.9083                26.6539                61.1729

                     73                     74                     75
                      A                      A                      A
 Frequencies --   3176.9286              3189.4661              3200.8095
 Red. masses --      1.0873                 1.0910                 1.0927
 Frc consts  --      6.4660                 6.5389                 6.5956
 IR Inten    --      4.3318                10.0561                 4.5729

                     76                     77                     78
                      A                      A                      A
 Frequencies --   3204.1354              3567.3654              3699.1967
 Red. masses --      1.0955                 1.0435                 1.1067
 Frc consts  --      6.6268                 7.8240                 8.9226
 IR Inten    --     18.9489               219.4514               171.8244

 - Thermochemistry -
 -------------------
 Temperature   298.150 Kelvin.  Pressure   1.00000 Atm.
 Atom     1 has atomic number  6 and mass  12.00000

 Molecular mass:   216.08988 amu.
 Principal axes and moments of inertia in atomic units:
                           1         2         3
     Eigenvalues --  1983.903314137.647705755.09980
           X            0.92989   0.17530   0.32337
           Y           -0.28835   0.89323   0.34496
           Z           -0.22837  -0.41402   0.88116
 This molecule is an asymmetric top.
 Rotational symmetry number  1.
 Warning -- assumption of classical behavior for rotation
           may cause significant error
 Rotational temperatures (Kelvin)      0.04366     0.02093     0.01505
 Rotational constants (GHZ):           0.90969     0.43618     0.31359
 Zero-point vibrational energy     578728.2 (Joules/Mol)
                                  138.31935 (Kcal/Mol)
 Warning -- explicit consideration of  23 degrees of freedom as
           vibrations may cause significant error
 Vibrational temperatures:     36.64    74.75   106.52   168.96   220.84
          (Kelvin)            229.00   287.52   300.57   311.37   373.09
                              376.96   391.37   503.58   541.38   557.18
                              566.52   599.37   642.20   649.20   662.61
                              731.88   840.47   889.32   947.75   966.98
                             1027.32  1032.20  1065.29  1138.78  1168.40
                             1180.77  1250.46  1310.05  1410.70  1433.80
                             1464.33  1467.69  1516.16  1521.35  1586.59
                             1594.52  1651.73  1676.80  1695.31  1712.60
                             1748.11  1784.33  1833.80  1881.97  1934.48
                             1968.52  2010.59  2058.31  2093.55  2115.02
                             2125.43  2131.10  2155.82  2161.20  2171.95
                             2236.63  2280.91  2329.45  2340.25  2382.90
                             2453.55  4292.90  4300.88  4397.01  4399.76
                             4454.40  4456.20  4570.89  4588.93  4605.25
                             4610.04  5132.64  5322.32

 Zero-point correction=                           0.220426 (Hartree/Particle)
 Thermal correction to Energy=                    0.235094
 Thermal correction to Enthalpy=                  0.236038
 Thermal correction to Gibbs Free Energy=         0.178452
 Sum of electronic and zero-point Energies=           -724.440403
 Sum of electronic and thermal Energies=              -724.425735
 Sum of electronic and thermal Enthalpies=            -724.424791
 Sum of electronic and thermal Free Energies=         -724.482377

                     E (Thermal)             CV                S
                      KCal/Mol        Cal/Mol-Kelvin    Cal/Mol-Kelvin
 Total                  147.524             55.830            121.200
 Electronic               0.000              0.000              0.000
 Translational            0.889              2.981             42.015
 Rotational               0.889              2.981             32.224
 Vibrational            145.746             49.868             46.961
 Vibration     1          0.593              1.985              6.155
 Vibration     2          0.596              1.977              4.742
 Vibration     3          0.599              1.966              4.043
 Vibration     4          0.608              1.935              3.142
 Vibration     5          0.619              1.899              2.628
 Vibration     6          0.621              1.892              2.560
 Vibration     7          0.638              1.840              2.135
 Vibration     8          0.642              1.827              2.053
 Vibration     9          0.645              1.816              1.989
 Vibration    10          0.668              1.747              1.666
 Vibration    11          0.669              1.742              1.648
 Vibration    12          0.675              1.725              1.583
 Vibration    13          0.727              1.575              1.166
 Vibration    14          0.747              1.521              1.054
 Vibration    15          0.756              1.497              1.011
 Vibration    16          0.761              1.484              0.986
 Vibration    17          0.780              1.434              0.904
 Vibration    18          0.806              1.369              0.807
 Vibration    19          0.810              1.358              0.792
 Vibration    20          0.818              1.338              0.765
 Vibration    21          0.864              1.231              0.637
 Vibration    22          0.941              1.066              0.478
 Vibration    23          0.978              0.994              0.420

                           ! Non-Optimized Parameters !
 Normal termination of Gaussian 16 at Sun Feb 11 01:49:08 2024.
