 Q-Chem 5.4, Q-Chem, Inc., Pleasanton, CA (2021)
 Q-Chem 5.4.0 for Intel X86 EM64T Linux

User input:
--------------------------------------------------------------
$molecule
-1 2
C                 -2.7921580000     -0.8831600000     -0.9658580000
C                 -1.4455880000     -0.4094010000     -0.4688130000
C                 -0.2969290000     -1.1223250000     -0.7740360000
C                  0.9789480000     -0.7228050000     -0.3353340000
C                  2.1655820000     -1.5245180000     -0.6931570000
O                  2.0759460000     -2.5728030000     -1.3899550000
C                  3.4161230000     -1.0239550000     -0.1919170000
C                  3.5235360000      0.1207010000      0.5702780000
C                  2.3959860000      0.9308210000      0.9417930000
O                  2.5029050000      1.9768590000      1.6395210000
C                  1.0893450000      0.4536270000      0.4480410000
C                 -0.0816590000      1.1715730000      0.7534230000
C                 -1.3347810000      0.7712300000      0.3172750000
C                 -2.5609630000      1.5799070000      0.6740210000
H                 -2.6859230000     -1.8009680000     -1.5485470000
H                 -3.4852470000     -1.0895400000     -0.1407360000
H                 -3.2801370000     -0.1364260000     -1.6046740000
H                 -0.3506360000     -2.0267540000     -1.3718370000
H                  4.3001980000     -1.6026650000     -0.4463380000
H                  4.4935810000      0.4580490000      0.9258380000
H                  0.0336100000      2.0679400000      1.3546700000
H                 -3.2896380000      0.9910030000      1.2450100000
H                 -2.2870760000      2.4472500000      1.2788830000
H                 -3.0850270000      1.9463590000     -0.2175500000
$end
$rem
MAX_SCF_CYCLES=200
BASIS  =  6-311++G(d,p)
GUI  =  2
JOB_TYPE  =  SP
METHOD  =  B3LYP
SOLVENT_METHOD = COSMO
$end
$solvent
dielectric 37.219
opticaldielectric 1.43
$end

--------------------------------------------------------------

             Standard Nuclear Orientation (Angstroms)
    I     Atom           X                Y                Z
 ----------------------------------------------------------------
    1      C       3.2939629750    -1.4840489842    -0.0000679262
    2      C       1.9948352878    -0.7113787188    -0.0000482918
    3      C       0.7820348327    -1.3821650196     0.0000027997
    4      C      -0.4535125420    -0.7088445331     0.0000409795
    5      C      -1.7125198582    -1.4794169576     0.0000406574
    6      O      -1.7212608493    -2.7413151712     0.0000499227
    7      C      -2.9133324367    -0.6896658605    -0.0000162691
    8      C      -2.9133031575     0.6897239060    -0.0000337017
    9      C      -1.7124557044     1.4794404409    -0.0000029112
   10      O      -1.7211679607     2.7413341086    -0.0000006926
   11      C      -0.4534857571     0.7088494173     0.0000056550
   12      C       0.7820791602     1.3821504833    -0.0000432838
   13      C       1.9948508454     0.7113307004    -0.0000127948
   14      C       3.2939738629     1.4840064884     0.0000763938
   15      H       3.1019299230    -2.5593653981    -0.0014049468
   16      H       3.9091160029    -1.2533747638    -0.8787985662
   17      H       3.9078784718    -1.2553730291     0.8800662246
   18      H       0.7509147098    -2.4671875208    -0.0000556808
   19      H      -3.8495885315    -1.2416155313    -0.0000441266
   20      H      -3.8495442407     1.2416899566    -0.0000771482
   21      H       0.7510161649     2.4671821808    -0.0000863965
   22      H       3.9087793338     1.2540569564    -0.8790942726
   23      H       3.1019131094     2.5593057532    -0.0003305139
   24      H       3.9082504881     1.2546417201     0.8797837448
 ----------------------------------------------------------------

    9    -613.9850273840      8.95e-06  Convergence criterion met
 Total energy in the final basis set =     -613.9850273840
    5    -614.0733793568      6.06e-06  Convergence criterion met
 Total energy in the final basis set =     -614.0733793568

                    Orbital Energies (a.u.)
 --------------------------------------------------------------

 Alpha MOs
 -- Occupied --
-19.0801 -19.0801 -10.2234 -10.2234 -10.1794 -10.1790 -10.1705 -10.1700
-10.1645 -10.1645 -10.1625 -10.1619 -10.1604 -10.1604  -1.0037  -1.0014
 -0.8618  -0.8103  -0.7630  -0.7611  -0.7052  -0.6774  -0.6651  -0.6011
 -0.5895  -0.5582  -0.4931  -0.4860  -0.4781  -0.4377  -0.4318  -0.4267
 -0.4254  -0.4155  -0.4118  -0.3947  -0.3867  -0.3841  -0.3803  -0.3790
 -0.3732  -0.3409  -0.3367  -0.3315  -0.2793  -0.2511  -0.2488  -0.2413
 -0.2394  -0.1565

 Beta MOs
 -- Occupied --
-19.0739 -19.0739 -10.2218 -10.2218 -10.1792 -10.1787 -10.1701 -10.1697
-10.1644 -10.1644 -10.1608 -10.1604 -10.1604 -10.1602  -0.9929  -0.9904
 -0.8603  -0.8053  -0.7618  -0.7588  -0.7022  -0.6761  -0.6565  -0.6002
 -0.5866  -0.5550  -0.4917  -0.4834  -0.4744  -0.4365  -0.4301  -0.4246
 -0.4243  -0.4100  -0.3965  -0.3941  -0.3850  -0.3825  -0.3782  -0.3719
 -0.3539  -0.3395  -0.3306  -0.3284  -0.2509  -0.2448  -0.2431  -0.2357
 -0.2343

          Ground-State Mulliken Net Atomic Charges

     Atom                 Charge (a.u.)    Spin (a.u.)
  --------------------------------------------------------
      1 C                    -0.535491      -0.000947
      2 C                     0.575257       0.017365
      3 C                    -0.296778       0.041638
      4 C                    -0.001172       0.008002
      5 C                    -0.588346       0.088979
      6 O                    -0.527986       0.218454
      7 C                     0.027286       0.138241
      8 C                     0.027396       0.138296
      9 C                    -0.588522       0.088970
     10 O                    -0.527982       0.218465
     11 C                     0.000477       0.008020
     12 C                    -0.296982       0.041622
     13 C                     0.575319       0.017371
     14 C                    -0.535081      -0.000947
     15 H                     0.176679       0.000055
     16 H                     0.167488       0.001142
     17 H                     0.167698       0.001145
     18 H                     0.137216      -0.002801
     19 H                     0.197215      -0.011306
     20 H                     0.197243      -0.011309
     21 H                     0.137248      -0.002801
     22 H                     0.167477       0.001144
     23 H                     0.176753       0.000056
     24 H                     0.167588       0.001144
  --------------------------------------------------------
  Sum of atomic charges =    -1.000000

                    Cartesian Multipole Moments
 -----------------------------------------------------------------
    Charge (ESU x 10^10)
                -4.8032
    Dipole Moment (Debye)
         X       9.7160      Y       0.0009      Z       0.0009
       Tot       9.7160
    Quadrupole Moments (Debye-Ang)
        XX     -90.6800     XY      -0.0013     YY    -125.2579
        XZ       0.0001     YZ       0.0003     ZZ     -87.7612

 Total job time:  52.52s(wall), 361.11s(cpu)
        *  Thank you very much for using Q-Chem.  Have a nice day.  *
