 Gaussian 16, Revision A.03,
 Gaussian 16:  ES64L-G16RevA.03 25-Dec-2016

 ----------------------------------------------------------------------
 #P UB3LYP/6-311++G(d,p) nosym opt freq SCRF=(PCM,Solvent=n,n-DiMethylF
 ormamide)
 ----------------------------------------------------------------------

 -------
 Reduced
 -------
 Symbolic Z-matrix:
 Charge = -2 Multiplicity = 1

 SCF Done:  E(UB3LYP) =  -1145.09148596     A.U. after   16 cycles
 SCF Done:  E(UB3LYP) =  -1145.09270490     A.U. after   14 cycles
 SCF Done:  E(UB3LYP) =  -1145.09363710     A.U. after   15 cycles
 SCF Done:  E(UB3LYP) =  -1145.09454029     A.U. after   13 cycles
 SCF Done:  E(UB3LYP) =  -1145.09445430     A.U. after   12 cycles
 SCF Done:  E(UB3LYP) =  -1145.09476425     A.U. after   12 cycles
 SCF Done:  E(UB3LYP) =  -1145.09478769     A.U. after   11 cycles
 SCF Done:  E(UB3LYP) =  -1145.09480377     A.U. after   12 cycles
 SCF Done:  E(UB3LYP) =  -1145.09480673     A.U. after   10 cycles
 SCF Done:  E(UB3LYP) =  -1145.09481495     A.U. after   11 cycles
 SCF Done:  E(UB3LYP) =  -1145.09481741     A.U. after    9 cycles
 SCF Done:  E(UB3LYP) =  -1145.09481943     A.U. after   10 cycles
 SCF Done:  E(UB3LYP) =  -1145.09481995     A.U. after   10 cycles
 SCF Done:  E(UB3LYP) =  -1145.09482039     A.U. after   11 cycles
 SCF Done:  E(UB3LYP) =  -1145.09482094     A.U. after   10 cycles
 SCF Done:  E(UB3LYP) =  -1145.09482120     A.U. after   10 cycles
 SCF Done:  E(UB3LYP) =  -1145.09482127     A.U. after    8 cycles
 SCF Done:  E(UB3LYP) =  -1145.09482131     A.U. after    8 cycles
 SCF Done:  E(UB3LYP) =  -1145.09482133     A.U. after    8 cycles
 Optimization completed.
    -- Stationary point found.
 Normal termination of Gaussian 16 at Sat Feb 10 21:38:05 2024.

 ----------------------------------------------------------------------
 #P Geom=AllCheck Guess=TCheck SCRF=Check GenChk UB3LYP/6-311++G(d,p) F
 req
 ----------------------------------------------------------------------

 Structure from the checkpoint file:  "145-an.chk"
 -------
 Reduced
 -------
 Charge = -2 Multiplicity = 1

                          Input orientation:
 ---------------------------------------------------------------------
 Center     Atomic      Atomic             Coordinates (Angstroms)
 Number     Number       Type             X           Y           Z
 ---------------------------------------------------------------------
      1          6           0       -4.990410   -0.435332   -0.026203
      2          6           0       -3.556126   -0.437086    0.427988
      3          8           0       -3.120314   -1.109783    1.339785
      4          8           0       -2.495002   -1.775417   -1.709299
      5          6           0       -1.223997   -1.668738   -1.539695
      6          6           0       -0.325173   -2.597975   -2.099340
      7          6           0        1.067173   -2.501662   -1.939712
      8          6           0        1.620458   -1.479986   -1.214693
      9          8           0        3.038519   -1.435900   -1.187537
     10          6           0        3.681645   -1.805259   -0.065406
     11          6           0        5.149254   -1.487437   -0.160292
     12          8           0        3.151343   -2.351579    0.879479
     13          6           0        0.825612   -0.462796   -0.599244
     14          6           0        1.436246    0.635909    0.142643
     15          8           0        2.696214    0.743605    0.314538
     16          6           0        0.539751    1.635411    0.691431
     17          6           0        1.071060    2.746229    1.393562
     18          6           0        0.263913    3.719514    1.938890
     19          6           0       -1.145580    3.611828    1.800208
     20          6           0       -1.701483    2.550196    1.129869
     21          6           0       -0.884867    1.525748    0.548635
     22          6           0       -1.416231    0.436136   -0.149153
     23          8           0       -2.826584    0.439111   -0.286506
     24          6           0       -0.618727   -0.558076   -0.751838
     25          1           0       -5.046693   -1.016126   -0.949725
     26          1           0       -5.330671    0.578505   -0.243142
     27          1           0       -5.625410   -0.893391    0.730359
     28          1           0       -0.747288   -3.412939   -2.680057
     29          1           0        1.724458   -3.237434   -2.393232
     30          1           0        5.270648   -0.408889   -0.035750
     31          1           0        5.542142   -1.758833   -1.141664
     32          1           0        5.698294   -2.008342    0.622197
     33          1           0        2.148970    2.804111    1.487694
     34          1           0        0.695074    4.561309    2.470101
     35          1           0       -1.788749    4.375056    2.227169
     36          1           0       -2.777472    2.480310    1.027945
 ---------------------------------------------------------------------

 SCF Done:  E(UB3LYP) =  -1145.09482133     A.U. after    1 cycles

 Alpha  occ. eigenvalues --  -19.15282 -19.15140 -19.10250 -19.10103 -19.03649
 Alpha  occ. eigenvalues --  -19.02615 -10.29591 -10.29493 -10.20223 -10.19469
 Alpha  occ. eigenvalues --  -10.19330 -10.19315 -10.16671 -10.16545 -10.16277
 Alpha  occ. eigenvalues --  -10.16129 -10.16090 -10.15840 -10.15632 -10.15527
 Alpha  occ. eigenvalues --  -10.15434 -10.14834 -10.14556 -10.12567  -1.09564
 Alpha  occ. eigenvalues --   -1.09470  -1.01239  -1.01140  -0.95977  -0.94477
 Alpha  occ. eigenvalues --   -0.84607  -0.81773  -0.78230  -0.74908  -0.74633
 Alpha  occ. eigenvalues --   -0.73362  -0.71833  -0.69769  -0.66905  -0.61875
 Alpha  occ. eigenvalues --   -0.60639  -0.59699  -0.59120  -0.55051  -0.51945
 Alpha  occ. eigenvalues --   -0.51351  -0.49111  -0.48586  -0.47786  -0.47179
 Alpha  occ. eigenvalues --   -0.46763  -0.45935  -0.45233  -0.44197  -0.43724
 Alpha  occ. eigenvalues --   -0.43202  -0.42176  -0.41117  -0.40528  -0.40295
 Alpha  occ. eigenvalues --   -0.39552  -0.38919  -0.37946  -0.37794  -0.37278
 Alpha  occ. eigenvalues --   -0.37077  -0.36643  -0.35721  -0.35325  -0.34055
 Alpha  occ. eigenvalues --   -0.33352  -0.33091  -0.31976  -0.30805  -0.29738
 Alpha  occ. eigenvalues --   -0.28408  -0.27777  -0.27306  -0.27216  -0.23961
 Alpha  occ. eigenvalues --   -0.22616  -0.21286  -0.19744  -0.18217  -0.13101
 Alpha virt. eigenvalues --   -0.03238  -0.00373  -0.00127   0.00446   0.00685
 Alpha virt. eigenvalues --    0.01049   0.01323   0.01795   0.02548   0.02759
 Alpha virt. eigenvalues --    0.03159   0.03729   0.03994   0.04250   0.04519

  Beta  occ. eigenvalues --  -19.15282 -19.15140 -19.10250 -19.10103 -19.03649
  Beta  occ. eigenvalues --  -19.02615 -10.29591 -10.29493 -10.20223 -10.19469
  Beta  occ. eigenvalues --  -10.19330 -10.19315 -10.16671 -10.16545 -10.16277
  Beta  occ. eigenvalues --  -10.16129 -10.16090 -10.15840 -10.15632 -10.15527
  Beta  occ. eigenvalues --  -10.15434 -10.14834 -10.14556 -10.12567  -1.09564
  Beta  occ. eigenvalues --   -1.09470  -1.01239  -1.01140  -0.95977  -0.94477
  Beta  occ. eigenvalues --   -0.84607  -0.81773  -0.78230  -0.74908  -0.74633
  Beta  occ. eigenvalues --   -0.73362  -0.71833  -0.69769  -0.66905  -0.61875
  Beta  occ. eigenvalues --   -0.60639  -0.59699  -0.59120  -0.55051  -0.51945
  Beta  occ. eigenvalues --   -0.51351  -0.49111  -0.48586  -0.47786  -0.47179
  Beta  occ. eigenvalues --   -0.46763  -0.45935  -0.45233  -0.44197  -0.43724
  Beta  occ. eigenvalues --   -0.43202  -0.42176  -0.41117  -0.40528  -0.40295
  Beta  occ. eigenvalues --   -0.39552  -0.38919  -0.37946  -0.37794  -0.37278
  Beta  occ. eigenvalues --   -0.37077  -0.36643  -0.35721  -0.35325  -0.34055
  Beta  occ. eigenvalues --   -0.33352  -0.33091  -0.31976  -0.30805  -0.29738
  Beta  occ. eigenvalues --   -0.28408  -0.27777  -0.27306  -0.27216  -0.23961
  Beta  occ. eigenvalues --   -0.22616  -0.21286  -0.19744  -0.18217  -0.13101
  Beta virt. eigenvalues --   -0.03238  -0.00373  -0.00127   0.00446   0.00685
  Beta virt. eigenvalues --    0.01049   0.01323   0.01795   0.02548   0.02759
  Beta virt. eigenvalues --    0.03159   0.03729   0.03994   0.04250   0.04519

 Mulliken charges and spin densities:
               1          2
     1  C   -0.517508   0.000000
     2  C    0.073466  -0.000000
     3  O   -0.322120  -0.000000
     4  O   -0.619717   0.000000
     5  C   -0.399896  -0.000000
     6  C   -0.175753   0.000000
     7  C    0.130806  -0.000000
     8  C   -0.567566   0.000000
     9  O   -0.009345  -0.000000
    10  C    0.054925  -0.000000
    11  C   -0.484830   0.000000
    12  O   -0.329203  -0.000000
    13  C    0.533451   0.000000
    14  C   -0.334967   0.000000
    15  O   -0.553128   0.000000
    16  C    0.371929  -0.000000
    17  C   -0.069413  -0.000000
    18  C   -0.437517  -0.000000
    19  C   -0.548754  -0.000000
    20  C   -0.132306  -0.000000
    21  C    0.297076  -0.000000
    22  C   -0.437690   0.000000
    23  O   -0.021731  -0.000000
    24  C    0.505500   0.000000
    25  H    0.198750  -0.000000
    26  H    0.162670  -0.000000
    27  H    0.160799  -0.000000
    28  H    0.145585   0.000000
    29  H    0.168063  -0.000000
    30  H    0.190876  -0.000000
    31  H    0.170014  -0.000000
    32  H    0.160075   0.000000
    33  H    0.153103   0.000000
    34  H    0.164808  -0.000000
    35  H    0.173202   0.000000
    36  H    0.146347  -0.000000
 Sum of Mulliken charges =  -2.00000   0.00000

 Dipole moment (field-independent basis, Debye):
    X=              0.5491    Y=              6.9273    Z=              1.3491  Tot=              7.0788
 Quadrupole moment (field-independent basis, Debye-Ang):
   XX=           -175.9119   YY=           -176.5093   ZZ=           -169.5594
   XY=            -15.8948   XZ=            -12.4750   YZ=             -4.1526

  Exact polarizability: 458.030  -6.694 458.359   9.671 144.236 315.381
 Approx polarizability: 526.616  -7.460 500.691  11.858 149.297 357.350

                      1                      2                      3
                      A                      A                      A
 Frequencies --     34.5528                45.1207                61.6977
 Red. masses --      7.4026                 5.1273                 6.3855
 Frc consts  --      0.0052                 0.0062                 0.0143
 IR Inten    --      7.0845                 2.8072                 0.9734

                      4                      5                      6
                      A                      A                      A
 Frequencies --     75.9628                78.9015                94.2195
 Red. masses --      3.8922                 5.0579                 3.3744
 Frc consts  --      0.0132                 0.0186                 0.0176
 IR Inten    --     14.7635                 4.9359                 3.1650

                      7                      8                      9
                      A                      A                      A
 Frequencies --    100.6072               111.0299               119.5370
 Red. masses --      1.5829                 2.0362                 4.9653
 Frc consts  --      0.0094                 0.0148                 0.0418
 IR Inten    --      5.1905                 4.8700                 2.3659

                     10                     11                     12
                      A                      A                      A
 Frequencies --    132.4667               147.4304               157.3636
 Red. masses --      1.2357                 5.9026                 7.6629
 Frc consts  --      0.0128                 0.0756                 0.1118
 IR Inten    --      1.8782                 3.9132                 3.4614

                     13                     14                     15
                      A                      A                      A
 Frequencies --    197.2921               217.8381               271.1550
 Red. masses --      6.7593                 6.3891                 6.6733
 Frc consts  --      0.1550                 0.1786                 0.2891
 IR Inten    --      5.7062                 4.3773                 0.8879

                     16                     17                     18
                      A                      A                      A
 Frequencies --    287.0428               318.3953               322.3380
 Red. masses --      4.8166                 4.7092                 8.9416
 Frc consts  --      0.2338                 0.2813                 0.5474
 IR Inten    --      9.8080                12.2797                 4.4411

                     19                     20                     21
                      A                      A                      A
 Frequencies --    338.5525               369.4390               376.8868
 Red. masses --      5.8488                 6.4600                 7.9562
 Frc consts  --      0.3950                 0.5195                 0.6659
 IR Inten    --     10.5121                 3.0128                 7.1370

                     22                     23                     24
                      A                      A                      A
 Frequencies --    390.0356               401.8980               439.1852
 Red. masses --     11.0190                 6.9592                 4.0282
 Frc consts  --      0.9876                 0.6623                 0.4578
 IR Inten    --      3.3026                 1.3534                 3.3625

                     25                     26                     27
                      A                      A                      A
 Frequencies --    445.3337               500.7775               505.3829
 Red. masses --      4.9646                 6.6375                 5.1921
 Frc consts  --      0.5801                 0.9807                 0.7813
 IR Inten    --      5.1568                47.7810                21.1529

                     28                     29                     30
                      A                      A                      A
 Frequencies --    512.0106               530.6572               576.9008
 Red. masses --      4.5980                 5.2209                 3.2034
 Frc consts  --      0.7102                 0.8662                 0.6281
 IR Inten    --     26.6654                 2.1409                10.4447

                     31                     32                     33
                      A                      A                      A
 Frequencies --    580.8572               585.8385               594.5679
 Red. masses --      3.3954                 3.6576                 4.2973
 Frc consts  --      0.6750                 0.7396                 0.8951
 IR Inten    --     25.6421                44.2214                 8.0539

                     34                     35                     36
                      A                      A                      A
 Frequencies --    598.4418               643.8765               662.1306
 Red. masses --      4.8739                 6.0835                 4.9867
 Frc consts  --      1.0284                 1.4860                 1.2881
 IR Inten    --      1.3946                10.8253                11.3951

                     37                     38                     39
                      A                      A                      A
 Frequencies --    687.7108               707.9510               717.7928
 Red. masses --      5.7676                 6.1208                 2.7872
 Frc consts  --      1.6072                 1.8074                 0.8461
 IR Inten    --      9.7791                16.2011                15.8897

                     40                     41                     42
                      A                      A                      A
 Frequencies --    740.3067               762.2527               773.1113
 Red. masses --      2.8035                 1.7126                 5.6036
 Frc consts  --      0.9053                 0.5863                 1.9733
 IR Inten    --     13.3314               137.2154                53.3961

                     43                     44                     45
                      A                      A                      A
 Frequencies --    803.8043               811.3042               838.8537
 Red. masses --      3.5604                 3.5225                 5.1309
 Frc consts  --      1.3553                 1.3660                 2.1272
 IR Inten    --      9.1732                36.8279               121.8631

                     46                     47                     48
                      A                      A                      A
 Frequencies --    852.0765               868.4055               887.3315
 Red. masses --      1.7184                 4.4751                 1.6997
 Frc consts  --      0.7351                 1.9884                 0.7885
 IR Inten    --      7.0635                28.2838                28.0286

                     49                     50                     51
                      A                      A                      A
 Frequencies --    920.7933               929.2080               952.1853
 Red. masses --      6.7131                 5.2807                 5.9260
 Frc consts  --      3.3535                 2.6864                 3.1656
 IR Inten    --     32.5897                32.8201                41.3762

                     52                     53                     54
                      A                      A                      A
 Frequencies --    974.8677               983.7929              1016.2790
 Red. masses --      1.3434                 1.2647                 1.8033
 Frc consts  --      0.7522                 0.7212                 1.0973
 IR Inten    --      1.3532                 0.2778                22.3510

                     55                     56                     57
                      A                      A                      A
 Frequencies --   1024.4001              1027.0888              1051.1862
 Red. masses --      2.4078                 1.8439                 1.7898
 Frc consts  --      1.4887                 1.1460                 1.1652
 IR Inten    --     25.5120               221.2315                39.7719

                     58                     59                     60
                      A                      A                      A
 Frequencies --   1053.5727              1059.9578              1081.4195
 Red. masses --      1.7617                 2.7144                 2.9104
 Frc consts  --      1.1521                 1.7968                 2.0054
 IR Inten    --     11.1077               174.2475               145.9760

                     61                     62                     63
                      A                      A                      A
 Frequencies --   1123.5313              1151.2987              1160.3323
 Red. masses --      1.6200                 2.2611                 1.5067
 Frc consts  --      1.2048                 1.7658                 1.1952
 IR Inten    --    112.0368                82.1788                63.2829

                     64                     65                     66
                      A                      A                      A
 Frequencies --   1201.0663              1211.2409              1240.7474
 Red. masses --      2.1238                 2.7646                 3.8961
 Frc consts  --      1.8051                 2.3897                 3.5339
 IR Inten    --     19.0470               204.9566              1194.6521

                     67                     68                     69
                      A                      A                      A
 Frequencies --   1247.3863              1256.4648              1282.6023
 Red. masses --      4.2064                 2.2139                 6.5069
 Frc consts  --      3.8563                 2.0593                 6.3068
 IR Inten    --    370.4070               180.8458                80.6731

                     70                     71                     72
                      A                      A                      A
 Frequencies --   1309.3300              1326.7368              1360.4411
 Red. masses --      5.2239                 2.9965                 3.9376
 Frc consts  --      5.2764                 3.1076                 4.2938
 IR Inten    --     36.2336               466.2459                81.2022

                     73                     74                     75
                      A                      A                      A
 Frequencies --   1383.3299              1384.5282              1390.8571
 Red. masses --      1.3784                 1.4835                 3.5041
 Frc consts  --      1.5541                 1.6755                 3.9938
 IR Inten    --    298.4618                46.0372               234.7100

                     76                     77                     78
                      A                      A                      A
 Frequencies --   1414.7377              1437.3556              1463.7188
 Red. masses --      4.2826                 3.5937                 1.1004
 Frc consts  --      5.0502                 4.3744                 1.3891
 IR Inten    --    688.5687                11.4507               107.6856

                     79                     80                     81
                      A                      A                      A
 Frequencies --   1464.8913              1465.7725              1468.8319
 Red. masses --      1.0860                 1.1350                 1.0613
 Frc consts  --      1.3731                 1.4368                 1.3490
 IR Inten    --     87.2655               104.6441                41.8548

                     82                     83                     84
                      A                      A                      A
 Frequencies --   1471.6538              1483.6657              1532.5900
 Red. masses --      3.3431                 2.8289                 6.6084
 Frc consts  --      4.2659                 3.6689                 9.1453
 IR Inten    --   1374.5568                31.0968               514.1301

                     85                     86                     87
                      A                      A                      A
 Frequencies --   1545.6309              1570.7088              1599.3187
 Red. masses --      6.1097                 6.9353                 6.6615
 Frc consts  --      8.5997                10.0811                10.0390
 IR Inten    --    156.1679                23.8919                76.9741

                     88                     89                     90
                      A                      A                      A
 Frequencies --   1630.7127              1734.3367              1738.9706
 Red. masses --      5.7998                11.1282                11.1129
 Frc consts  --      9.0869                19.7216                19.7999
 IR Inten    --     75.9292               364.0364               680.4520

                     91                     92                     93
                      A                      A                      A
 Frequencies --   3051.1384              3051.5496              3116.6510
 Red. masses --      1.0353                 1.0350                 1.1002
 Frc consts  --      5.6786                 5.6783                 6.2963
 IR Inten    --      8.0045                 9.5076                 9.3055

                     94                     95                     96
                      A                      A                      A
 Frequencies --   3118.2391              3140.2798              3145.3098
 Red. masses --      1.1002                 1.0859                 1.1043
 Frc consts  --      6.3027                 6.3090                 6.4368
 IR Inten    --      9.2130                72.7488                19.7936

                     97                     98                     99
                      A                      A                      A
 Frequencies --   3146.2969              3149.1193              3159.7769
 Red. masses --      1.1041                 1.0857                 1.0935
 Frc consts  --      6.4398                 6.3435                 6.4326
 IR Inten    --     19.0248                19.8393                67.0295

                    100                    101                    102
                      A                      A                      A
 Frequencies --   3164.9951              3183.9012              3188.2107
 Red. masses --      1.0895                 1.0919                 1.0936
 Frc consts  --      6.4305                 6.5213                 6.5492
 IR Inten    --     28.2461                36.8896                53.2405

 - Thermochemistry -
 -------------------
 Temperature   298.150 Kelvin.  Pressure   1.00000 Atm.
 Atom     1 has atomic number  6 and mass  12.00000

 Molecular mass:   324.06339 amu.
 Principal axes and moments of inertia in atomic units:
                           1         2         3
     Eigenvalues --  5251.227888532.33555**********
           X            0.94684   0.31886  -0.04282
           Y           -0.29970   0.82581  -0.47772
           Z           -0.11696   0.46515   0.87747
 This molecule is an asymmetric top.
 Rotational symmetry number  1.
 Warning -- assumption of classical behavior for rotation
           may cause significant error
 Rotational temperatures (Kelvin)      0.01649     0.01015     0.00683
 Rotational constants (GHZ):           0.34368     0.21152     0.14223
 Zero-point vibrational energy     676007.5 (Joules/Mol)
                                  161.56968 (Kcal/Mol)
 Warning -- explicit consideration of  34 degrees of freedom as
           vibrations may cause significant error
 Vibrational temperatures:     49.71    64.92    88.77   109.29   113.52
          (Kelvin)            135.56   144.75   159.75   171.99   190.59
                              212.12   226.41   283.86   313.42   390.13
                              412.99   458.10   463.77   487.10   531.54
                              542.26   561.17   578.24   631.89   640.74
                              720.51   727.13   736.67   763.50   830.03
                              835.72   842.89   855.45   861.02   926.39
                              952.66   989.46  1018.58  1032.74  1065.14
                             1096.71  1112.33  1156.50  1167.29  1206.92
                             1225.95  1249.44  1276.67  1324.82  1336.92
                             1369.98  1402.62  1415.46  1462.20  1473.88
                             1477.75  1512.42  1515.86  1525.04  1555.92
                             1616.51  1656.46  1669.46  1728.07  1742.71
                             1785.16  1794.71  1807.77  1845.38  1883.83
                             1908.88  1957.37  1990.30  1992.03  2001.13
                             2035.49  2068.03  2105.96  2107.65  2108.92
                             2113.32  2117.38  2134.66  2205.06  2223.82
                             2259.90  2301.06  2346.23  2495.32  2501.99
                             4389.91  4390.50  4484.17  4486.45  4518.16
                             4525.40  4526.82  4530.88  4546.21  4553.72
                             4580.92  4587.12

 Zero-point correction=                           0.257478 (Hartree/Particle)
 Thermal correction to Energy=                    0.277915
 Thermal correction to Enthalpy=                  0.278860
 Thermal correction to Gibbs Free Energy=         0.207956
 Sum of electronic and zero-point Energies=          -1144.837344
 Sum of electronic and thermal Energies=             -1144.816906
 Sum of electronic and thermal Enthalpies=           -1144.815962
 Sum of electronic and thermal Free Energies=        -1144.886865

                     E (Thermal)             CV                S
                      KCal/Mol        Cal/Mol-Kelvin    Cal/Mol-Kelvin
 Total                  174.395             78.274            149.228
 Electronic               0.000              0.000              0.000
 Translational            0.889              2.981             43.223
 Rotational               0.889              2.981             34.696
 Vibrational            172.617             72.313             71.310
 Vibration     1          0.594              1.983              5.549
 Vibration     2          0.595              1.979              5.021
 Vibration     3          0.597              1.973              4.402
 Vibration     4          0.599              1.965              3.993
 Vibration     5          0.600              1.963              3.918
 Vibration     6          0.603              1.953              3.571
 Vibration     7          0.604              1.949              3.443
 Vibration     8          0.607              1.940              3.251
 Vibration     9          0.609              1.933              3.108
 Vibration    10          0.613              1.921              2.910
 Vibration    11          0.617              1.905              2.705
 Vibration    12          0.621              1.894              2.581
 Vibration    13          0.637              1.844              2.158
 Vibration    14          0.646              1.814              1.977
 Vibration    15          0.675              1.726              1.589
 Vibration    16          0.684              1.698              1.491
 Vibration    17          0.705              1.638              1.318
 Vibration    18          0.707              1.631              1.298
 Vibration    19          0.719              1.598              1.219
 Vibration    20          0.742              1.535              1.082
 Vibration    21          0.747              1.519              1.052
 Vibration    22          0.758              1.491              1.000
 Vibration    23          0.768              1.466              0.956
 Vibration    24          0.799              1.385              0.829
 Vibration    25          0.805              1.371              0.810
 Vibration    26          0.856              1.248              0.656
 Vibration    27          0.861              1.238              0.645
 Vibration    28          0.867              1.223              0.629
 Vibration    29          0.886              1.182              0.586
 Vibration    30          0.933              1.081              0.491
 Vibration    31          0.938              1.073              0.484
 Vibration    32          0.943              1.062              0.475
 Vibration    33          0.952              1.043              0.459
 Vibration    34          0.956              1.035              0.452

                           ! Non-Optimized Parameters !
 Normal termination of Gaussian 16 at Sun Feb 11 00:09:03 2024.
