 Gaussian 16, Revision A.03,
 Gaussian 16:  ES64L-G16RevA.03 25-Dec-2016

 ----------------------------------------------------------------------
 #P UB3LYP/6-311++G(d,p) nosym opt freq SCRF=(PCM,Solvent=n,n-DiMethylF
 ormamide)
 ----------------------------------------------------------------------

 -------
 Radical
 -------
 Symbolic Z-matrix:
 Charge = -1 Multiplicity = 2

 SCF Done:  E(UB3LYP) =  -1432.13239852     A.U. after   23 cycles
 SCF Done:  E(UB3LYP) =  -1432.13224605     A.U. after   20 cycles
 SCF Done:  E(UB3LYP) =  -1432.12748325     A.U. after   23 cycles
 SCF Done:  E(UB3LYP) =  -1432.12678759     A.U. after   19 cycles
 SCF Done:  E(UB3LYP) =  -1432.13261232     A.U. after   14 cycles
 SCF Done:  E(UB3LYP) =  -1432.13241428     A.U. after   23 cycles
 SCF Done:  E(UB3LYP) =  -1432.13341337     A.U. after   20 cycles
 SCF Done:  E(UB3LYP) =  -1432.13365899     A.U. after   23 cycles
 SCF Done:  E(UB3LYP) =  -1432.13385600     A.U. after   23 cycles
 SCF Done:  E(UB3LYP) =  -1432.13390083     A.U. after   19 cycles
 SCF Done:  E(UB3LYP) =  -1432.13394557     A.U. after   18 cycles
 SCF Done:  E(UB3LYP) =  -1432.13395497     A.U. after   16 cycles
 SCF Done:  E(UB3LYP) =  -1432.13394159     A.U. after   18 cycles
 SCF Done:  E(UB3LYP) =  -1432.13395703     A.U. after   17 cycles
 SCF Done:  E(UB3LYP) =  -1432.13395709     A.U. after   12 cycles
 SCF Done:  E(UB3LYP) =  -1432.13395704     A.U. after   12 cycles
 SCF Done:  E(UB3LYP) =  -1432.13395716     A.U. after   16 cycles
 SCF Done:  E(UB3LYP) =  -1432.13395750     A.U. after   13 cycles
 SCF Done:  E(UB3LYP) =  -1432.13395750     A.U. after   12 cycles
 Optimization completed.
    -- Stationary point found.
 Normal termination of Gaussian 16 at Sat Feb 10 22:01:36 2024.

 ----------------------------------------------------------------------
 #P Geom=AllCheck Guess=TCheck SCRF=Check GenChk UB3LYP/6-311++G(d,p) F
 req
 ----------------------------------------------------------------------

 Structure from the checkpoint file:  "068-rad.chk"
 -------
 Radical
 -------
 Charge = -1 Multiplicity = 2

                          Input orientation:
 ---------------------------------------------------------------------
 Center     Atomic      Atomic             Coordinates (Angstroms)
 Number     Number       Type             X           Y           Z
 ---------------------------------------------------------------------
      1          6           0        0.972899    0.896711   -1.498536
      2          6           0       -0.161853    0.066496   -1.843307
      3          6           0       -0.409374   -1.112862   -1.216871
      4          6           0        0.441693   -1.630181   -0.167327
      5          6           0        1.583690   -0.808991    0.228267
      6          6           0        1.816753    0.389440   -0.425342
      7          8           0        1.213148    1.976321   -2.097404
      8          8           0        0.209264   -2.745865    0.378037
      9         16           0        3.207110    1.440757    0.026531
     10          6           0        4.217187    1.625044   -1.456896
     11          6           0        4.823416    0.492568   -1.998496
     12          6           0        4.421922    2.893087   -1.991136
     13          6           0        5.260687    3.028691   -3.096354
     14          6           0        5.649817    0.639578   -3.110263
     15          6           0        5.869722    1.905450   -3.656143
     16          8           0        4.016329    0.680764    1.005046
     17          8           0        2.742430    2.777700    0.443569
     18          1           0       -0.806224    0.431554   -2.636321
     19          1           0       -1.260729   -1.726451   -1.493618
     20          1           0        4.657183   -0.485789   -1.563831
     21          1           0        3.931543    3.750915   -1.550601
     22          1           0        5.432869    4.010600   -3.521206
     23          1           0        6.124568   -0.232137   -3.544744
     24          1           0        6.516665    2.015543   -4.518770
     25          6           0        2.453522   -1.447341    1.311581
     26          8           0        3.291940   -2.256600    0.966795
     27          6           0        2.148068   -1.201665    2.809596
     28          6           0        1.265777    0.035841    3.041490
     29          6           0        1.410088   -2.460625    3.332966
     30          6           0        3.475142   -1.058062    3.581610
     31          1           0        0.305491   -0.045770    2.525990
     32          1           0        1.758099    0.952000    2.709368
     33          1           0        1.059854    0.137890    4.110752
     34          1           0        0.464683   -2.617732    2.813818
     35          1           0        1.213748   -2.335361    4.401794
     36          1           0        2.025757   -3.352880    3.197903
     37          1           0        4.012771   -0.162110    3.271269
     38          1           0        4.117796   -1.924538    3.414873
     39          1           0        3.263765   -0.989981    4.652701
 ---------------------------------------------------------------------

 SCF Done:  E(UB3LYP) =  -1432.13395750     A.U. after    2 cycles

 Alpha  occ. eigenvalues --  -89.05603 -19.12083 -19.12074 -19.11915 -19.09376
 Alpha  occ. eigenvalues --  -19.09300 -10.27417 -10.24527 -10.24088 -10.21804
 Alpha  occ. eigenvalues --  -10.21299 -10.20727 -10.19888 -10.19663 -10.19208
 Alpha  occ. eigenvalues --  -10.19154 -10.19116 -10.19057 -10.18088 -10.17953
 Alpha  occ. eigenvalues --  -10.15644 -10.15554 -10.15200  -8.11993  -6.08272
 Alpha  occ. eigenvalues --   -6.08163  -6.08089  -1.11288  -1.05595  -1.01978
 Alpha  occ. eigenvalues --   -1.01577  -1.00610  -0.88140  -0.85113  -0.81717
 Alpha  occ. eigenvalues --   -0.79214  -0.77481  -0.76822  -0.72565  -0.68542
 Alpha  occ. eigenvalues --   -0.68261  -0.67993  -0.64730  -0.62803  -0.62207
 Alpha  occ. eigenvalues --   -0.59338  -0.58055  -0.54280  -0.52718  -0.50414
 Alpha  occ. eigenvalues --   -0.50069  -0.48821  -0.48252  -0.47930  -0.46708
 Alpha  occ. eigenvalues --   -0.46056  -0.45824  -0.45473  -0.44238  -0.43707
 Alpha  occ. eigenvalues --   -0.42789  -0.42526  -0.42399  -0.41021  -0.39745
 Alpha  occ. eigenvalues --   -0.39445  -0.39247  -0.38766  -0.38367  -0.38168
 Alpha  occ. eigenvalues --   -0.37380  -0.36788  -0.36566  -0.36312  -0.34324
 Alpha  occ. eigenvalues --   -0.33273  -0.33077  -0.32592  -0.31650  -0.30481
 Alpha  occ. eigenvalues --   -0.30029  -0.28581  -0.27640  -0.27334  -0.26612
 Alpha  occ. eigenvalues --   -0.25923  -0.24459  -0.18205
 Alpha virt. eigenvalues --   -0.05503  -0.03678  -0.02949  -0.02701  -0.00475
 Alpha virt. eigenvalues --    0.00213   0.00400   0.00892   0.01438   0.01936
 Alpha virt. eigenvalues --    0.02271   0.02581   0.02996   0.03618   0.03812

  Beta  occ. eigenvalues --  -89.05605 -19.12073 -19.12050 -19.11917 -19.08661
  Beta  occ. eigenvalues --  -19.08590 -10.27431 -10.24439 -10.23984 -10.21802
  Beta  occ. eigenvalues --  -10.21196 -10.20462 -10.19888 -10.19662 -10.19207
  Beta  occ. eigenvalues --  -10.19151 -10.19115 -10.19056 -10.18034 -10.17867
  Beta  occ. eigenvalues --  -10.15641 -10.15553 -10.15198  -8.11995  -6.08273
  Beta  occ. eigenvalues --   -6.08165  -6.08092  -1.11271  -1.05522  -1.00977
  Beta  occ. eigenvalues --   -1.00508  -1.00224  -0.88133  -0.84484  -0.81680
  Beta  occ. eigenvalues --   -0.79104  -0.77296  -0.76816  -0.71913  -0.68518
  Beta  occ. eigenvalues --   -0.68247  -0.67548  -0.64504  -0.62780  -0.62072
  Beta  occ. eigenvalues --   -0.59135  -0.57872  -0.54180  -0.52534  -0.50243
  Beta  occ. eigenvalues --   -0.49857  -0.48738  -0.48163  -0.47889  -0.46493
  Beta  occ. eigenvalues --   -0.46006  -0.45749  -0.45423  -0.44229  -0.43636
  Beta  occ. eigenvalues --   -0.42546  -0.41932  -0.41080  -0.40706  -0.39389
  Beta  occ. eigenvalues --   -0.39208  -0.38868  -0.38364  -0.38126  -0.37287
  Beta  occ. eigenvalues --   -0.36965  -0.36586  -0.36304  -0.36035  -0.34187
  Beta  occ. eigenvalues --   -0.33205  -0.33057  -0.32557  -0.31546  -0.30397
  Beta  occ. eigenvalues --   -0.28354  -0.27606  -0.27092  -0.26427  -0.26224
  Beta  occ. eigenvalues --   -0.25247  -0.24033
  Beta virt. eigenvalues --   -0.10910  -0.05087  -0.03161  -0.02936  -0.02059
  Beta virt. eigenvalues --   -0.00451   0.00228   0.00898   0.01271   0.01943
  Beta virt. eigenvalues --    0.02174   0.02495   0.02668   0.03039   0.03681

 Mulliken charges and spin densities:
               1          2
     1  C   -0.524830   0.037444
     2  C   -0.150443   0.051721
     3  C   -0.029868   0.058599
     4  C   -0.446231   0.077803
     5  C    0.484401   0.177066
     6  C    0.171249   0.113208
     7  O   -0.368529   0.236151
     8  O   -0.383862   0.286595
     9  S    0.164114  -0.029502
    10  C    0.508711   0.004021
    11  C   -0.149801  -0.005821
    12  C   -0.113022   0.018730
    13  C   -0.479369  -0.000516
    14  C   -0.428681   0.000670
    15  C   -0.353259   0.000754
    16  O   -0.144603  -0.002666
    17  O   -0.141131   0.007766
    18  H    0.212204  -0.006439
    19  H    0.210725  -0.004356
    20  H    0.242481   0.000504
    21  H    0.244420   0.000708
    22  H    0.215623  -0.000005
    23  H    0.224684   0.000044
    24  H    0.194149  -0.000035
    25  C   -0.044749  -0.029776
    26  O   -0.265855   0.004196
    27  C    0.341876  -0.001125
    28  C   -0.546641   0.000415
    29  C   -0.572755   0.002613
    30  C   -0.604121  -0.000501
    31  H    0.145559   0.001871
    32  H    0.211785  -0.000394
    33  H    0.172755  -0.000392
    34  H    0.177630  -0.000613
    35  H    0.153324   0.000327
    36  H    0.171252   0.000317
    37  H    0.181393   0.000095
    38  H    0.165017   0.000037
    39  H    0.154396   0.000487
 Sum of Mulliken charges =  -1.00000   1.00000

 Dipole moment (field-independent basis, Debye):
    X=             -8.3697    Y=              0.9893    Z=             -1.8901  Tot=              8.6373
 Quadrupole moment (field-independent basis, Debye-Ang):
   XX=           -163.2609   YY=           -183.0626   ZZ=           -141.9724
   XY=              2.3777   XZ=            -21.0386   YZ=              3.7090

  Exact polarizability: 321.962  38.186 392.076 -20.260 -69.022 338.259
 Approx polarizability: 339.873  23.910 468.853 -23.498 -74.798 365.577

                      1                      2                      3
                      A                      A                      A
 Frequencies --     20.0449                33.5287                39.3818
 Red. masses --      5.7484                 2.9853                 5.9688
 Frc consts  --      0.0014                 0.0020                 0.0055
 IR Inten    --      5.4752                 0.2470                 4.5611

                      4                      5                      6
                      A                      A                      A
 Frequencies --     44.6806                68.0651                83.4814
 Red. masses --      4.2672                 6.0967                 4.8342
 Frc consts  --      0.0050                 0.0166                 0.0198
 IR Inten    --      1.2717                 1.6045                 5.7081

                      7                      8                      9
                      A                      A                      A
 Frequencies --    111.9450               140.6261               150.7549
 Red. masses --      6.2204                 6.9507                 7.4205
 Frc consts  --      0.0459                 0.0810                 0.0994
 IR Inten    --      9.0329                 9.5429                 2.1447

                     10                     11                     12
                      A                      A                      A
 Frequencies --    168.5570               181.7742               200.4669
 Red. masses --      6.4394                 7.6465                 1.1635
 Frc consts  --      0.1078                 0.1489                 0.0275
 IR Inten    --      7.0077                 1.6259                 0.7251

                     13                     14                     15
                      A                      A                      A
 Frequencies --    211.8888               226.0267               241.8707
 Red. masses --      6.3733                 2.9575                 1.5658
 Frc consts  --      0.1686                 0.0890                 0.0540
 IR Inten    --      8.8700                 2.6855                 0.1258

                     16                     17                     18
                      A                      A                      A
 Frequencies --    245.4844               264.4408               278.8183
 Red. masses --      3.3083                 2.8442                 1.3149
 Frc consts  --      0.1175                 0.1172                 0.0602
 IR Inten    --      0.7309                 4.3182                 2.7639

                     19                     20                     21
                      A                      A                      A
 Frequencies --    286.4515               296.4789               307.7283
 Red. masses --      9.3526                 2.5170                 7.4127
 Frc consts  --      0.4522                 0.1304                 0.4136
 IR Inten    --      0.1703                18.4366                 8.3215

                     22                     23                     24
                      A                      A                      A
 Frequencies --    314.0518               349.7477               363.3681
 Red. masses --      6.1700                 4.8179                 2.8308
 Frc consts  --      0.3585                 0.3472                 0.2202
 IR Inten    --      0.6775                 2.4347                 2.1819

                     25                     26                     27
                      A                      A                      A
 Frequencies --    373.6484               392.7347               411.8161
 Red. masses --      2.4273                 5.3708                 2.8840
 Frc consts  --      0.1997                 0.4881                 0.2882
 IR Inten    --      5.7050                14.6379                 0.6612

                     28                     29                     30
                      A                      A                      A
 Frequencies --    431.9379               448.0619               471.8687
 Red. masses --      3.6547                 9.2387                 5.8197
 Frc consts  --      0.4017                 1.0928                 0.7635
 IR Inten    --      2.8280                24.1738                25.4992

                     31                     32                     33
                      A                      A                      A
 Frequencies --    491.5552               509.7347               548.8133
 Red. masses --      7.5511                 6.2615                 5.3227
 Frc consts  --      1.0750                 0.9586                 0.9446
 IR Inten    --     10.9628                67.8177                67.9566

                     34                     35                     36
                      A                      A                      A
 Frequencies --    571.3032               584.7583               600.3835
 Red. masses --      7.2817                 6.2323                 3.8550
 Frc consts  --      1.4003                 1.2556                 0.8187
 IR Inten    --    101.8683               180.8223                46.5458

                     37                     38                     39
                      A                      A                      A
 Frequencies --    625.9224               645.7884               702.5963
 Red. masses --      6.4509                 3.5556                 4.1629
 Frc consts  --      1.4891                 0.8737                 1.2108
 IR Inten    --      0.4123                17.0284                14.1483

                     40                     41                     42
                      A                      A                      A
 Frequencies --    704.7562               722.9929               729.1582
 Red. masses --      2.4494                 7.5800                 6.0852
 Frc consts  --      0.7168                 2.3345                 1.9062
 IR Inten    --     63.0769               110.8847                21.5100

                     43                     44                     45
                      A                      A                      A
 Frequencies --    763.7442               772.8643               808.4656
 Red. masses --      1.6564                 7.8373                 3.3639
 Frc consts  --      0.5693                 2.7582                 1.2954
 IR Inten    --     41.7695                29.2036                12.6640

                     46                     47                     48
                      A                      A                      A
 Frequencies --    841.5446               855.3896               880.8761
 Red. masses --      1.9373                 1.2461                 5.1595
 Frc consts  --      0.8083                 0.5372                 2.3588
 IR Inten    --     62.3843                 0.0745               116.6356

                     49                     50                     51
                      A                      A                      A
 Frequencies --    891.4481               931.2044               944.3334
 Red. masses --      8.8701                 1.8600                 1.3427
 Frc consts  --      4.1531                 0.9503                 0.7055
 IR Inten    --     26.6859                 2.4499                 2.0866

                     52                     53                     54
                      A                      A                      A
 Frequencies --    945.2481               967.8376               983.2093
 Red. masses --      1.6145                 1.2074                 1.2942
 Frc consts  --      0.8499                 0.6664                 0.7371
 IR Inten    --      3.8010                 0.0806                 0.4532

                     55                     56                     57
                      A                      A                      A
 Frequencies --    998.3395              1005.8851              1012.2064
 Red. masses --      1.3832                 3.5169                 5.7648
 Frc consts  --      0.8123                 2.0965                 3.4800
 IR Inten    --      0.4239                75.5617                34.8615

                     58                     59                     60
                      A                      A                      A
 Frequencies --   1018.0420              1032.4322              1036.2676
 Red. masses --      1.3216                 2.1643                 2.2824
 Frc consts  --      0.8070                 1.3592                 1.4440
 IR Inten    --      0.0395                88.6934                38.6346

                     61                     62                     63
                      A                      A                      A
 Frequencies --   1050.6929              1057.0434              1097.3222
 Red. masses --      2.0881                 2.2935                 1.6901
 Frc consts  --      1.3582                 1.5098                 1.1990
 IR Inten    --     65.1501               192.8365                43.1543

                     64                     65                     66
                      A                      A                      A
 Frequencies --   1101.9389              1108.4849              1138.1019
 Red. masses --      3.0043                 2.4245                 2.4356
 Frc consts  --      2.1493                 1.7552                 1.8588
 IR Inten    --    153.7818                26.2634                78.1674

                     67                     68                     69
                      A                      A                      A
 Frequencies --   1179.5580              1194.1302              1202.2333
 Red. masses --      1.1132                 1.1635                 9.3518
 Frc consts  --      0.9126                 0.9775                 7.9638
 IR Inten    --      0.2040                 5.8060               339.7525

                     70                     71                     72
                      A                      A                      A
 Frequencies --   1207.0747              1216.3545              1244.8998
 Red. masses --      2.7813                 2.5967                 3.0234
 Frc consts  --      2.3876                 2.2636                 2.7606
 IR Inten    --     24.1501                22.5010                19.9611

                     73                     74                     75
                      A                      A                      A
 Frequencies --   1259.3115              1318.5593              1328.9586
 Red. masses --      2.7406                 2.5620                 3.1461
 Frc consts  --      2.5607                 2.6244                 3.2738
 IR Inten    --      4.0366                13.3868                 0.5123

                     76                     77                     78
                      A                      A                      A
 Frequencies --   1343.3093              1384.0194              1391.6753
 Red. masses --      1.7423                 1.2046                 1.2164
 Frc consts  --      1.8524                 1.3595                 1.3880
 IR Inten    --      5.9372                12.5446                23.3679

                     79                     80                     81
                      A                      A                      A
 Frequencies --   1407.8788              1418.6433              1446.9024
 Red. masses --      3.4104                 1.2300                 7.4180
 Frc consts  --      3.9827                 1.4585                 9.1499
 IR Inten    --    159.2275                14.6577               302.3718

                     82                     83                     84
                      A                      A                      A
 Frequencies --   1468.3824              1473.8717              1480.3616
 Red. masses --      1.0715                 2.1213                 1.0519
 Frc consts  --      1.3612                 2.7151                 1.3581
 IR Inten    --      3.3805                22.5245                 9.4181

                     85                     86                     87
                      A                      A                      A
 Frequencies --   1484.6978              1489.1244              1497.9526
 Red. masses --      1.0638                 1.0513                 1.0630
 Frc consts  --      1.3816                 1.3736                 1.4053
 IR Inten    --      2.0494                 2.1762                21.8986

                     88                     89                     90
                      A                      A                      A
 Frequencies --   1505.8428              1507.4213              1513.5207
 Red. masses --      2.1001                 5.9778                 1.0650
 Frc consts  --      2.8058                 8.0031                 1.4374
 IR Inten    --     15.2320               113.2369                47.3694

                     91                     92                     93
                      A                      A                      A
 Frequencies --   1532.6302              1618.1094              1623.2075
 Red. masses --      7.6217                 5.3936                 5.8793
 Frc consts  --     10.5482                 8.3204                 9.1268
 IR Inten    --    781.5769                 0.8176                 0.7717

                     94                     95                     96
                      A                      A                      A
 Frequencies --   1633.2572              1724.7139              3026.4707
 Red. masses --      7.2045                12.6245                 1.0360
 Frc consts  --     11.3230                22.1257                 5.5912
 IR Inten    --     38.5748               341.1244                41.6078

                     97                     98                     99
                      A                      A                      A
 Frequencies --   3028.5950              3035.2202              3087.4237
 Red. masses --      1.0366                 1.0377                 1.1012
 Frc consts  --      5.6020                 5.6326                 6.1844
 IR Inten    --     31.7384                77.5249                51.8177

                    100                    101                    102
                      A                      A                      A
 Frequencies --   3092.6308              3098.4126              3105.6162
 Red. masses --      1.1008                 1.0988                 1.1017
 Frc consts  --      6.2031                 6.2148                 6.2607
 IR Inten    --     16.3910                65.2887                30.3952

                    103                    104                    105
                      A                      A                      A
 Frequencies --   3124.1854              3125.9323              3160.5678
 Red. masses --      1.1007                 1.1016                 1.0865
 Frc consts  --      6.3297                 6.3423                 6.3947
 IR Inten    --     24.4718                25.3960                16.4495

                    106                    107                    108
                      A                      A                      A
 Frequencies --   3173.7959              3178.5602              3182.6607
 Red. masses --      1.0865                 1.0963                 1.0891
 Frc consts  --      6.4484                 6.5260                 6.4998
 IR Inten    --      0.3826                21.5954                10.4310

                    109                    110                    111
                      A                      A                      A
 Frequencies --   3190.1522              3197.8225              3211.1549
 Red. masses --      1.0931                 1.0971                 1.0934
 Frc consts  --      6.5544                 6.6100                 6.6431
 IR Inten    --     11.9966                15.2557                 6.8017

 - Thermochemistry -
 -------------------
 Temperature   298.150 Kelvin.  Pressure   1.00000 Atm.
 Atom     1 has atomic number  6 and mass  12.00000

 Molecular mass:   332.07185 amu.
 Principal axes and moments of inertia in atomic units:
                           1         2         3
     Eigenvalues --  4358.361039471.64449**********
           X           -0.48072   0.77855  -0.40345
           Y           -0.56597   0.07595   0.82092
           Z            0.66977   0.62297   0.40412
 This molecule is an asymmetric top.
 Rotational symmetry number  1.
 Warning -- assumption of classical behavior for rotation
           may cause significant error
 Rotational temperatures (Kelvin)      0.01987     0.00914     0.00795
 Rotational constants (GHZ):           0.41409     0.19054     0.16558
 Zero-point vibrational energy     771329.5 (Joules/Mol)
                                  184.35217 (Kcal/Mol)
 Warning -- explicit consideration of  36 degrees of freedom as
           vibrations may cause significant error
 Vibrational temperatures:     28.84    48.24    56.66    64.29    97.93
          (Kelvin)            120.11   161.06   202.33   216.90   242.52
                              261.53   288.43   304.86   325.20   348.00
                              353.20   380.47   401.16   412.14   426.57
                              442.75   451.85   503.21   522.81   537.60
                              565.06   592.51   621.46   644.66   678.91
                              707.24   733.39   789.62   821.98   841.34
                              863.82   900.56   929.15  1010.88  1013.99
                             1040.23  1049.10  1098.86  1111.98  1163.20
                             1210.79  1230.71  1267.38  1282.59  1339.80
                             1358.69  1360.00  1392.50  1414.62  1436.39
                             1447.24  1456.34  1464.74  1485.44  1490.96
                             1511.71  1520.85  1578.80  1585.44  1594.86
                             1637.47  1697.12  1718.09  1729.75  1736.71
                             1750.06  1791.13  1811.87  1897.11  1912.07
                             1932.72  1991.30  2002.31  2025.62  2041.11
                             2081.77  2112.67  2120.57  2129.91  2136.15
                             2142.52  2155.22  2166.57  2168.84  2177.62
                             2205.11  2328.10  2335.43  2349.89  2481.48
                             4354.42  4357.47  4367.00  4442.11  4449.61
                             4457.92  4468.29  4495.01  4497.52  4547.35
                             4566.38  4573.24  4579.14  4589.92  4600.95
                             4620.14

 Zero-point correction=                           0.293784 (Hartree/Particle)
 Thermal correction to Energy=                    0.315692
 Thermal correction to Enthalpy=                  0.316636
 Thermal correction to Gibbs Free Energy=         0.241640
 Sum of electronic and zero-point Energies=          -1431.840174
 Sum of electronic and thermal Energies=             -1431.818266
 Sum of electronic and thermal Enthalpies=           -1431.817322
 Sum of electronic and thermal Free Energies=        -1431.892318

                     E (Thermal)             CV                S
                      KCal/Mol        Cal/Mol-Kelvin    Cal/Mol-Kelvin
 Total                  198.099             83.565            157.842
 Electronic               0.000              0.000              1.377
 Translational            0.889              2.981             43.296
 Rotational               0.889              2.981             34.464
 Vibrational            196.322             77.604             78.705
 Vibration     1          0.593              1.986              6.630
 Vibration     2          0.594              1.983              5.609
 Vibration     3          0.594              1.981              5.290
 Vibration     4          0.595              1.980              5.040
 Vibration     5          0.598              1.969              4.209
 Vibration     6          0.600              1.961              3.807
 Vibration     7          0.607              1.940              3.235
 Vibration     8          0.615              1.913              2.795
 Vibration     9          0.618              1.902              2.663
 Vibration    10          0.625              1.881              2.452
 Vibration    11          0.630              1.865              2.310
 Vibration    12          0.638              1.839              2.129
 Vibration    13          0.643              1.823              2.027
 Vibration    14          0.650              1.801              1.910
 Vibration    15          0.658              1.776              1.789
 Vibration    16          0.660              1.770              1.763
 Vibration    17          0.671              1.738              1.632
 Vibration    18          0.679              1.713              1.541
 Vibration    19          0.684              1.699              1.495
 Vibration    20          0.690              1.680              1.437
 Vibration    21          0.698              1.659              1.375
 Vibration    22          0.702              1.647              1.341
 Vibration    23          0.727              1.576              1.167
 Vibration    24          0.737              1.548              1.108
 Vibration    25          0.745              1.526              1.065
 Vibration    26          0.760              1.486              0.990
 Vibration    27          0.776              1.445              0.920
 Vibration    28          0.793              1.401              0.852
 Vibration    29          0.807              1.365              0.802
 Vibration    30          0.829              1.312              0.732
 Vibration    31          0.847              1.269              0.680
 Vibration    32          0.865              1.228              0.634
 Vibration    33          0.904              1.142              0.547
 Vibration    34          0.927              1.093              0.502
 Vibration    35          0.942              1.064              0.477
 Vibration    36          0.959              1.031              0.449

 Optimization completed.
    -- Stationary point found.
 Normal termination of Gaussian 16 at Sun Feb 11 02:22:05 2024.
