 Q-Chem 5.4, Q-Chem, Inc., Pleasanton, CA (2021)
 Q-Chem 5.4.0 for Intel X86 EM64T Linux

User input:
--------------------------------------------------------------
$molecule
-2 1
C                 -2.9562180000     -2.0586690000     -0.0354480000
C                 -2.3267830000     -0.6778730000     -0.0487510000
C                 -3.1876980000      0.3975090000     -0.0966040000
C                 -2.7053590000      1.7312010000     -0.1130150000
C                 -1.3554030000      2.0079690000     -0.0819060000
C                 -0.9558870000      3.4718260000     -0.1037540000
C                 -0.3952840000      0.9298430000     -0.0312980000
C                  1.0238770000      1.2262420000      0.0012030000
O                  1.5126110000      2.4228340000     -0.0118090000
C                  1.9020650000      0.0791010000      0.0507240000
C                  3.3061720000      0.2849610000      0.0844800000
C                  4.2045360000     -0.7612900000      0.1321560000
C                  3.7199360000     -2.1011990000      0.1485660000
C                  2.3598390000     -2.3316720000      0.1166920000
C                  1.4118790000     -1.2762080000      0.0674880000
C                  0.0027430000     -1.5970850000      0.0363670000
O                 -0.3870490000     -2.8294260000      0.0536850000
C                 -0.8988230000     -0.4623900000     -0.0139790000
H                 -2.6689540000     -2.6272600000      0.8511150000
H                 -2.6190060000     -2.6666820000     -0.8770510000
H                 -4.0518430000     -1.9548680000     -0.0693310000
H                 -4.2620180000      0.2181960000     -0.1225220000
H                 -3.4166860000      2.5555430000     -0.1510210000
H                 -0.3157270000      3.7052200000     -0.9566790000
H                 -0.3629560000      3.7439170000      0.7715380000
H                 -1.8646930000      4.0921990000     -0.1425170000
H                  3.6379300000      1.3186800000      0.0706230000
H                  5.2760770000     -0.5662970000      0.1570340000
H                  4.4190990000     -2.9358300000      0.1860730000
H                  1.9536230000     -3.3384880000      0.1279390000
$end
$rem
MAX_SCF_CYCLES=200
BASIS  =  6-311++G(d,p)
GUI  =  2
JOB_TYPE  =  SP
METHOD  =  B3LYP
SOLVENT_METHOD = PCM
$end
$pcm
theory = CPCM
$end
$solvent
dielectric 37.219
opticaldielectric 1.43
$end

--------------------------------------------------------------

             Standard Nuclear Orientation (Angstroms)
    I     Atom           X                Y                Z
 ----------------------------------------------------------------
    1      C      -2.9562180000    -2.0586690000    -0.0354480000
    2      C      -2.3267830000    -0.6778730000    -0.0487510000
    3      C      -3.1876980000     0.3975090000    -0.0966040000
    4      C      -2.7053590000     1.7312010000    -0.1130150000
    5      C      -1.3554030000     2.0079690000    -0.0819060000
    6      C      -0.9558870000     3.4718260000    -0.1037540000
    7      C      -0.3952840000     0.9298430000    -0.0312980000
    8      C       1.0238770000     1.2262420000     0.0012030000
    9      O       1.5126110000     2.4228340000    -0.0118090000
   10      C       1.9020650000     0.0791010000     0.0507240000
   11      C       3.3061720000     0.2849610000     0.0844800000
   12      C       4.2045360000    -0.7612900000     0.1321560000
   13      C       3.7199360000    -2.1011990000     0.1485660000
   14      C       2.3598390000    -2.3316720000     0.1166920000
   15      C       1.4118790000    -1.2762080000     0.0674880000
   16      C       0.0027430000    -1.5970850000     0.0363670000
   17      O      -0.3870490000    -2.8294260000     0.0536850000
   18      C      -0.8988230000    -0.4623900000    -0.0139790000
   19      H      -2.6689540000    -2.6272600000     0.8511150000
   20      H      -2.6190060000    -2.6666820000    -0.8770510000
   21      H      -4.0518430000    -1.9548680000    -0.0693310000
   22      H      -4.2620180000     0.2181960000    -0.1225220000
   23      H      -3.4166860000     2.5555430000    -0.1510210000
   24      H      -0.3157270000     3.7052200000    -0.9566790000
   25      H      -0.3629560000     3.7439170000     0.7715380000
   26      H      -1.8646930000     4.0921990000    -0.1425170000
   27      H       3.6379300000     1.3186800000     0.0706230000
   28      H       5.2760770000    -0.5662970000     0.1570340000
   29      H       4.4190990000    -2.9358300000     0.1860730000
   30      H       1.9536230000    -3.3384880000     0.1279390000
 ----------------------------------------------------------------

    8    -767.8272984397      5.52e-06  Convergence criterion met
 Total energy in the final basis set =     -767.8272984397

                    Orbital Energies (a.u.)
 --------------------------------------------------------------

 Alpha MOs
 -- Occupied --
-19.0140 -19.0139 -10.1732 -10.1732 -10.1535 -10.1535 -10.1486 -10.1482
-10.1447 -10.1446 -10.1402 -10.1398 -10.1370 -10.1369 -10.1367 -10.1362
-10.1337 -10.1333  -0.9354  -0.9319  -0.8249  -0.8201  -0.7568  -0.7495
 -0.7211  -0.7014  -0.6856  -0.6462  -0.6155  -0.5983  -0.5865  -0.5424
 -0.5088  -0.5036  -0.4752  -0.4423  -0.4309  -0.4286  -0.4245  -0.4001
 -0.3979  -0.3870  -0.3823  -0.3771  -0.3669  -0.3659  -0.3657  -0.3543
 -0.3448  -0.3349  -0.3221  -0.3181  -0.3125  -0.3107  -0.2982  -0.2968
 -0.2286  -0.2214  -0.2140  -0.2129  -0.1944  -0.1890  -0.1031

          Ground-State Mulliken Net Atomic Charges

     Atom                 Charge (a.u.)
  ----------------------------------------
      1 C                    -0.345955
      2 C                     0.820227
      3 C                    -0.473920
      4 C                    -0.482259
      5 C                     0.823748
      6 C                    -0.345704
      7 C                     0.151747
      8 C                    -0.887259
      9 O                    -0.644816
     10 C                     0.085992
     11 C                    -0.010135
     12 C                    -0.567357
     13 C                    -0.570700
     14 C                    -0.009172
     15 C                     0.088634
     16 C                    -0.882235
     17 O                    -0.644258
     18 C                     0.145876
     19 H                     0.149062
     20 H                     0.149039
     21 H                     0.130616
     22 H                     0.124130
     23 H                     0.123612
     24 H                     0.148948
     25 H                     0.149064
     26 H                     0.130630
     27 H                     0.149576
     28 H                     0.171738
     29 H                     0.171387
     30 H                     0.149744
  ----------------------------------------
  Sum of atomic charges =    -2.000000

                    Cartesian Multipole Moments
 -----------------------------------------------------------------
    Charge (ESU x 10^10)
                -9.6064
    Dipole Moment (Debye)
         X      -4.7900      Y       1.7235      Z      -0.1782
       Tot       5.0937
    Quadrupole Moments (Debye-Ang)
        XX    -140.5625     XY     -10.0757     YY    -164.7282
        XZ      -0.3732     YZ       0.7481     ZZ    -118.9962

 Total job time:  87.81s(wall), 376.11s(cpu)
        *  Thank you very much for using Q-Chem.  Have a nice day.  *
