 Gaussian 16, Revision A.03,
 Gaussian 16:  ES64L-G16RevA.03 25-Dec-2016

 ----------------------------------------------------------------------
 #P UB3LYP/6-311++G(d,p) nosym opt freq SCRF=(PCM,Solvent=n,n-DiMethylF
 ormamide)
 ----------------------------------------------------------------------

 --------
 Oxidized
 --------
 Symbolic Z-matrix:
 Charge =  0 Multiplicity = 1

 SCF Done:  E(UB3LYP) =  -460.235359545     A.U. after   13 cycles
 SCF Done:  E(UB3LYP) =  -460.235441929     A.U. after   10 cycles
 SCF Done:  E(UB3LYP) =  -460.235451867     A.U. after   10 cycles
 SCF Done:  E(UB3LYP) =  -460.235452287     A.U. after    8 cycles
 Optimization completed.
    -- Stationary point found.
 Normal termination of Gaussian 16 at Sat Feb 10 10:04:57 2024.

 ----------------------------------------------------------------------
 #P Geom=AllCheck Guess=TCheck SCRF=Check GenChk UB3LYP/6-311++G(d,p) F
 req
 ----------------------------------------------------------------------

 Structure from the checkpoint file:  "038.chk"
 --------
 Oxidized
 --------
 Charge =  0 Multiplicity = 1

                          Input orientation:
 ---------------------------------------------------------------------
 Center     Atomic      Atomic             Coordinates (Angstroms)
 Number     Number       Type             X           Y           Z
 ---------------------------------------------------------------------
      1          6           0        2.947758    0.255180   -0.077111
      2          6           0        1.464119    0.074274   -0.008278
      3          6           0        0.862516   -0.975396    0.577698
      4          6           0       -0.603828   -1.130988    0.633022
      5          8           0       -1.108146   -2.106059    1.177997
      6          6           0       -1.464122   -0.074192    0.008421
      7          6           0       -0.862520    0.975483   -0.577548
      8          6           0        0.603816    1.131268   -0.632532
      9          8           0        1.108148    2.106041   -1.178030
     10          6           0       -2.947754   -0.255252    0.076985
     11          1           0        3.464011   -0.572390    0.409204
     12          1           0        3.243637    1.191298    0.404747
     13          1           0        3.279554    0.319609   -1.117216
     14          1           0        1.433877   -1.770591    1.044977
     15          1           0       -1.433876    1.770560   -1.045032
     16          1           0       -3.279765   -0.319456    1.117036
     17          1           0       -3.464001    0.572138   -0.409643
     18          1           0       -3.243424   -1.191525   -0.404698
 ---------------------------------------------------------------------

 SCF Done:  E(UB3LYP) =  -460.235452287     A.U. after    1 cycles

 Alpha  occ. eigenvalues --  -19.14163 -19.14162 -10.28568 -10.28567 -10.22104
 Alpha  occ. eigenvalues --  -10.22103 -10.20341 -10.20340 -10.17932 -10.17932
 Alpha  occ. eigenvalues --   -1.07089  -1.06898  -0.86892  -0.82056  -0.74055
 Alpha  occ. eigenvalues --   -0.72736  -0.66746  -0.62863  -0.58068  -0.53295
 Alpha  occ. eigenvalues --   -0.49797  -0.48259  -0.46394  -0.45004  -0.43890
 Alpha  occ. eigenvalues --   -0.43883  -0.42859  -0.41005  -0.40720  -0.40221
 Alpha  occ. eigenvalues --   -0.39851  -0.38867  -0.30570  -0.29154  -0.28613
 Alpha  occ. eigenvalues --   -0.27974
 Alpha virt. eigenvalues --   -0.13414  -0.02562  -0.00626  -0.00345   0.00408
 Alpha virt. eigenvalues --    0.01290   0.02723   0.03317   0.03423   0.04297
 Alpha virt. eigenvalues --    0.05184   0.05728   0.06129   0.06982   0.07986

  Beta  occ. eigenvalues --  -19.14163 -19.14162 -10.28568 -10.28567 -10.22104
  Beta  occ. eigenvalues --  -10.22103 -10.20341 -10.20340 -10.17932 -10.17932
  Beta  occ. eigenvalues --   -1.07089  -1.06898  -0.86892  -0.82056  -0.74055
  Beta  occ. eigenvalues --   -0.72736  -0.66746  -0.62863  -0.58068  -0.53295
  Beta  occ. eigenvalues --   -0.49797  -0.48259  -0.46394  -0.45004  -0.43890
  Beta  occ. eigenvalues --   -0.43883  -0.42859  -0.41005  -0.40720  -0.40221
  Beta  occ. eigenvalues --   -0.39851  -0.38867  -0.30570  -0.29154  -0.28613
  Beta  occ. eigenvalues --   -0.27974
  Beta virt. eigenvalues --   -0.13414  -0.02562  -0.00626  -0.00345   0.00408
  Beta virt. eigenvalues --    0.01290   0.02723   0.03317   0.03423   0.04297
  Beta virt. eigenvalues --    0.05184   0.05728   0.06129   0.06982   0.07986

 Mulliken charges and spin densities:
               1          2
     1  C   -0.364686  -0.000000
     2  C    1.246209  -0.000000
     3  C   -0.610406   0.000000
     4  C   -0.745660  -0.000000
     5  O   -0.281072  -0.000000
     6  C    1.246205  -0.000000
     7  C   -0.610407  -0.000000
     8  C   -0.745666   0.000000
     9  O   -0.281072  -0.000000
    10  C   -0.364688   0.000000
    11  H    0.169990   0.000000
    12  H    0.188873  -0.000000
    13  H    0.189132  -0.000000
    14  H    0.207626   0.000000
    15  H    0.207627   0.000000
    16  H    0.189140   0.000000
    17  H    0.169991  -0.000000
    18  H    0.188865   0.000000
 Sum of Mulliken charges =  -0.00000   0.00000

 Dipole moment (field-independent basis, Debye):
    X=             -0.0000    Y=              0.0003    Z=              0.0006  Tot=              0.0007
 Quadrupole moment (field-independent basis, Debye-Ang):
   XX=            -50.0272   YY=            -71.8806   ZZ=            -62.4671
   XY=             -8.9721   XZ=              5.3167   YZ=              7.5741

  Exact polarizability: 152.256  37.896 158.944 -19.905 -46.106 102.621
 Approx polarizability: 162.714  61.309 210.159 -33.340 -67.593 127.262

                      1                      2                      3
                      A                      A                      A
 Frequencies --     65.6591               130.8993               131.1903
 Red. masses --      5.9601                 1.4640                 1.3369
 Frc consts  --      0.0151                 0.0148                 0.0136
 IR Inten    --     18.1843                 0.0125                 0.0000

                      4                      5                      6
                      A                      A                      A
 Frequencies --    164.5154               183.1302               280.5125
 Red. masses --      1.7785                 2.2751                 2.6767
 Frc consts  --      0.0284                 0.0450                 0.1241
 IR Inten    --      2.9012                 0.0000                 2.7363

                      7                      8                      9
                      A                      A                      A
 Frequencies --    294.6197               352.9323               394.6845
 Red. masses --      3.6470                 3.7217                 2.9031
 Frc consts  --      0.1865                 0.2731                 0.2665
 IR Inten    --      0.0000                 0.0000                 2.0064

                     10                     11                     12
                      A                      A                      A
 Frequencies --    402.0221               402.0374               494.7195
 Red. masses --      5.7020                 9.9089                 9.1543
 Frc consts  --      0.5430                 0.9436                 1.3201
 IR Inten    --      0.0377                40.7300                 0.0000

                     13                     14                     15
                      A                      A                      A
 Frequencies --    617.3678               665.8346               670.3070
 Red. masses --      3.7160                 6.1905                 3.1053
 Frc consts  --      0.8345                 1.6170                 0.8221
 IR Inten    --      0.0000                 0.0004                 8.9004

                     16                     17                     18
                      A                      A                      A
 Frequencies --    707.8966               784.2028               805.1134
 Red. masses --      5.2779                 6.0591                 2.7655
 Frc consts  --      1.5583                 2.1954                 1.0562
 IR Inten    --      6.4236                 0.0000                18.2814

                     19                     20                     21
                      A                      A                      A
 Frequencies --    860.9030               928.2251              1013.8773
 Red. masses --      1.2333                 1.5760                 1.7233
 Frc consts  --      0.5385                 0.8000                 1.0437
 IR Inten    --      0.0000                71.2882                91.6942

                     22                     23                     24
                      A                      A                      A
 Frequencies --   1024.3957              1050.1608              1058.4744
 Red. masses --      1.5703                 1.5116                 1.5576
 Frc consts  --      0.9709                 0.9822                 1.0282
 IR Inten    --      0.0000                 0.0000                 8.7892

                     25                     26                     27
                      A                      A                      A
 Frequencies --   1100.0047              1168.9688              1241.2197
 Red. masses --      4.4920                 2.4807                 1.5012
 Frc consts  --      3.2024                 1.9973                 1.3627
 IR Inten    --      0.0000               118.4019                 0.0000

                     28                     29                     30
                      A                      A                      A
 Frequencies --   1262.1472              1363.5074              1368.9010
 Red. masses --      3.9784                 2.0426                 2.8360
 Frc consts  --      3.7341                 2.2374                 3.1311
 IR Inten    --    148.9944                59.1930                 0.0000

                     31                     32                     33
                      A                      A                      A
 Frequencies --   1407.0541              1409.7303              1458.5054
 Red. masses --      1.2739                 1.3558                 1.0431
 Frc consts  --      1.4860                 1.5876                 1.3074
 IR Inten    --     30.8146                 0.0000                 0.0034

                     34                     35                     36
                      A                      A                      A
 Frequencies --   1458.7442              1469.3896              1469.7927
 Red. masses --      1.0429                 1.0665                 1.0759
 Frc consts  --      1.3076                 1.3568                 1.3694
 IR Inten    --     28.0558                 0.0003                49.5610

                     37                     38                     39
                      A                      A                      A
 Frequencies --   1658.1610              1678.4638              1682.5792
 Red. masses --      7.3129                11.4920                11.8499
 Frc consts  --     11.8466                19.0752                19.7658
 IR Inten    --    336.5844                 0.0000              1098.2983

                     40                     41                     42
                      A                      A                      A
 Frequencies --   1712.5561              3035.6160              3035.6978
 Red. masses --      7.6727                 1.0367                 1.0367
 Frc consts  --     13.2583                 5.6284                 5.6287
 IR Inten    --      0.0000                21.0198                 0.0007

                     43                     44                     45
                      A                      A                      A
 Frequencies --   3085.6335              3085.6850              3126.4003
 Red. masses --      1.0992                 1.0992                 1.1023
 Frc consts  --      6.1659                 6.1661                 6.3482
 IR Inten    --      0.0020                21.9686                33.0319

                     46                     47                     48
                      A                      A                      A
 Frequencies --   3126.5008              3174.5919              3176.5062
 Red. masses --      1.1023                 1.0922                 1.0924
 Frc consts  --      6.3485                 6.4854                 6.4940
 IR Inten    --      0.0002                14.9244                 0.0000

 - Thermochemistry -
 -------------------
 Temperature   298.150 Kelvin.  Pressure   1.00000 Atm.
 Atom     1 has atomic number  6 and mass  12.00000

 Molecular mass:   136.05243 amu.
 Principal axes and moments of inertia in atomic units:
                           1         2         3
     Eigenvalues --   777.769291632.373162387.99049
           X            0.87323  -0.48688  -0.02025
           Y            0.43155   0.75337   0.49618
           Z           -0.22632  -0.44202   0.86799
 This molecule is an asymmetric top.
 Rotational symmetry number  1.
 Warning -- assumption of classical behavior for rotation
           may cause significant error
 Rotational temperatures (Kelvin)      0.11136     0.05306     0.03627
 Rotational constants (GHZ):           2.32041     1.10559     0.75576
 Zero-point vibrational energy     366296.8 (Joules/Mol)
                                   87.54703 (Kcal/Mol)
 Warning -- explicit consideration of  13 degrees of freedom as
           vibrations may cause significant error
 Vibrational temperatures:     94.47   188.33   188.75   236.70   263.48
          (Kelvin)            403.59   423.89   507.79   567.86   578.42
                              578.44   711.79   888.25   957.99   964.42
                             1018.51  1128.29  1158.38  1238.65  1335.51
                             1458.74  1473.88  1510.95  1522.91  1582.66
                             1681.89  1785.84  1815.95  1961.78  1969.54
                             2024.44  2028.29  2098.46  2098.81  2114.12
                             2114.70  2385.72  2414.94  2420.86  2463.99
                             4367.57  4367.69  4439.54  4439.61  4498.19
                             4498.34  4567.53  4570.28

 Zero-point correction=                           0.139515 (Hartree/Particle)
 Thermal correction to Energy=                    0.149144
 Thermal correction to Enthalpy=                  0.150088
 Thermal correction to Gibbs Free Energy=         0.104696
 Sum of electronic and zero-point Energies=           -460.095937
 Sum of electronic and thermal Energies=              -460.086309
 Sum of electronic and thermal Enthalpies=            -460.085364
 Sum of electronic and thermal Free Energies=         -460.130756

                     E (Thermal)             CV                S
                      KCal/Mol        Cal/Mol-Kelvin    Cal/Mol-Kelvin
 Total                   93.589             35.243             95.535
 Electronic               0.000              0.000              0.000
 Translational            0.889              2.981             40.636
 Rotational               0.889              2.981             29.496
 Vibrational             91.812             29.281             25.403
 Vibration     1          0.597              1.971              4.279
 Vibration     2          0.612              1.922              2.933
 Vibration     3          0.612              1.922              2.929
 Vibration     4          0.623              1.886              2.497
 Vibration     5          0.631              1.863              2.296
 Vibration     6          0.680              1.710              1.531
 Vibration     7          0.689              1.684              1.447
 Vibration     8          0.729              1.569              1.153
 Vibration     9          0.762              1.482              0.982
 Vibration    10          0.768              1.466              0.955
 Vibration    11          0.768              1.466              0.955
 Vibration    12          0.850              1.262              0.671
 Vibration    13          0.977              0.995              0.421

                           ! Non-Optimized Parameters !
 Normal termination of Gaussian 16 at Sat Feb 10 10:10:51 2024.
