 Q-Chem 5.4, Q-Chem, Inc., Pleasanton, CA (2021)
 Q-Chem 5.4.0 for Intel X86 EM64T Linux

User input:
--------------------------------------------------------------
$molecule
-1 2
C                 -1.3918950000      2.0090810000     -4.7285380000
C                 -1.4307890000      0.6573880000     -5.0068000000
C                 -1.3355770000     -0.2804980000     -3.9553330000
C                 -1.2596850000      2.4767800000     -3.4020550000
C                 -1.1641050000      1.5362920000     -2.3476880000
C                 -1.2038340000      0.1574750000     -2.6527020000
C                 -1.2206870000      3.9130160000     -3.1469180000
C                 -1.0221250000      1.9613290000     -0.9589430000
C                 -1.0937010000      4.3512110000     -1.7651480000
C                 -0.9959320000      3.3908730000     -0.6885240000
C                 -1.0353090000      5.7599620000     -1.4640880000
C                 -0.8330240000      6.1609520000     -0.1426020000
C                 -0.7383700000      5.2321860000      0.8986150000
C                 -0.8416760000      3.8598700000      0.6660740000
O                 -1.2901890000      4.7154500000     -4.1345430000
O                 -0.9193960000      1.0728620000     -0.0510840000
H                 -1.4616770000      2.7520160000     -5.5139880000
H                 -1.5343190000      0.3146020000     -6.0322550000
H                 -1.3659350000     -1.3443230000     -4.1724320000
H                 -1.1275740000     -0.5380180000     -1.8255230000
H                 -0.5981350000      5.5968050000      1.9090250000
H                 -0.7631650000      7.2157800000      0.0940440000
N                 -1.1886250000      6.6926950000     -2.4705310000
N                 -0.8082370000      2.9606370000      1.7133300000
C                 -0.8947610000      8.0870510000     -2.2951990000
C                 -0.4082630000      3.3245350000      3.0433570000
H                 -1.2024650000      6.2702530000     -3.4019430000
H                 -0.7660420000      1.9885230000      1.3980530000
H                  0.1274690000      8.2719730000     -1.9215900000
H                 -1.5878160000      8.5750200000     -1.5936540000
H                 -0.9977660000      8.5888380000     -3.2600890000
H                 -1.1211140000      4.0138780000      3.5200450000
H                  0.5838700000      3.8071600000      3.0819720000
H                 -0.3680520000      2.4201270000      3.6547880000
$end
$rem
MAX_SCF_CYCLES=200
BASIS  =  6-311++G(d,p)
GUI  =  2
JOB_TYPE  =  SP
METHOD  =  B3LYP
SOLVENT_METHOD = COSMO
$end
$solvent
dielectric 37.219
opticaldielectric 1.43
$end

--------------------------------------------------------------

             Standard Nuclear Orientation (Angstroms)
    I     Atom           X                Y                Z
 ----------------------------------------------------------------
    1      C       3.2084540275    -1.3940454143    -0.0184161908
    2      C       4.4053050761    -0.7061471531    -0.0373898516
    3      C       4.4053158394     0.7060419821    -0.0369746732
    4      C       1.9736417586    -0.7080913441     0.0035988502
    5      C       1.9736547695     0.7080099546     0.0039101075
    6      C       3.2084709772     1.3939478220    -0.0176868439
    7      C       0.7288321638    -1.4693481078     0.0216762658
    8      C       0.7288614605     1.4693154371     0.0221042485
    9      C      -0.5198930681    -0.7229897991     0.0542830956
   10      C      -0.5198970293     0.7230140277     0.0544306649
   11      C      -1.7761024062    -1.4304880797     0.0575097287
   12      C      -2.9638777225    -0.6992054960     0.0079816550
   13      C      -2.9638823071     0.6992574108     0.0080244319
   14      C      -1.7761205926     1.4305315782     0.0576112443
   15      O       0.7857553583    -2.7423048638    -0.0001145627
   16      O       0.7858794667     2.7422709479     0.0004701056
   17      H       3.1766939653    -2.4769786197    -0.0192005865
   18      H       5.3459770879    -1.2489915529    -0.0527125011
   19      H       5.3460004736     1.2488728029    -0.0519524388
   20      H       3.1767241973     2.4768805595    -0.0178502290
   21      H      -3.9141603659     1.2188855957    -0.0143228027
   22      H      -3.9141576522    -1.2188328007    -0.0143619857
   23      N      -1.7968545534    -2.8096673015     0.1196239786
   24      N      -1.7968378951     2.8097316697     0.1197496821
   25      C      -2.9800151690    -3.5852698093    -0.1251161344
   26      C      -2.9797520442     3.5853939055    -0.1260856035
   27      H      -0.8664177199    -3.2235173102     0.0237460780
   28      H      -0.8663465834     3.2234694594     0.0238716663
   29      H      -3.4534217727    -3.3606972958    -1.0968091814
   30      H      -3.7463867390    -3.4339504742     0.6497267145
   31      H      -2.7104628352    -4.6438974675    -0.1172449197
   32      H      -3.7467778196     3.4342182656     0.6481231249
   33      H      -3.4523573558     3.3607970844    -1.0981691318
   34      H      -2.7101127412     4.6440010163    -0.1180697447
 ----------------------------------------------------------------

   10    -878.4042275181      5.79e-06  Convergence criterion met
 Total energy in the final basis set =     -878.4042275181
    4    -878.4857880532      6.26e-06  Convergence criterion met
 Total energy in the final basis set =     -878.4857880532

                    Orbital Energies (a.u.)
 --------------------------------------------------------------

 Alpha MOs
 -- Occupied --
-19.0753 -19.0753 -14.3031 -14.3031 -10.2236 -10.2236 -10.2041 -10.2041
-10.1870 -10.1870 -10.1706 -10.1705 -10.1701 -10.1701 -10.1693 -10.1688
-10.1671 -10.1671 -10.1601 -10.1596  -1.0033  -1.0007  -0.9243  -0.9183
 -0.8564  -0.8276  -0.7795  -0.7486  -0.7395  -0.7376  -0.6870  -0.6687
 -0.6577  -0.6252  -0.6144  -0.5762  -0.5642  -0.5307  -0.5211  -0.4989
 -0.4959  -0.4743  -0.4593  -0.4544  -0.4515  -0.4384  -0.4299  -0.4286
 -0.4209  -0.4152  -0.4143  -0.4103  -0.3951  -0.3804  -0.3790  -0.3784
 -0.3727  -0.3643  -0.3592  -0.3455  -0.3404  -0.3343  -0.3117  -0.2684
 -0.2550  -0.2505  -0.2457  -0.2395  -0.2367  -0.1821  -0.1331

 Beta MOs
 -- Occupied --
-19.0709 -19.0709 -14.3023 -14.3023 -10.2219 -10.2218 -10.2036 -10.2036
-10.1870 -10.1870 -10.1706 -10.1702 -10.1701 -10.1697 -10.1686 -10.1682
-10.1671 -10.1671 -10.1587 -10.1582  -0.9958  -0.9930  -0.9224  -0.9165
 -0.8544  -0.8258  -0.7756  -0.7466  -0.7379  -0.7359  -0.6865  -0.6640
 -0.6536  -0.6237  -0.6126  -0.5750  -0.5625  -0.5285  -0.5199  -0.4973
 -0.4949  -0.4720  -0.4582  -0.4531  -0.4505  -0.4349  -0.4282  -0.4273
 -0.4206  -0.4110  -0.4090  -0.4058  -0.3939  -0.3791  -0.3773  -0.3711
 -0.3618  -0.3615  -0.3583  -0.3441  -0.3333  -0.3291  -0.3051  -0.2535
 -0.2490  -0.2430  -0.2412  -0.2352  -0.2329  -0.1691

          Ground-State Mulliken Net Atomic Charges

     Atom                 Charge (a.u.)    Spin (a.u.)
  --------------------------------------------------------
      1 C                    -0.014247       0.021054
      2 C                    -0.566830       0.033262
      3 C                    -0.567551       0.033263
      4 C                     0.064724       0.020176
      5 C                     0.064878       0.020159
      6 C                    -0.014073       0.021050
      7 C                    -0.171743       0.098742
      8 C                    -0.171946       0.098721
      9 C                     0.341735      -0.007458
     10 C                     0.342242      -0.007456
     11 C                    -0.092291       0.045836
     12 C                    -0.289533       0.104934
     13 C                    -0.289830       0.104861
     14 C                    -0.091607       0.045920
     15 O                    -0.505579       0.154106
     16 O                    -0.505480       0.154117
     17 H                     0.174692      -0.000813
     18 H                     0.200038      -0.002732
     19 H                     0.200054      -0.002732
     20 H                     0.174748      -0.000813
     21 H                     0.200065      -0.007665
     22 H                     0.200067      -0.007668
     23 N                    -0.307771       0.039665
     24 N                    -0.308088       0.039626
     25 C                    -0.413408      -0.002804
     26 C                    -0.413534      -0.002795
     27 H                     0.395544      -0.003421
     28 H                     0.395645      -0.003418
     29 H                     0.158352       0.004472
     30 H                     0.153305       0.002698
     31 H                     0.172864      -0.000027
     32 H                     0.153375       0.002693
     33 H                     0.158373       0.004470
     34 H                     0.172813      -0.000025
  --------------------------------------------------------
  Sum of atomic charges =    -1.000000

                    Cartesian Multipole Moments
 -----------------------------------------------------------------
    Charge (ESU x 10^10)
                -4.8032
    Dipole Moment (Debye)
         X      -4.5489      Y      -0.0017      Z      -0.9027
       Tot       4.6376
    Quadrupole Moments (Debye-Ang)
        XX    -115.7168     XY       0.0037     YY    -140.3054
        XZ       1.4094     YZ      -0.0090     ZZ    -127.6600

 Total job time:  132.01s(wall), 982.85s(cpu)
        *  Thank you very much for using Q-Chem.  Have a nice day.  *
