 Q-Chem 5.4, Q-Chem, Inc., Pleasanton, CA (2021)
 Q-Chem 5.4.0 for Intel X86 EM64T Linux

User input:
--------------------------------------------------------------
$molecule
-2 1
O                 -2.1875350000     -2.0968160000      0.2074190000
C                 -1.6755620000     -0.8374440000      0.1000150000
C                 -2.4994020000      0.2712910000      0.0326640000
C                 -1.9537740000      1.5804290000     -0.0793720000
C                 -0.5857440000      1.7775510000     -0.1237860000
O                 -0.0522020000      3.0283940000     -0.2310890000
C                  0.3013150000      0.6489120000     -0.0562030000
C                  1.7337230000      0.8628440000     -0.1031810000
O                  2.2228270000      2.0956410000     -0.2080370000
C                  2.5284030000     -0.2867190000     -0.0320360000
C                  1.9849660000     -1.5904170000      0.0795050000
C                  0.6084480000     -1.8365900000      0.1277660000
O                  0.0767580000     -3.0519500000      0.2322550000
C                 -0.2486360000     -0.6705560000      0.0567400000
H                 -1.3161370000     -2.6979760000      0.2347800000
H                 -3.5765850000      0.1236840000      0.0669960000
H                 -2.6078400000      2.4480040000     -0.1318720000
H                  0.9874620000      2.8351790000     -0.2384170000
H                  3.6091320000     -0.1517300000     -0.0654340000
H                  2.6503830000     -2.4517290000      0.1312870000
$end
$rem
MAX_SCF_CYCLES=200
BASIS  =  6-311++G(d,p)
GUI  =  2
JOB_TYPE  =  SP
METHOD  =  B3LYP
SOLVENT_METHOD = PCM
$end
$pcm
theory = CPCM
$end
$solvent
dielectric 37.219
opticaldielectric 1.43
$end

--------------------------------------------------------------

             Standard Nuclear Orientation (Angstroms)
    I     Atom           X                Y                Z
 ----------------------------------------------------------------
    1      O      -2.1875350000    -2.0968160000     0.2074190000
    2      C      -1.6755620000    -0.8374440000     0.1000150000
    3      C      -2.4994020000     0.2712910000     0.0326640000
    4      C      -1.9537740000     1.5804290000    -0.0793720000
    5      C      -0.5857440000     1.7775510000    -0.1237860000
    6      O      -0.0522020000     3.0283940000    -0.2310890000
    7      C       0.3013150000     0.6489120000    -0.0562030000
    8      C       1.7337230000     0.8628440000    -0.1031810000
    9      O       2.2228270000     2.0956410000    -0.2080370000
   10      C       2.5284030000    -0.2867190000    -0.0320360000
   11      C       1.9849660000    -1.5904170000     0.0795050000
   12      C       0.6084480000    -1.8365900000     0.1277660000
   13      O       0.0767580000    -3.0519500000     0.2322550000
   14      C      -0.2486360000    -0.6705560000     0.0567400000
   15      H      -1.3161370000    -2.6979760000     0.2347800000
   16      H      -3.5765850000     0.1236840000     0.0669960000
   17      H      -2.6078400000     2.4480040000    -0.1318720000
   18      H       0.9874620000     2.8351790000    -0.2384170000
   19      H       3.6091320000    -0.1517300000    -0.0654340000
   20      H       2.6503830000    -2.4517290000     0.1312870000
 ----------------------------------------------------------------

    9    -686.0532449389      1.15e-06  Convergence criterion met
 Total energy in the final basis set =     -686.0532449389

                    Orbital Energies (a.u.)
 --------------------------------------------------------------

 Alpha MOs
 -- Occupied --
-19.0951 -19.0949 -19.0466 -19.0465 -10.2004 -10.2004 -10.1868 -10.1868
-10.1511 -10.1507 -10.1433 -10.1428 -10.1322 -10.1318  -1.0131  -1.0114
 -0.9472  -0.9450  -0.8225  -0.7723  -0.7123  -0.7059  -0.6548  -0.6043
 -0.5818  -0.5487  -0.4887  -0.4801  -0.4758  -0.4646  -0.4407  -0.4028
 -0.4015  -0.3931  -0.3788  -0.3786  -0.3669  -0.3573  -0.3511  -0.3472
 -0.3315  -0.3211  -0.3175  -0.2773  -0.2409  -0.2286  -0.2236  -0.2186
 -0.1882  -0.1296

          Ground-State Mulliken Net Atomic Charges

     Atom                 Charge (a.u.)
  ----------------------------------------
      1 O                    -0.525273
      2 C                    -0.263006
      3 C                    -0.135066
      4 C                    -0.132563
      5 C                    -0.257996
      6 O                    -0.524151
      7 C                     0.427703
      8 C                    -0.289057
      9 O                    -0.716203
     10 C                    -0.230861
     11 C                    -0.229231
     12 C                    -0.283708
     13 O                    -0.715768
     14 C                     0.430201
     15 H                     0.388888
     16 H                     0.177401
     17 H                     0.177369
     18 H                     0.388324
     19 H                     0.156539
     20 H                     0.156458
  ----------------------------------------
  Sum of atomic charges =    -2.000000

                    Cartesian Multipole Moments
 -----------------------------------------------------------------
    Charge (ESU x 10^10)
                -9.6064
    Dipole Moment (Debye)
         X      -3.0338      Y       1.2602      Z      -0.0325
       Tot       3.2853
    Quadrupole Moments (Debye-Ang)
        XX    -115.7423     XY     -16.5575     YY    -148.4291
        XZ       1.7912     YZ       4.7548     ZZ     -91.3830

 Total job time:  295.88s(wall), 182.42s(cpu)
        *  Thank you very much for using Q-Chem.  Have a nice day.  *
