 Q-Chem 5.4, Q-Chem, Inc., Pleasanton, CA (2021)
 Q-Chem 5.4.0 for Intel X86 EM64T Linux

User input:
--------------------------------------------------------------
$molecule
-1 2
O                 -1.0928960000      1.7445260000     -1.8638000000
C                 -0.8128180000      0.8793770000     -1.0090500000
C                 -1.8276060000     -0.0190670000     -0.4667030000
C                 -1.5529050000     -0.9665370000      0.4611190000
C                 -0.2158970000     -1.1796200000      1.0073150000
O                  0.0101180000     -2.0602930000      1.8620890000
C                  0.8198550000     -0.2943730000      0.4827290000
C                  0.5347970000      0.6891780000     -0.4804430000
C                  1.5561090000      1.5436730000     -0.9811350000
N                  2.3874920000      2.2396130000     -1.3890670000
C                  2.1389110000     -0.4663620000      0.9873680000
N                  3.2129780000     -0.6064020000      1.3980900000
H                 -2.8314230000      0.1186840000     -0.8567370000
H                 -2.3267160000     -1.6223960000      0.8482260000
$end

$rem
BASIS  =  6-311++G(d,p)
GUI  =  2
JOB_TYPE  =  SP
METHOD  =  B3LYP
SCF_CONVERGENCE  = 8
SOLVENT_METHOD = sm12
$end

$smx
solvent dimethylformamide
charges CM5
$end

--------------------------------------------------------------

             Standard Nuclear Orientation (Angstroms)
    I     Atom           X                Y                Z
 ----------------------------------------------------------------
    1      O      -1.0928960000     1.7445260000    -1.8638000000
    2      C      -0.8128180000     0.8793770000    -1.0090500000
    3      C      -1.8276060000    -0.0190670000    -0.4667030000
    4      C      -1.5529050000    -0.9665370000     0.4611190000
    5      C      -0.2158970000    -1.1796200000     1.0073150000
    6      O       0.0101180000    -2.0602930000     1.8620890000
    7      C       0.8198550000    -0.2943730000     0.4827290000
    8      C       0.5347970000     0.6891780000    -0.4804430000
    9      C       1.5561090000     1.5436730000    -0.9811350000
   10      N       2.3874920000     2.2396130000    -1.3890670000
   11      C       2.1389110000    -0.4663620000     0.9873680000
   12      N       3.2129780000    -0.6064020000     1.3980900000
   13      H      -2.8314230000     0.1186840000    -0.8567370000
   14      H      -2.3267160000    -1.6223960000     0.8482260000
 ----------------------------------------------------------------

   17    -566.1975383155      8.84e-09  Convergence criterion met
 Total energy in the final basis set =     -566.2712373863

                    Orbital Energies (a.u.)
 --------------------------------------------------------------

 Alpha MOs
 -- Occupied --
-19.1118 -19.1118 -14.3360 -14.3360 -10.2644 -10.2644 -10.2373 -10.2372
-10.2366 -10.2362 -10.2018 -10.2011  -1.0402  -1.0374  -0.9396  -0.9331
 -0.8720  -0.8065  -0.7470  -0.6740  -0.6410  -0.5511  -0.5412  -0.5176
 -0.4747  -0.4589  -0.4417  -0.4218  -0.4155  -0.4123  -0.3994  -0.3966
 -0.3944  -0.3795  -0.3659  -0.3604  -0.3111  -0.2944  -0.2742  -0.2708
 -0.2029

 Beta MOs
 -- Occupied --
-19.1054 -19.1053 -14.3345 -14.3345 -10.2644 -10.2643 -10.2378 -10.2377
-10.2339 -10.2334 -10.2016 -10.2009  -1.0295  -1.0263  -0.9369  -0.9307
 -0.8652  -0.8038  -0.7371  -0.6705  -0.6381  -0.5477  -0.5383  -0.5154
 -0.4730  -0.4440  -0.4350  -0.4177  -0.4105  -0.3969  -0.3967  -0.3942
 -0.3841  -0.3670  -0.3645  -0.3594  -0.2852  -0.2795  -0.2680  -0.2646

          Ground-State Mulliken Net Atomic Charges

     Atom                 Charge (a.u.)    Spin (a.u.)
  --------------------------------------------------------
      1 O                    -0.356875       0.239336
      2 C                    -0.969088      -0.022385
      3 C                     1.451824       0.026999
      4 C                     1.453357       0.026975
      5 C                    -0.969612      -0.022235
      6 O                    -0.356687       0.239304
      7 C                     1.726047       0.218554
      8 C                     1.719481       0.218656
      9 C                    -2.263737      -0.037859
     10 N                    -0.470426       0.077359
     11 C                    -2.260298      -0.037922
     12 N                    -0.470194       0.077365
     13 H                     0.383105      -0.002075
     14 H                     0.383102      -0.002074
  --------------------------------------------------------
  Sum of atomic charges =    -1.000000

                    Cartesian Multipole Moments
 -----------------------------------------------------------------
    Charge (ESU x 10^10)
                -4.8032
    Dipole Moment (Debye)
         X      -8.5732      Y      -2.5011      Z      -0.0133
       Tot       8.9306
    Quadrupole Moments (Debye-Ang)
        XX     -97.9321     XY      -1.3993     YY     -93.6851
        XZ      -6.3025     YZ      21.5784     ZZ     -90.5090

 Total job time:  165.96s(wall), 1180.01s(cpu)
        *  Thank you very much for using Q-Chem.  Have a nice day.  *
