 Gaussian 16, Revision A.03,
 Gaussian 16:  ES64L-G16RevA.03 25-Dec-2016

 ----------------------------------------------------------------
 #P UB3LYP/6-311++G(d,p) SCRF=(PCM,Solvent=n,n-DiMethylFormamide)
 ----------------------------------------------------------------

 -------
 Reduced
 -------
 Symbolic Z-matrix:
 Charge = -2 Multiplicity = 1

                         Standard orientation:
 ---------------------------------------------------------------------
 Center     Atomic      Atomic             Coordinates (Angstroms)
 Number     Number       Type             X           Y           Z
 ---------------------------------------------------------------------
      1          6           0        4.215703    0.081454    0.017653
      2          6           0        2.727143   -0.182124    0.005978
      3          6           0        2.240622   -1.518675   -0.004599
      4          6           0        0.881825   -1.772118   -0.013423
      5          6           0       -0.078349   -0.734147   -0.002405
      6          6           0       -1.499950   -1.061127    0.000927
      7          8           0       -1.935752   -2.276018   -0.001554
      8          6           0       -2.373358    0.069868    0.005717
      9          6           0       -1.893089    1.389683   -0.000755
     10          6           0       -0.518304    1.761659   -0.006122
     11          8           0       -0.111512    2.983173   -0.003823
     12          6           0        0.401800    0.624355   -0.010496
     13          6           0        1.799677    0.846242   -0.008355
     14          6           0       -3.855766   -0.204401    0.011361
     15          1           0        4.701492   -0.326556    0.911726
     16          1           0        4.432709    1.154082   -0.010613
     17          1           0        4.731354   -0.378748   -0.844173
     18          1           0        2.950434   -2.345552   -0.001069
     19          1           0        0.499404   -2.788640   -0.018862
     20          1           0       -2.609817    2.212452    0.007078
     21          1           0        2.121719    1.884126   -0.015714
     22          1           0       -4.167494   -0.733873    0.924168
     23          1           0       -4.139118   -0.865795   -0.819095
     24          1           0       -4.430296    0.727254   -0.063329
 ---------------------------------------------------------------------

 SCF Done:  E(UB3LYP) =  -614.161262645     A.U. after   17 cycles

 The electronic state is 1-A.
 Alpha  occ. eigenvalues --  -19.01080 -19.01007 -10.16326 -10.15909 -10.15316
 Alpha  occ. eigenvalues --  -10.15288 -10.14331 -10.14154 -10.13791 -10.13676
 Alpha  occ. eigenvalues --  -10.12993 -10.12943 -10.12061 -10.11177  -0.92791
 Alpha  occ. eigenvalues --   -0.92425  -0.82409  -0.76930  -0.73885  -0.71662
 Alpha  occ. eigenvalues --   -0.67754  -0.65586  -0.61019  -0.57994  -0.54871
 Alpha  occ. eigenvalues --   -0.51305  -0.47086  -0.44914  -0.43285  -0.40684
 Alpha  occ. eigenvalues --   -0.40304  -0.39502  -0.38961  -0.38863  -0.36660
 Alpha  occ. eigenvalues --   -0.36197  -0.35349  -0.34902  -0.34303  -0.33152
 Alpha  occ. eigenvalues --   -0.31099  -0.30674  -0.29789  -0.29635  -0.22349
 Alpha  occ. eigenvalues --   -0.21594  -0.20188  -0.19242  -0.18679  -0.10339
 Alpha virt. eigenvalues --   -0.00090  -0.00020   0.00725   0.01374   0.01675
 Alpha virt. eigenvalues --    0.02544   0.03104   0.03734   0.04858   0.04879
 Alpha virt. eigenvalues --    0.04974   0.05804   0.06927   0.07164   0.07544

  Beta  occ. eigenvalues --  -19.01080 -19.01007 -10.16326 -10.15909 -10.15316
  Beta  occ. eigenvalues --  -10.15288 -10.14331 -10.14154 -10.13791 -10.13676
  Beta  occ. eigenvalues --  -10.12993 -10.12943 -10.12061 -10.11177  -0.92791
  Beta  occ. eigenvalues --   -0.92425  -0.82409  -0.76930  -0.73885  -0.71662
  Beta  occ. eigenvalues --   -0.67754  -0.65586  -0.61019  -0.57994  -0.54871
  Beta  occ. eigenvalues --   -0.51305  -0.47086  -0.44914  -0.43285  -0.40684
  Beta  occ. eigenvalues --   -0.40304  -0.39502  -0.38961  -0.38863  -0.36660
  Beta  occ. eigenvalues --   -0.36197  -0.35349  -0.34902  -0.34303  -0.33152
  Beta  occ. eigenvalues --   -0.31099  -0.30674  -0.29789  -0.29635  -0.22349
  Beta  occ. eigenvalues --   -0.21594  -0.20188  -0.19242  -0.18679  -0.10339
  Beta virt. eigenvalues --   -0.00090  -0.00020   0.00725   0.01374   0.01675
  Beta virt. eigenvalues --    0.02544   0.03104   0.03734   0.04858   0.04879
  Beta virt. eigenvalues --    0.04974   0.05804   0.06927   0.07164   0.07544

 Mulliken charges and spin densities:
               1          2
     1  C   -0.437016  -0.000000
     2  C    0.424227  -0.000000
     3  C   -0.474550   0.000000
     4  C   -0.009148  -0.000000
     5  C   -0.065368  -0.000000
     6  C   -0.565469   0.000000
     7  O   -0.700808  -0.000000
     8  C    0.705489  -0.000000
     9  C   -0.429450  -0.000000
    10  C   -0.711634   0.000000
    11  O   -0.711437   0.000000
    12  C    0.228549   0.000000
    13  C   -0.307357   0.000000
    14  C   -0.295980   0.000000
    15  H    0.149227  -0.000000
    16  H    0.156174   0.000000
    17  H    0.145000  -0.000000
    18  H    0.152561   0.000000
    19  H    0.141227  -0.000000
    20  H    0.090404   0.000000
    21  H    0.109355   0.000000
    22  H    0.135138  -0.000000
    23  H    0.138451  -0.000000
    24  H    0.132412   0.000000
 Sum of Mulliken charges =  -2.00000   0.00000

 Dipole moment (field-independent basis, Debye):
    X=              7.8313    Y=             -2.8372    Z=              0.0404  Tot=              8.3295
 Quadrupole moment (field-independent basis, Debye-Ang):
   XX=           -112.5646   YY=           -147.1615   ZZ=            -94.1516
   XY=            -13.3876   XZ=              0.0642   YZ=              0.0402

 Normal termination of Gaussian 16 at Sun Jan 21 08:47:50 2024.
