 Gaussian 16, Revision A.03,
 Gaussian 16:  ES64L-G16RevA.03 25-Dec-2016

 --------------------------------------
 #P UB3LYP/6-311++G(d,p) nosym opt freq
 --------------------------------------

 -------
 Reduced
 -------
 Symbolic Z-matrix:
 Charge = -2 Multiplicity = 1

 SCF Done:  E(UB3LYP) =  -574.528911526     A.U. after   80 cycles
 SCF Done:  E(UB3LYP) =  -574.554079663     A.U. after   36 cycles
 SCF Done:  E(UB3LYP) =  -574.557104439     A.U. after   32 cycles
 SCF Done:  E(UB3LYP) =  -574.557183765     A.U. after   29 cycles
 SCF Done:  E(UB3LYP) =  -574.557269606     A.U. after   30 cycles
 SCF Done:  E(UB3LYP) =  -574.557295316     A.U. after   28 cycles
 SCF Done:  E(UB3LYP) =  -574.557301193     A.U. after   28 cycles
 SCF Done:  E(UB3LYP) =  -574.557302331     A.U. after   25 cycles
 SCF Done:  E(UB3LYP) =  -574.557304230     A.U. after   25 cycles
 SCF Done:  E(UB3LYP) =  -574.557307741     A.U. after   28 cycles
 SCF Done:  E(UB3LYP) =  -574.557310812     A.U. after   28 cycles
 SCF Done:  E(UB3LYP) =  -574.557312642     A.U. after   28 cycles
 SCF Done:  E(UB3LYP) =  -574.557313684     A.U. after   28 cycles
 SCF Done:  E(UB3LYP) =  -574.557314024     A.U. after   27 cycles
 Optimization completed.
    -- Stationary point found.
 Normal termination of Gaussian 16 at Tue Dec 26 21:14:56 2023.

 ----------------------------------------------------------------------
 #P Geom=AllCheck Guess=TCheck SCRF=Check GenChk UB3LYP/6-311++G(d,p) F
 req
 ----------------------------------------------------------------------

 Structure from the checkpoint file:  "236-an.chk"
 -------
 Reduced
 -------
 Charge = -2 Multiplicity = 1

                          Input orientation:
 ---------------------------------------------------------------------
 Center     Atomic      Atomic             Coordinates (Angstroms)
 Number     Number       Type             X           Y           Z
 ---------------------------------------------------------------------
      1          6           0       -3.213733    0.064008    1.000597
      2          6           0       -1.856848    0.004076    0.346053
      3          6           0       -1.746736   -0.223687   -1.040078
      4          6           0       -0.525019   -0.307009   -1.760005
      5          8           0       -0.451362   -0.513139   -3.032645
      6          6           0        0.662140   -0.132686   -0.922898
      7          6           0        1.948481   -0.173637   -1.507740
      8          6           0        3.104434   -0.018553   -0.762074
      9          6           0        3.009076    0.188841    0.637601
     10          6           0        1.763670    0.241418    1.237895
     11          6           0        0.563059    0.097801    0.501013
     12          6           0       -0.719837    0.176604    1.188852
     13          8           0       -0.817729    0.382875    2.463221
     14          1           0       -4.009000   -0.186623    0.286913
     15          1           0       -3.269622   -0.624211    1.855705
     16          1           0       -3.423231    1.061485    1.416931
     17          1           0       -2.658807   -0.349068   -1.626608
     18          1           0        1.985763   -0.334472   -2.581387
     19          1           0        4.082127   -0.059369   -1.241370
     20          1           0        3.914612    0.304362    1.232985
     21          1           0        1.658561    0.400983    2.307040
 ---------------------------------------------------------------------

 SCF Done:  E(UB3LYP) =  -574.557314024     A.U. after    4 cycles

 Alpha  occ. eigenvalues --  -18.76653 -18.76500  -9.92381  -9.92096  -9.91663
 Alpha  occ. eigenvalues --   -9.91481  -9.91400  -9.90639  -9.90608  -9.89287
 Alpha  occ. eigenvalues --   -9.89226  -9.88767  -9.87592  -0.67960  -0.67549
 Alpha  occ. eigenvalues --   -0.58250  -0.53015  -0.48429  -0.48041  -0.43018
 Alpha  occ. eigenvalues --   -0.38548  -0.34194  -0.32427  -0.28069  -0.23694
 Alpha  occ. eigenvalues --   -0.22490  -0.18617  -0.18040  -0.16336  -0.15860
 Alpha  occ. eigenvalues --   -0.14582  -0.13407  -0.11812  -0.11727  -0.10113
 Alpha  occ. eigenvalues --   -0.09716  -0.07128  -0.06798  -0.06014  -0.05633
 Alpha  occ. eigenvalues --    0.01481   0.02769   0.03542   0.05652   0.06078
 Alpha  occ. eigenvalues --    0.14278
 Alpha virt. eigenvalues --    0.15890   0.17440   0.17899   0.20134   0.20964
 Alpha virt. eigenvalues --    0.21443   0.22300   0.22844   0.23467   0.25057
 Alpha virt. eigenvalues --    0.26623   0.26764   0.27891   0.28453   0.28712

  Beta  occ. eigenvalues --  -18.76653 -18.76500  -9.92381  -9.92096  -9.91663
  Beta  occ. eigenvalues --   -9.91481  -9.91400  -9.90639  -9.90608  -9.89287
  Beta  occ. eigenvalues --   -9.89226  -9.88767  -9.87592  -0.67960  -0.67549
  Beta  occ. eigenvalues --   -0.58250  -0.53015  -0.48429  -0.48041  -0.43018
  Beta  occ. eigenvalues --   -0.38548  -0.34194  -0.32427  -0.28069  -0.23694
  Beta  occ. eigenvalues --   -0.22490  -0.18617  -0.18040  -0.16336  -0.15860
  Beta  occ. eigenvalues --   -0.14582  -0.13407  -0.11812  -0.11727  -0.10113
  Beta  occ. eigenvalues --   -0.09716  -0.07128  -0.06798  -0.06014  -0.05633
  Beta  occ. eigenvalues --    0.01481   0.02769   0.03542   0.05652   0.06078
  Beta  occ. eigenvalues --    0.14278
  Beta virt. eigenvalues --    0.15890   0.17440   0.17899   0.20134   0.20964
  Beta virt. eigenvalues --    0.21443   0.22300   0.22844   0.23467   0.25057
  Beta virt. eigenvalues --    0.26623   0.26764   0.27891   0.28453   0.28712

 Mulliken charges and spin densities:
               1          2
     1  C   -0.433744   0.000000
     2  C    1.253384  -0.000000
     3  C   -0.419889  -0.000000
     4  C   -1.092290   0.000000
     5  O   -0.543736   0.000000
     6  C    0.789342  -0.000000
     7  C   -0.690612  -0.000000
     8  C    0.671096   0.000000
     9  C    0.328327   0.000000
    10  C   -0.416495   0.000000
    11  C    0.406806   0.000000
    12  C   -0.892585   0.000000
    13  O   -0.527682   0.000000
    14  H    0.085412   0.000000
    15  H    0.115294  -0.000000
    16  H    0.089124   0.000000
    17  H    0.026990  -0.000000
    18  H    0.156526   0.000000
    19  H   -0.510329  -0.000000
    20  H   -0.572731  -0.000000
    21  H    0.177790   0.000000
 Sum of Mulliken charges =  -2.00000  -0.00000

 Dipole moment (field-independent basis, Debye):
    X=             -2.8930    Y=              0.2110    Z=              1.8697  Tot=              3.4510
 Quadrupole moment (field-independent basis, Debye-Ang):
   XX=           -143.3653   YY=            -92.8628   ZZ=           -142.7391
   XY=             -1.4354   XZ=              2.6291   YZ=             -7.0732

  Exact polarizability:1873.981  80.281 171.574   1.841   5.537 900.430
 Approx polarizability:3706.895 140.419 196.760 161.114  33.446 575.671

                      1                      2                      3
                      A                      A                      A
 Frequencies --     62.3013                88.1267               136.5778
 Red. masses --      1.0550                 4.1655                 4.2917
 Frc consts  --      0.0024                 0.0191                 0.0472
 IR Inten    --      6.3627                 1.6750                 1.3321

                      4                      5                      6
                      A                      A                      A
 Frequencies --    169.9051               245.1757               254.5471
 Red. masses --      5.9665                 4.0518                 4.0852
 Frc consts  --      0.1015                 0.1435                 0.1560
 IR Inten    --      8.6918                 5.6192                 4.0462

                      7                      8                      9
                      A                      A                      A
 Frequencies --    291.4945               350.0147               363.8279
 Red. masses --      3.8405                10.9076                 6.5954
 Frc consts  --      0.1923                 0.7873                 0.5144
 IR Inten    --      1.3529                64.8229                 7.0758

                     10                     11                     12
                      A                      A                      A
 Frequencies --    412.8004               441.1956               465.4746
 Red. masses --      6.8153                 3.2581                 8.2769
 Frc consts  --      0.6842                 0.3737                 1.0566
 IR Inten    --    617.8762                28.8247               480.1181

                     13                     14                     15
                      A                      A                      A
 Frequencies --    485.3916               524.1384               639.0753
 Red. masses --      3.8164                 7.2980                 4.3208
 Frc consts  --      0.5298                 1.1813                 1.0397
 IR Inten    --      1.1331               175.3582                10.3170

                     16                     17                     18
                      A                      A                      A
 Frequencies --    642.5536               654.7328               681.7024
 Red. masses --      3.0521                 5.3499                 3.8120
 Frc consts  --      0.7424                 1.3512                 1.0437
 IR Inten    --     28.8991                 4.4026                54.9295

                     19                     20                     21
                      A                      A                      A
 Frequencies --    722.6508               773.8043               801.6899
 Red. masses --      6.0972                 3.3187                 1.3156
 Frc consts  --      1.8760                 1.1708                 0.4982
 IR Inten    --      5.8124                10.0029                37.9807

                     22                     23                     24
                      A                      A                      A
 Frequencies --    816.5790               828.9263               834.5790
 Red. masses --      3.9909                 1.7140                 1.8891
 Frc consts  --      1.5679                 0.6939                 0.7752
 IR Inten    --    140.1184                85.8938                 6.0969

                     25                     26                     27
                      A                      A                      A
 Frequencies --    947.7544               958.2350               972.5454
 Red. masses --      4.4344                 1.2078                 1.3191
 Frc consts  --      2.3468                 0.6534                 0.7351
 IR Inten    --      9.6720                 2.0291               264.8232

                     28                     29                     30
                      A                      A                      A
 Frequencies --   1004.3725              1013.3431              1033.4325
 Red. masses --      1.6983                 2.1712                 1.4555
 Frc consts  --      1.0094                 1.3136                 0.9159
 IR Inten    --    393.8841               238.9885                10.2431

                     31                     32                     33
                      A                      A                      A
 Frequencies --   1087.2093              1113.2376              1141.0380
 Red. masses --      2.3500                 1.7917                 1.8339
 Frc consts  --      1.6366                 1.3082                 1.4068
 IR Inten    --     84.8437               271.8311                28.4954

                     34                     35                     36
                      A                      A                      A
 Frequencies --   1170.7941              1214.5231              1224.8814
 Red. masses --      2.0136                 2.2218                 2.1851
 Frc consts  --      1.6262                 1.9309                 1.9315
 IR Inten    --     57.6396               100.2333               184.7780

                     37                     38                     39
                      A                      A                      A
 Frequencies --   1280.5089              1327.6158              1363.3270
 Red. masses --      2.0191                 8.4734                 1.6216
 Frc consts  --      1.9506                 8.7994                 1.7758
 IR Inten    --    184.5897              1342.0678               139.6237

                     40                     41                     42
                      A                      A                      A
 Frequencies --   1386.3196              1412.2923              1415.4096
 Red. masses --      3.7712                 6.2338                 2.8276
 Frc consts  --      4.2703                 7.3257                 3.3376
 IR Inten    --    667.7757              1135.3475              1457.7004

                     43                     44                     45
                      A                      A                      A
 Frequencies --   1447.4861              1449.7747              1470.0841
 Red. masses --      1.5507                 1.5068                 1.6006
 Frc consts  --      1.9142                 1.8660                 2.0380
 IR Inten    --    121.7496                64.4367              1332.0304

                     46                     47                     48
                      A                      A                      A
 Frequencies --   1502.0194              1519.7851              1562.3669
 Red. masses --      1.8858                 4.6990                 5.5972
 Frc consts  --      2.5066                 6.3946                 8.0498
 IR Inten    --    756.8949               304.2335              3203.7042

                     49                     50                     51
                      A                      A                      A
 Frequencies --   1587.5922              2944.0529              2968.1051
 Red. masses --      5.3946                 1.0573                 1.0731
 Frc consts  --      8.0111                 5.3991                 5.5700
 IR Inten    --    108.8325              1030.4559               977.2962

                     52                     53                     54
                      A                      A                      A
 Frequencies --   3024.4812              3076.7527              3081.7381
 Red. masses --      1.0998                 1.0861                 1.0837
 Frc consts  --      5.9277                 6.0577                 6.0638
 IR Inten    --     34.2672               510.1950               718.9827

                     55                     56                     57
                      A                      A                      A
 Frequencies --   3107.3014              3150.0103              3152.5668
 Red. masses --      1.0909                 1.0902                 1.0908
 Frc consts  --      6.2057                 6.3734                 6.3871
 IR Inten    --     80.1468                14.0034                63.7944

 - Thermochemistry -
 -------------------
 Temperature   298.150 Kelvin.  Pressure   1.00000 Atm.
 Atom     1 has atomic number  6 and mass  12.00000

 Molecular mass:   172.05243 amu.
 Principal axes and moments of inertia in atomic units:
                           1         2         3
     Eigenvalues --  1474.295212296.686803759.91098
           X            0.96514   0.25998  -0.03017
           Y           -0.01306   0.16296   0.98655
           Z           -0.26140   0.95176  -0.16068
 This molecule is an asymmetric top.
 Rotational symmetry number  1.
 Warning -- assumption of classical behavior for rotation
           may cause significant error
 Rotational temperatures (Kelvin)      0.05875     0.03771     0.02304
 Rotational constants (GHZ):           1.22414     0.78580     0.48000
 Zero-point vibrational energy     405523.4 (Joules/Mol)
                                   96.92242 (Kcal/Mol)
 Warning -- explicit consideration of  14 degrees of freedom as
           vibrations may cause significant error
 Vibrational temperatures:     89.64   126.79   196.50   244.46   352.75
          (Kelvin)            366.24   419.40   503.59   523.47   593.93
                              634.78   669.71   698.37   754.12   919.49
                              924.49   942.01   980.82  1039.73  1113.33
                             1153.45  1174.88  1192.64  1200.77  1363.61
                             1378.69  1399.28  1445.07  1457.97  1486.88
                             1564.25  1601.70  1641.70  1684.51  1747.43
                             1762.33  1842.37  1910.14  1961.52  1994.60
                             2031.97  2036.46  2082.61  2085.90  2115.12
                             2161.07  2186.63  2247.90  2284.19  4235.84
                             4270.44  4351.55  4426.76  4433.93  4470.71
                             4532.16  4535.84

 Zero-point correction=                           0.154456 (Hartree/Particle)
 Thermal correction to Energy=                    0.164957
 Thermal correction to Enthalpy=                  0.165901
 Thermal correction to Gibbs Free Energy=         0.118171
 Sum of electronic and zero-point Energies=           -574.402858
 Sum of electronic and thermal Energies=              -574.392357
 Sum of electronic and thermal Enthalpies=            -574.391413
 Sum of electronic and thermal Free Energies=         -574.439143

                     E (Thermal)             CV                S
                      KCal/Mol        Cal/Mol-Kelvin    Cal/Mol-Kelvin
 Total                  103.512             41.296            100.457
 Electronic               0.000              0.000              0.000
 Translational            0.889              2.981             41.335
 Rotational               0.889              2.981             30.921
 Vibrational            101.735             35.334             28.201
 Vibration     1          0.597              1.972              4.383
 Vibration     2          0.601              1.958              3.701
 Vibration     3          0.614              1.917              2.851
 Vibration     4          0.625              1.880              2.437
 Vibration     5          0.660              1.771              1.765
 Vibration     6          0.665              1.755              1.699
 Vibration     7          0.687              1.690              1.465
 Vibration     8          0.727              1.575              1.166
 Vibration     9          0.737              1.547              1.106
 Vibration    10          0.777              1.442              0.917
 Vibration    11          0.801              1.380              0.823
 Vibration    12          0.823              1.327              0.750
 Vibration    13          0.841              1.282              0.696
 Vibration    14          0.879              1.197              0.600

 Optimization completed.
    -- Stationary point found.
 Normal termination of Gaussian 16 at Tue Dec 26 21:31:46 2023.
