 Gaussian 16, Revision A.03,
 Gaussian 16:  ES64L-G16RevA.03 25-Dec-2016

 ----------------------------------------------------------------
 #P UB3LYP/6-311++G(d,p) SCRF=(PCM,Solvent=n,n-DiMethylFormamide)
 ----------------------------------------------------------------

 -------
 Reduced
 -------
 Symbolic Z-matrix:
 Charge = -2 Multiplicity = 1

                         Standard orientation:
 ---------------------------------------------------------------------
 Center     Atomic      Atomic             Coordinates (Angstroms)
 Number     Number       Type             X           Y           Z
 ---------------------------------------------------------------------
      1          6           0       -0.402463   -1.469968    0.193694
      2          6           0       -1.611683   -0.697502    0.084680
      3          6           0       -1.611592    0.697497   -0.084686
      4          6           0       -0.402299    1.469841   -0.193949
      5          6           0        0.800526    0.693556   -0.097630
      6          6           0        0.800444   -0.693760    0.097629
      7          8           0       -0.391310   -2.758781    0.381867
      8          8           0       -0.391009    2.758598   -0.382421
      9          8           0        2.036321   -1.325571    0.273408
     10          6           0        2.338094   -2.280181   -0.729231
     11          6           0       -2.911216   -1.459912    0.200113
     12          6           0       -2.911034    1.460113   -0.199947
     13          1           0        1.551144   -3.039922   -0.779209
     14          1           0        3.294540   -2.743521   -0.451425
     15          1           0        2.458393   -1.792711   -1.711576
     16          8           0        2.036529    1.325256   -0.272911
     17          6           0        2.337593    2.280577    0.729275
     18          1           0        1.551255    3.041084    0.777235
     19          1           0        3.294986    2.742641    0.452617
     20          1           0        2.455704    1.794033    1.712345
     21          1           0       -2.673739   -2.520807    0.316329
     22          1           0       -3.556544   -1.333704   -0.684015
     23          1           0       -3.514273   -1.140326    1.067286
     24          1           0       -3.555813    1.334932    0.684753
     25          1           0       -3.514757    1.139877   -1.066396
     26          1           0       -2.673344    2.520848   -0.317181
 ---------------------------------------------------------------------

 SCF Done:  E(UB3LYP) =  -689.575012200     A.U. after   17 cycles

 The electronic state is 1-A.
 Alpha  occ. eigenvalues --  -19.10601 -19.10600 -19.00482 -19.00481 -10.18713
 Alpha  occ. eigenvalues --  -10.18711 -10.16431 -10.16381 -10.15726 -10.15725
 Alpha  occ. eigenvalues --  -10.13083 -10.13082 -10.11724 -10.11674  -1.02474
 Alpha  occ. eigenvalues --   -1.00744  -0.91602  -0.91317  -0.77865  -0.73118
 Alpha  occ. eigenvalues --   -0.69100  -0.67447  -0.66222  -0.60808  -0.60223
 Alpha  occ. eigenvalues --   -0.52667  -0.51723  -0.47454  -0.45475  -0.44963
 Alpha  occ. eigenvalues --   -0.43817  -0.42163  -0.41571  -0.40541  -0.39828
 Alpha  occ. eigenvalues --   -0.37604  -0.36697  -0.35580  -0.35317  -0.34977
 Alpha  occ. eigenvalues --   -0.33762  -0.32497  -0.32261  -0.30601  -0.30377
 Alpha  occ. eigenvalues --   -0.29630  -0.25415  -0.25105  -0.20838  -0.18591
 Alpha  occ. eigenvalues --   -0.18315  -0.17883  -0.10700
 Alpha virt. eigenvalues --   -0.00223   0.00935   0.01313   0.02379   0.03168
 Alpha virt. eigenvalues --    0.03590   0.03967   0.04031   0.04528   0.04738
 Alpha virt. eigenvalues --    0.05443   0.06142   0.06620   0.07354   0.07465

  Beta  occ. eigenvalues --  -19.10601 -19.10600 -19.00482 -19.00481 -10.18713
  Beta  occ. eigenvalues --  -10.18711 -10.16431 -10.16381 -10.15726 -10.15725
  Beta  occ. eigenvalues --  -10.13083 -10.13082 -10.11724 -10.11674  -1.02474
  Beta  occ. eigenvalues --   -1.00744  -0.91602  -0.91317  -0.77865  -0.73118
  Beta  occ. eigenvalues --   -0.69100  -0.67447  -0.66222  -0.60808  -0.60223
  Beta  occ. eigenvalues --   -0.52667  -0.51723  -0.47454  -0.45475  -0.44963
  Beta  occ. eigenvalues --   -0.43817  -0.42163  -0.41571  -0.40541  -0.39828
  Beta  occ. eigenvalues --   -0.37604  -0.36697  -0.35580  -0.35317  -0.34977
  Beta  occ. eigenvalues --   -0.33762  -0.32497  -0.32261  -0.30601  -0.30377
  Beta  occ. eigenvalues --   -0.29630  -0.25415  -0.25105  -0.20838  -0.18591
  Beta  occ. eigenvalues --   -0.18315  -0.17883  -0.10700
  Beta virt. eigenvalues --   -0.00223   0.00935   0.01313   0.02379   0.03168
  Beta virt. eigenvalues --    0.03590   0.03967   0.04031   0.04528   0.04738
  Beta virt. eigenvalues --    0.05443   0.06142   0.06620   0.07354   0.07465

 Mulliken charges and spin densities:
               1          2
     1  C   -0.749552   0.000000
     2  C    0.650048   0.000000
     3  C    0.650470   0.000000
     4  C   -0.749833   0.000000
     5  C   -0.096953  -0.000000
     6  C   -0.095518   0.000000
     7  O   -0.716751   0.000000
     8  O   -0.716694  -0.000000
     9  O   -0.219031  -0.000000
    10  C   -0.242335   0.000000
    11  C   -0.459813  -0.000000
    12  C   -0.459822  -0.000000
    13  H    0.170737   0.000000
    14  H    0.135712  -0.000000
    15  H    0.110421  -0.000000
    16  O   -0.219079   0.000000
    17  C   -0.242203   0.000000
    18  H    0.170739  -0.000000
    19  H    0.135684  -0.000000
    20  H    0.110366   0.000000
    21  H    0.170858   0.000000
    22  H    0.120964  -0.000000
    23  H    0.124872  -0.000000
    24  H    0.121026  -0.000000
    25  H    0.124815  -0.000000
    26  H    0.170872  -0.000000
 Sum of Mulliken charges =  -2.00000  -0.00000

 Dipole moment (field-independent basis, Debye):
    X=              1.4162    Y=              0.0021    Z=              0.0009  Tot=              1.4162
 Quadrupole moment (field-independent basis, Debye-Ang):
   XX=           -105.7253   YY=           -149.0894   ZZ=            -94.6797
   XY=             -0.0027   XZ=             -0.0022   YZ=             13.0228

 Normal termination of Gaussian 16 at Wed Jan 24 22:51:50 2024.
