 Gaussian 16, Revision A.03,
 Gaussian 16:  ES64L-G16RevA.03 25-Dec-2016

 --------------------------------------
 #P UB3LYP/6-311++G(d,p) nosym opt freq
 --------------------------------------

 -------
 Reduced
 -------
 Symbolic Z-matrix:
 Charge = -2 Multiplicity = 1

 SCF Done:  E(UB3LYP) =  -648.726148923     A.U. after   91 cycles
 SCF Done:  E(UB3LYP) =  -648.757641674     A.U. after   49 cycles
 SCF Done:  E(UB3LYP) =  -648.765010459     A.U. after   33 cycles
 SCF Done:  E(UB3LYP) =  -648.765467350     A.U. after   28 cycles
 SCF Done:  E(UB3LYP) =  -648.765632743     A.U. after   40 cycles
 SCF Done:  E(UB3LYP) =  -648.765728246     A.U. after   24 cycles
 SCF Done:  E(UB3LYP) =  -648.765729619     A.U. after   26 cycles
 SCF Done:  E(UB3LYP) =  -648.765734372     A.U. after   24 cycles
 SCF Done:  E(UB3LYP) =  -648.765736363     A.U. after   23 cycles
 SCF Done:  E(UB3LYP) =  -648.765741185     A.U. after   25 cycles
 SCF Done:  E(UB3LYP) =  -648.769404150     A.U. after   25 cycles
 SCF Done:  E(UB3LYP) =  -648.769419434     A.U. after   21 cycles
 SCF Done:  E(UB3LYP) =  -648.769421694     A.U. after   23 cycles
 SCF Done:  E(UB3LYP) =  -648.769422754     A.U. after   23 cycles
 SCF Done:  E(UB3LYP) =  -648.769423636     A.U. after   23 cycles
 SCF Done:  E(UB3LYP) =  -648.769423834     A.U. after   21 cycles
 SCF Done:  E(UB3LYP) =  -648.769424029     A.U. after   21 cycles
 SCF Done:  E(UB3LYP) =  -648.769424189     A.U. after   22 cycles
 SCF Done:  E(UB3LYP) =  -648.769424228     A.U. after   20 cycles
 Optimization completed.
    -- Stationary point found.
 Normal termination of Gaussian 16 at Sun Dec 17 23:07:12 2023.

 ----------------------------------------------------------------------
 #P Geom=AllCheck Guess=TCheck SCRF=Check GenChk UB3LYP/6-311++G(d,p) F
 req
 ----------------------------------------------------------------------

 Structure from the checkpoint file:  "044-an.chk"
 -------
 Reduced
 -------
 Charge = -2 Multiplicity = 1

                          Input orientation:
 ---------------------------------------------------------------------
 Center     Atomic      Atomic             Coordinates (Angstroms)
 Number     Number       Type             X           Y           Z
 ---------------------------------------------------------------------
      1          6           0       -0.928054    2.139799    0.011060
      2          6           0       -2.055387    1.281776    0.096784
      3          6           0       -2.011078   -0.100234    0.179177
      4          6           0       -0.833634   -0.887997    0.188652
      5          6           0        0.339361   -0.044189    0.083332
      6          6           0        0.295937    1.366696    0.000441
      7          8           0       -0.985000    3.435687   -0.034745
      8          8           0       -0.805634   -2.184276    0.267032
      9          6           0        1.575813    2.164132   -0.100916
     10          6           0        1.665713   -0.767760    0.045371
     11          8           0       -3.341491   -0.586772    0.301729
     12          8           0       -3.407724    1.695967    0.205642
     13          6           0       -4.111354    0.516706   -0.121930
     14          1           0        2.168904    1.910650   -0.995651
     15          1           0        2.244472    2.006998    0.762575
     16          1           0        1.311255    3.224506   -0.146056
     17          1           0        1.466434   -1.841763    0.102118
     18          1           0        2.328137   -0.489566    0.882067
     19          1           0        2.236155   -0.562490   -0.876510
     20          1           0       -4.243512    0.465896   -1.225650
     21          1           0       -5.084332    0.515023    0.381378
 ---------------------------------------------------------------------

 SCF Done:  E(UB3LYP) =  -648.769424228     A.U. after    2 cycles

 Alpha  occ. eigenvalues --  -18.88381 -18.88301 -18.75227 -18.75041 -10.02517
 Alpha  occ. eigenvalues --   -9.92098  -9.91972  -9.91450  -9.91312  -9.90172
 Alpha  occ. eigenvalues --   -9.90145  -9.87477  -9.87397  -0.84240  -0.74521
 Alpha  occ. eigenvalues --   -0.66327  -0.65847  -0.53756  -0.49617  -0.45544
 Alpha  occ. eigenvalues --   -0.42184  -0.38601  -0.35700  -0.30269  -0.28765
 Alpha  occ. eigenvalues --   -0.25298  -0.22878  -0.21213  -0.18776  -0.16696
 Alpha  occ. eigenvalues --   -0.14709  -0.13706  -0.12137  -0.11896  -0.11694
 Alpha  occ. eigenvalues --   -0.10311  -0.10043  -0.09479  -0.07842  -0.06754
 Alpha  occ. eigenvalues --   -0.05461  -0.03913  -0.03385   0.04905   0.06712
 Alpha  occ. eigenvalues --    0.07139   0.07807   0.14896
 Alpha virt. eigenvalues --    0.16564   0.17836   0.19615   0.19886   0.21068
 Alpha virt. eigenvalues --    0.22522   0.23340   0.24129   0.24740   0.25287
 Alpha virt. eigenvalues --    0.26288   0.28387   0.28929   0.29360   0.29885

  Beta  occ. eigenvalues --  -18.88381 -18.88301 -18.75227 -18.75041 -10.02517
  Beta  occ. eigenvalues --   -9.92098  -9.91972  -9.91450  -9.91312  -9.90172
  Beta  occ. eigenvalues --   -9.90145  -9.87477  -9.87397  -0.84240  -0.74521
  Beta  occ. eigenvalues --   -0.66327  -0.65847  -0.53756  -0.49617  -0.45544
  Beta  occ. eigenvalues --   -0.42184  -0.38601  -0.35700  -0.30269  -0.28765
  Beta  occ. eigenvalues --   -0.25298  -0.22878  -0.21213  -0.18776  -0.16696
  Beta  occ. eigenvalues --   -0.14709  -0.13706  -0.12137  -0.11896  -0.11694
  Beta  occ. eigenvalues --   -0.10311  -0.10043  -0.09479  -0.07842  -0.06754
  Beta  occ. eigenvalues --   -0.05461  -0.03913  -0.03385   0.04905   0.06712
  Beta  occ. eigenvalues --    0.07139   0.07807   0.14896
  Beta virt. eigenvalues --    0.16564   0.17836   0.19615   0.19886   0.21068
  Beta virt. eigenvalues --    0.22522   0.23340   0.24129   0.24740   0.25287
  Beta virt. eigenvalues --    0.26288   0.28387   0.28929   0.29360   0.29885

 Mulliken charges and spin densities:
               1          2
     1  C   -1.303104  -0.000000
     2  C    0.315294   0.000000
     3  C    0.524977  -0.000000
     4  C   -1.289777  -0.000000
     5  C    0.874370  -0.000000
     6  C    0.836514  -0.000000
     7  O   -0.579493  -0.000000
     8  O   -0.580418  -0.000000
     9  C   -0.613186   0.000000
    10  C   -0.584874   0.000000
    11  O   -0.216385   0.000000
    12  O   -0.206056  -0.000000
    13  C    0.617101  -0.000000
    14  H    0.072337  -0.000000
    15  H    0.066924   0.000000
    16  H    0.176414  -0.000000
    17  H    0.175011  -0.000000
    18  H    0.075676  -0.000000
    19  H    0.061340   0.000000
    20  H    0.007911   0.000000
    21  H   -0.430576   0.000000
 Sum of Mulliken charges =  -2.00000   0.00000

 Dipole moment (field-independent basis, Debye):
    X=             12.3875    Y=             -5.7112    Z=             -1.5949  Tot=             13.7336
 Quadrupole moment (field-independent basis, Debye-Ang):
   XX=           -140.6429   YY=           -151.3666   ZZ=            -88.0236
   XY=              7.5719   XZ=              5.4325   YZ=              2.0399

  Exact polarizability:1684.910  56.982 199.897-169.688   7.479 219.860
 Approx polarizability:2269.875 114.045 316.795-179.388  -5.834 220.576

                      1                      2                      3
                      A                      A                      A
 Frequencies --     80.5586               100.9412               130.8228
 Red. masses --      1.0823                 4.4772                 2.7384
 Frc consts  --      0.0041                 0.0269                 0.0276
 IR Inten    --      0.8918                 7.7020                 0.9302

                      4                      5                      6
                      A                      A                      A
 Frequencies --    136.8042               160.1518               185.6290
 Red. masses --      1.3167                 2.4752                 8.2077
 Frc consts  --      0.0145                 0.0374                 0.1666
 IR Inten    --      4.9343                 0.2755                 6.8428

                      7                      8                      9
                      A                      A                      A
 Frequencies --    243.5647               273.7048               307.0133
 Red. masses --      2.9266                 6.9466                 2.6788
 Frc consts  --      0.1023                 0.3066                 0.1488
 IR Inten    --      2.2482                 2.9193                 3.0501

                     10                     11                     12
                      A                      A                      A
 Frequencies --    320.3281               340.8621               349.8173
 Red. masses --      3.7046                 5.9623                 7.3651
 Frc consts  --      0.2240                 0.4082                 0.5310
 IR Inten    --      2.2667                86.9318                12.8184

                     13                     14                     15
                      A                      A                      A
 Frequencies --    365.8083               423.2609               471.5481
 Red. masses --      7.4444                 7.6023                 6.2165
 Frc consts  --      0.5869                 0.8024                 0.8144
 IR Inten    --     27.7805               996.8708                 5.0643

                     16                     17                     18
                      A                      A                      A
 Frequencies --    529.6429               561.4978               613.6114
 Red. masses --      7.6918                 6.6973                 6.5974
 Frc consts  --      1.2713                 1.2441                 1.4636
 IR Inten    --    644.4324                13.8339                16.6497

                     19                     20                     21
                      A                      A                      A
 Frequencies --    703.3619               731.9649               740.9964
 Red. masses --      9.0755                 3.9444                 8.2304
 Frc consts  --      2.6453                 1.2451                 2.6626
 IR Inten    --      2.8149                13.3392                 7.4876

                     22                     23                     24
                      A                      A                      A
 Frequencies --    745.7241               876.8005               925.0454
 Red. masses --      8.3213                 4.8370                 8.3087
 Frc consts  --      2.7265                 2.1909                 4.1890
 IR Inten    --      7.9804               517.4019                42.0528

                     25                     26                     27
                      A                      A                      A
 Frequencies --    958.5949               981.4101              1016.7866
 Red. masses --      3.9903                 1.6899                 4.3870
 Frc consts  --      2.1604                 0.9590                 2.6723
 IR Inten    --      7.8422                73.1420                95.3999

                     28                     29                     30
                      A                      A                      A
 Frequencies --   1022.2245              1037.7863              1068.6745
 Red. masses --      1.3774                 1.4412                 7.1187
 Frc consts  --      0.8480                 0.9145                 4.7901
 IR Inten    --      0.2191                22.1135              1078.2728

                     31                     32                     33
                      A                      A                      A
 Frequencies --   1093.3968              1137.6768              1147.0385
 Red. masses --      2.6150                 1.8259                 4.3809
 Frc consts  --      1.8419                 1.3924                 3.3960
 IR Inten    --     58.1958              2037.2142               620.6121

                     34                     35                     36
                      A                      A                      A
 Frequencies --   1214.3214              1242.9702              1276.2924
 Red. masses --      7.2971                 1.1564                 3.8194
 Frc consts  --      6.3397                 1.0526                 3.6656
 IR Inten    --     14.3941                80.5350               153.3295

                     37                     38                     39
                      A                      A                      A
 Frequencies --   1332.2388              1350.0230              1380.8636
 Red. masses --      2.9117                 1.4619                 1.8576
 Frc consts  --      3.0448                 1.5698                 2.0869
 IR Inten    --   1982.5084                20.5690              1884.3288

                     40                     41                     42
                      A                      A                      A
 Frequencies --   1399.4836              1420.8561              1424.4651
 Red. masses --      2.0139                 7.1126                 2.1698
 Frc consts  --      2.3239                 8.4601                 2.5940
 IR Inten    --    294.5033              1337.4428               204.8629

                     43                     44                     45
                      A                      A                      A
 Frequencies --   1471.4808              1474.8882              1479.6360
 Red. masses --      1.2371                 1.0635                 1.0574
 Frc consts  --      1.5782                 1.3630                 1.3640
 IR Inten    --    264.8287               144.3344                25.6297

                     46                     47                     48
                      A                      A                      A
 Frequencies --   1497.0188              1500.1293              1511.3074
 Red. masses --      1.0533                 1.1396                 5.2074
 Frc consts  --      1.3908                 1.5110                 7.0078
 IR Inten    --      2.9455               201.5289               372.2297

                     49                     50                     51
                      A                      A                      A
 Frequencies --   1596.1408              2805.5270              2891.0847
 Red. masses --     10.8314                 1.0720                 1.0974
 Frc consts  --     16.2584                 4.9711                 5.4042
 IR Inten    --   4474.1174               343.1703               310.2079

                     52                     53                     54
                      A                      A                      A
 Frequencies --   2914.1565              2922.4547              2928.9218
 Red. masses --      1.0438                 1.0418                 1.0962
 Frc consts  --      5.2225                 5.2426                 5.5405
 IR Inten    --     50.4028              2610.0949               333.6322

                     55                     56                     57
                      A                      A                      A
 Frequencies --   3019.1454              3061.2146              3062.0112
 Red. masses --      1.0876                 1.0904                 1.0901
 Frc consts  --      5.8412                 6.0204                 6.0216
 IR Inten    --    331.8625                25.5651                25.0073

 - Thermochemistry -
 -------------------
 Temperature   298.150 Kelvin.  Pressure   1.00000 Atm.
 Atom     1 has atomic number  6 and mass  12.00000

 Molecular mass:   180.04226 amu.
 Principal axes and moments of inertia in atomic units:
                           1         2         3
     Eigenvalues --  1613.047852193.398723759.17787
           X            0.99928  -0.03127   0.02145
           Y            0.03009   0.99811   0.05357
           Z           -0.02308  -0.05289   0.99833
 This molecule is an asymmetric top.
 Rotational symmetry number  1.
 Warning -- assumption of classical behavior for rotation
           may cause significant error
 Rotational temperatures (Kelvin)      0.05370     0.03949     0.02304
 Rotational constants (GHZ):           1.11884     0.82281     0.48009
 Zero-point vibrational energy     394526.5 (Joules/Mol)
                                   94.29410 (Kcal/Mol)
 Warning -- explicit consideration of  18 degrees of freedom as
           vibrations may cause significant error
 Vibrational temperatures:    115.91   145.23   188.22   196.83   230.42
          (Kelvin)            267.08   350.44   393.80   441.72   460.88
                              490.42   503.31   526.32   608.98   678.45
                              762.04   807.87   882.85  1011.98  1053.13
                             1066.13  1072.93  1261.52  1330.93  1379.20
                             1412.03  1462.93  1470.75  1493.14  1537.58
                             1573.15  1636.86  1650.33  1747.14  1788.36
                             1836.30  1916.79  1942.38  1986.75  2013.54
                             2044.30  2049.49  2117.13  2122.04  2128.87
                             2153.88  2158.35  2174.43  2296.49  4036.53
                             4159.63  4192.82  4204.76  4214.07  4343.88
                             4404.40  4405.55

 Zero-point correction=                           0.150267 (Hartree/Particle)
 Thermal correction to Energy=                    0.161980
 Thermal correction to Enthalpy=                  0.162924
 Thermal correction to Gibbs Free Energy=         0.112852
 Sum of electronic and zero-point Energies=           -648.619157
 Sum of electronic and thermal Energies=              -648.607445
 Sum of electronic and thermal Enthalpies=            -648.606500
 Sum of electronic and thermal Free Energies=         -648.656572

                     E (Thermal)             CV                S
                      KCal/Mol        Cal/Mol-Kelvin    Cal/Mol-Kelvin
 Total                  101.644             43.776            105.384
 Electronic               0.000              0.000              0.000
 Translational            0.889              2.981             41.471
 Rotational               0.889              2.981             30.965
 Vibrational             99.866             37.815             32.948
 Vibration     1          0.600              1.962              3.877
 Vibration     2          0.604              1.948              3.436
 Vibration     3          0.612              1.922              2.934
 Vibration     4          0.614              1.917              2.848
 Vibration     5          0.622              1.891              2.548
 Vibration     6          0.632              1.859              2.271
 Vibration     7          0.659              1.773              1.777
 Vibration     8          0.676              1.722              1.573
 Vibration     9          0.697              1.660              1.378
 Vibration    10          0.706              1.635              1.308
 Vibration    11          0.720              1.594              1.208
 Vibration    12          0.727              1.576              1.167
 Vibration    13          0.739              1.543              1.097
 Vibration    14          0.785              1.420              0.881
 Vibration    15          0.828              1.313              0.733
 Vibration    16          0.885              1.184              0.588
 Vibration    17          0.917              1.115              0.521
 Vibration    18          0.973              1.003              0.427

 Optimization completed.
    -- Stationary point found.
 Normal termination of Gaussian 16 at Sun Dec 17 23:21:36 2023.
