 Q-Chem 5.4, Q-Chem, Inc., Pleasanton, CA (2021)
 Q-Chem 5.4.0 for Intel X86 EM64T Linux

User input:
--------------------------------------------------------------
$molecule
-2 1
C                 -1.8103790000      0.3083630000     -1.0848730000
C                 -1.1687970000      0.1327230000      0.3138680000
C                 -1.8749650000     -1.0492840000      1.0067000000
C                 -1.4408580000      1.4023570000      1.1582770000
C                  0.3553020000     -0.0695580000      0.1616190000
C                  0.9755230000     -1.2277550000      0.6261480000
C                  2.3756260000     -1.5403020000      0.5484240000
O                  2.8717960000     -2.6366990000      1.0025690000
C                  3.1089700000     -0.4894870000     -0.0862770000
C                  2.5083240000      0.6917520000     -0.5651830000
Br                 3.5749080000      2.0877770000     -1.4220530000
C                  1.1126860000      0.9895350000     -0.4805550000
O                  0.5797320000      2.0821010000     -0.9259110000
Br                 5.0314150000     -0.8060730000     -0.2498280000
H                 -2.8881020000      0.5198350000     -0.9981190000
H                 -1.6881620000     -0.6089630000     -1.6726490000
H                 -1.3123500000      1.1317640000     -1.6012960000
H                 -1.7500450000     -1.9811250000      0.4464180000
H                 -2.9506320000     -0.8375930000      1.0799560000
H                 -1.4919970000     -1.2137910000      2.0186920000
H                 -1.0542090000      1.2676870000      2.1752460000
H                 -2.5218200000      1.6043910000      1.2255490000
H                 -0.9345540000      2.2512020000      0.6937550000
H                  0.3925890000     -2.0088570000      1.1038360000
$end
$rem
MAX_SCF_CYCLES=200
BASIS  =  6-311++G(d,p)
GUI  =  2
JOB_TYPE  =  SP
METHOD  =  B3LYP
SOLVENT_METHOD = PCM
$end
$pcm
theory = CPCM
$end
$solvent
dielectric 37.219
opticaldielectric 1.43
$end

--------------------------------------------------------------

             Standard Nuclear Orientation (Angstroms)
    I     Atom           X                Y                Z
 ----------------------------------------------------------------
    1      C      -1.8103790000     0.3083630000    -1.0848730000
    2      C      -1.1687970000     0.1327230000     0.3138680000
    3      C      -1.8749650000    -1.0492840000     1.0067000000
    4      C      -1.4408580000     1.4023570000     1.1582770000
    5      C       0.3553020000    -0.0695580000     0.1616190000
    6      C       0.9755230000    -1.2277550000     0.6261480000
    7      C       2.3756260000    -1.5403020000     0.5484240000
    8      O       2.8717960000    -2.6366990000     1.0025690000
    9      C       3.1089700000    -0.4894870000    -0.0862770000
   10      C       2.5083240000     0.6917520000    -0.5651830000
   11      Br      3.5749080000     2.0877770000    -1.4220530000
   12      C       1.1126860000     0.9895350000    -0.4805550000
   13      O       0.5797320000     2.0821010000    -0.9259110000
   14      Br      5.0314150000    -0.8060730000    -0.2498280000
   15      H      -2.8881020000     0.5198350000    -0.9981190000
   16      H      -1.6881620000    -0.6089630000    -1.6726490000
   17      H      -1.3123500000     1.1317640000    -1.6012960000
   18      H      -1.7500450000    -1.9811250000     0.4464180000
   19      H      -2.9506320000    -0.8375930000     1.0799560000
   20      H      -1.4919970000    -1.2137910000     2.0186920000
   21      H      -1.0542090000     1.2676870000     2.1752460000
   22      H      -2.5218200000     1.6043910000     1.2255490000
   23      H      -0.9345540000     2.2512020000     0.6937550000
   24      H       0.3925890000    -2.0088570000     1.1038360000
 ----------------------------------------------------------------

   10   -5686.2174847470      4.05e-06  Convergence criterion met
 Total energy in the final basis set =    -5686.2174847470

                    Orbital Energies (a.u.)
 --------------------------------------------------------------

 Alpha MOs
 -- Occupied --
********-482.8067 -62.4601 -62.4596 -56.2803 -56.2798 -56.2769 -56.2767
-56.2764 -56.2761 -19.0271 -19.0210 -10.1895 -10.1885 -10.1873 -10.1861
-10.1666 -10.1439 -10.1402 -10.1333 -10.1333 -10.1305  -8.6688  -8.6682
 -6.4993  -6.4988  -6.4880  -6.4876  -6.4872  -6.4867  -2.6104  -2.6098
 -2.6072  -2.6068  -2.6066  -2.6062  -2.5977  -2.5977  -2.5972  -2.5971
 -0.9458  -0.9397  -0.8198  -0.8015  -0.7642  -0.7523  -0.6790  -0.6675
 -0.6621  -0.6521  -0.5708  -0.5398  -0.5024  -0.4578  -0.4443  -0.4179
 -0.4159  -0.4075  -0.3908  -0.3884  -0.3699  -0.3655  -0.3626  -0.3478
 -0.3473  -0.3334  -0.3252  -0.3129  -0.3128  -0.3032  -0.2969  -0.2849
 -0.2791  -0.2571  -0.2324  -0.2114  -0.2086  -0.1992  -0.1303

          Ground-State Mulliken Net Atomic Charges

     Atom                 Charge (a.u.)
  ----------------------------------------
      1 C                    -0.691935
      2 C                     0.696802
      3 C                    -0.525471
      4 C                    -0.691539
      5 C                     1.078096
      6 C                    -0.533308
      7 C                    -0.781436
      8 O                    -0.668341
      9 C                     0.691255
     10 C                    -0.258322
     11 Br                   -0.266655
     12 C                    -0.688647
     13 O                    -0.601426
     14 Br                   -0.250703
     15 H                     0.142194
     16 H                     0.125356
     17 H                     0.176514
     18 H                     0.131719
     19 H                     0.168745
     20 H                     0.131815
     21 H                     0.125683
     22 H                     0.142317
     23 H                     0.176472
     24 H                     0.170816
  ----------------------------------------
  Sum of atomic charges =    -2.000000

                    Cartesian Multipole Moments
 -----------------------------------------------------------------
    Charge (ESU x 10^10)
                -9.6064
    Dipole Moment (Debye)
         X     -22.1230      Y       1.2100      Z       1.2546
       Tot      22.1915
    Quadrupole Moments (Debye-Ang)
        XX    -193.1531     XY      20.7152     YY    -165.8284
        XZ      -2.2087     YZ      19.1798     ZZ    -128.8388

 Total job time:  46.92s(wall), 352.85s(cpu)
        *  Thank you very much for using Q-Chem.  Have a nice day.  *
