 Gaussian 16, Revision A.03,
 Gaussian 16:  ES64L-G16RevA.03 25-Dec-2016

 ----------------------------------------------------------------------
 #P UB3LYP/genecp nosym opt freq SCRF=(PCM,Solvent=n,n-DiMethylFormamid
 e)
 ----------------------------------------------------------------------

 --------
 Oxidized
 --------
 Symbolic Z-matrix:
 Charge =  0 Multiplicity = 1

 SCF Done:  E(UB3LYP) =  -836.074128899     A.U. after   16 cycles
 SCF Done:  E(UB3LYP) =  -836.074197186     A.U. after   11 cycles
 SCF Done:  E(UB3LYP) =  -836.074167772     A.U. after   11 cycles
 SCF Done:  E(UB3LYP) =  -836.074191947     A.U. after   11 cycles
 SCF Done:  E(UB3LYP) =  -836.074206994     A.U. after   10 cycles
 SCF Done:  E(UB3LYP) =  -836.074209086     A.U. after   10 cycles
 SCF Done:  E(UB3LYP) =  -836.074209918     A.U. after    9 cycles
 SCF Done:  E(UB3LYP) =  -836.074210264     A.U. after    8 cycles
 SCF Done:  E(UB3LYP) =  -836.074210288     A.U. after    8 cycles
 Optimization completed.
    -- Stationary point found.
 Normal termination of Gaussian 16 at Sat Feb 10 10:44:31 2024.

 ------------------------------------------------------------------
 #P Geom=AllCheck Guess=TCheck SCRF=Check GenChk UB3LYP/GenECP Freq
 ------------------------------------------------------------------

 Structure from the checkpoint file:  "007.chk"
 --------
 Oxidized
 --------
 Charge =  0 Multiplicity = 1

                          Input orientation:
 ---------------------------------------------------------------------
 Center     Atomic      Atomic             Coordinates (Angstroms)
 Number     Number       Type             X           Y           Z
 ---------------------------------------------------------------------
      1          6           0       -1.348601    1.921262    0.830089
      2          6           0       -2.662513    1.406514    0.312092
      3          6           0       -2.673762    0.253013   -0.373846
      4          6           0       -1.456123   -0.517491   -0.673308
      5          6           0       -0.124225   -0.005653   -0.194618
      6          6           0       -0.113170    1.145894    0.506382
      7          8           0       -1.527952   -1.561656   -1.308312
      8          1           0       -3.589922   -0.179976   -0.756773
      9          8           0       -1.304168    2.936222    1.503013
     10         53           0        1.677520    1.974092    1.248930
     11          6           0        1.086216   -0.819691   -0.534402
     12          6           0       -3.886072    2.249060    0.598285
     13          6           0       -3.948404    3.441045   -0.383978
     14          6           0       -5.196847    1.453747    0.578323
     15          1           0        0.803495   -1.698953   -1.109193
     16          1           0        1.602085   -1.139437    0.375304
     17          1           0        1.796699   -0.226045   -1.116281
     18          1           0       -3.748663    2.663296    1.601403
     19          1           0       -4.789881    4.088720   -0.125011
     20          1           0       -4.092358    3.086972   -1.408807
     21          1           0       -3.036931    4.040472   -0.350040
     22          1           0       -6.020044    2.101406    0.889266
     23          1           0       -5.160897    0.601071    1.261112
     24          1           0       -5.434681    1.082285   -0.422568
 ---------------------------------------------------------------------

 SCF Done:  E(UB3LYP) =  -836.074210288     A.U. after    1 cycles

 Alpha  occ. eigenvalues --  -19.14830 -19.14516 -10.29752 -10.29113 -10.24708
 Alpha  occ. eigenvalues --  -10.22954 -10.22248 -10.20612 -10.19467 -10.18005
 Alpha  occ. eigenvalues --  -10.16713 -10.16572  -6.85718  -4.88171  -4.87042
 Alpha  occ. eigenvalues --   -4.86914  -1.92986  -1.92628  -1.92532  -1.91555
 Alpha  occ. eigenvalues --   -1.91552  -1.08150  -1.07457  -0.87782  -0.83875
 Alpha  occ. eigenvalues --   -0.78276  -0.74848  -0.70306  -0.69895  -0.69001
 Alpha  occ. eigenvalues --   -0.62875  -0.60260  -0.57108  -0.54048  -0.50384
 Alpha  occ. eigenvalues --   -0.47887  -0.46910  -0.45807  -0.45647  -0.44105
 Alpha  occ. eigenvalues --   -0.43570  -0.42332  -0.41697  -0.40988  -0.40390
 Alpha  occ. eigenvalues --   -0.39110  -0.38209  -0.36584  -0.35648  -0.34596
 Alpha  occ. eigenvalues --   -0.32428  -0.30114  -0.29828  -0.28646  -0.27108
 Alpha  occ. eigenvalues --   -0.26355
 Alpha virt. eigenvalues --   -0.13832  -0.04530  -0.03363  -0.00956  -0.00668
 Alpha virt. eigenvalues --    0.00242   0.01271   0.01735   0.02610   0.03101
 Alpha virt. eigenvalues --    0.03740   0.04383   0.04539   0.05072   0.05417

  Beta  occ. eigenvalues --  -19.14830 -19.14516 -10.29752 -10.29113 -10.24708
  Beta  occ. eigenvalues --  -10.22954 -10.22248 -10.20612 -10.19467 -10.18005
  Beta  occ. eigenvalues --  -10.16713 -10.16572  -6.85718  -4.88171  -4.87042
  Beta  occ. eigenvalues --   -4.86914  -1.92986  -1.92628  -1.92532  -1.91555
  Beta  occ. eigenvalues --   -1.91552  -1.08150  -1.07457  -0.87782  -0.83875
  Beta  occ. eigenvalues --   -0.78276  -0.74848  -0.70306  -0.69895  -0.69001
  Beta  occ. eigenvalues --   -0.62875  -0.60260  -0.57108  -0.54048  -0.50384
  Beta  occ. eigenvalues --   -0.47887  -0.46910  -0.45807  -0.45647  -0.44105
  Beta  occ. eigenvalues --   -0.43570  -0.42332  -0.41697  -0.40988  -0.40390
  Beta  occ. eigenvalues --   -0.39110  -0.38209  -0.36584  -0.35648  -0.34596
  Beta  occ. eigenvalues --   -0.32428  -0.30114  -0.29828  -0.28646  -0.27108
  Beta  occ. eigenvalues --   -0.26355
  Beta virt. eigenvalues --   -0.13832  -0.04530  -0.03363  -0.00956  -0.00668
  Beta virt. eigenvalues --    0.00242   0.01271   0.01735   0.02610   0.03101
  Beta virt. eigenvalues --    0.03740   0.04383   0.04539   0.05072   0.05417

 Mulliken charges and spin densities:
               1          2
     1  C   -1.376002  -0.000000
     2  C    1.112085   0.000000
     3  C   -0.213097   0.000000
     4  C   -0.960037  -0.000000
     5  C    1.196875   0.000000
     6  C    0.310905   0.000000
     7  O   -0.271712   0.000000
     8  H    0.215542  -0.000000
     9  O   -0.201152   0.000000
    10  I   -0.060065  -0.000000
    11  C   -0.341841  -0.000000
    12  C    0.125830  -0.000000
    13  C   -0.708673  -0.000000
    14  C   -0.548110   0.000000
    15  H    0.196598  -0.000000
    16  H    0.175810   0.000000
    17  H    0.174252   0.000000
    18  H    0.218671   0.000000
    19  H    0.155692  -0.000000
    20  H    0.157546  -0.000000
    21  H    0.168866   0.000000
    22  H    0.182943  -0.000000
    23  H    0.142050  -0.000000
    24  H    0.147024   0.000000
 Sum of Mulliken charges =  -0.00000  -0.00000

 Dipole moment (field-independent basis, Debye):
    X=             -1.2419    Y=              0.0546    Z=             -0.3769  Tot=              1.2990
 Quadrupole moment (field-independent basis, Debye-Ang):
   XX=            -83.1689   YY=           -110.1745   ZZ=           -103.6011
   XY=             -6.6669   XZ=             -1.2896   YZ=             -8.8924

  Exact polarizability: 237.426   9.158 254.709  19.877  63.664 183.793
 Approx polarizability: 243.221  17.682 325.185  22.443  97.627 226.858

                      1                      2                      3
                      A                      A                      A
 Frequencies --     36.4561                60.6950                67.4092
 Red. masses --      4.5064                 1.8149                 2.7330
 Frc consts  --      0.0035                 0.0039                 0.0073
 IR Inten    --      3.2501                 2.1546                 2.2901

                      4                      5                      6
                      A                      A                      A
 Frequencies --     87.1356               114.3281               128.9431
 Red. masses --      1.8417                 4.8770                 5.4148
 Frc consts  --      0.0082                 0.0376                 0.0530
 IR Inten    --      2.5204                 5.6660                 0.8063

                      7                      8                      9
                      A                      A                      A
 Frequencies --    192.0464               209.3367               222.1595
 Red. masses --      4.3313                 3.6939                 5.1409
 Frc consts  --      0.0941                 0.0954                 0.1495
 IR Inten    --      1.2373                 0.4212                 0.1643

                     10                     11                     12
                      A                      A                      A
 Frequencies --    233.5446               247.2695               270.2431
 Red. masses --      1.7851                 1.9555                 1.0816
 Frc consts  --      0.0574                 0.0704                 0.0465
 IR Inten    --      0.2850                 0.2493                 0.0231

                     13                     14                     15
                      A                      A                      A
 Frequencies --    298.3382               348.0349               406.3803
 Red. masses --      3.4051                 3.5945                 2.9613
 Frc consts  --      0.1786                 0.2565                 0.2881
 IR Inten    --      2.5657                 2.1154                 0.7732

                     16                     17                     18
                      A                      A                      A
 Frequencies --    420.7773               449.4514               474.1248
 Red. masses --      6.4950                 4.4978                 6.5767
 Frc consts  --      0.6775                 0.5353                 0.8710
 IR Inten    --     37.4378                 7.4601                 1.5881

                     19                     20                     21
                      A                      A                      A
 Frequencies --    503.8779               543.3800               673.0611
 Red. masses --      5.0749                 3.6973                 4.7451
 Frc consts  --      0.7591                 0.6432                 1.2665
 IR Inten    --      3.3820                13.8888                 2.4734

                     22                     23                     24
                      A                      A                      A
 Frequencies --    685.6127               714.9613               728.9012
 Red. masses --      5.7157                 4.9561                 5.0174
 Frc consts  --      1.5830                 1.4926                 1.5706
 IR Inten    --     52.0361                10.5657                29.2460

                     25                     26                     27
                      A                      A                      A
 Frequencies --    800.0603               840.9092               883.6790
 Red. masses --      8.1200                 3.1315                 2.7972
 Frc consts  --      3.0623                 1.3047                 1.2870
 IR Inten    --      7.8398                12.5881                58.4170

                     28                     29                     30
                      A                      A                      A
 Frequencies --    917.4820               936.2183               968.5831
 Red. masses --      1.4305                 1.1693                 1.4920
 Frc consts  --      0.7095                 0.6039                 0.8247
 IR Inten    --     39.7048                 7.5827                 1.2064

                     31                     32                     33
                      A                      A                      A
 Frequencies --   1022.8531              1038.4910              1049.5161
 Red. masses --      3.0110                 1.5076                 2.2425
 Frc consts  --      1.8560                 0.9580                 1.4553
 IR Inten    --    111.6565                 0.3952                25.4833

                     34                     35                     36
                      A                      A                      A
 Frequencies --   1105.6457              1120.4708              1146.8615
 Red. masses --      2.0118                 2.0009                 2.6910
 Frc consts  --      1.4490                 1.4801                 2.0854
 IR Inten    --     17.9269                11.1238               102.0103

                     37                     38                     39
                      A                      A                      A
 Frequencies --   1192.3776              1222.2298              1281.2467
 Red. masses --      2.3133                 3.0707                 5.9203
 Frc consts  --      1.9378                 2.7027                 5.7261
 IR Inten    --     48.5271                90.3789               392.0706

                     40                     41                     42
                      A                      A                      A
 Frequencies --   1311.7613              1322.0058              1385.6600
 Red. masses --      1.5225                 1.3512                 1.4081
 Frc consts  --      1.5436                 1.3914                 1.5929
 IR Inten    --     11.4925                17.0615                 2.1881

                     43                     44                     45
                      A                      A                      A
 Frequencies --   1396.0134              1399.2786              1414.7934
 Red. masses --      1.2183                 1.4068                 1.2216
 Frc consts  --      1.3989                 1.6229                 1.4407
 IR Inten    --     19.0489                 9.4316                 5.6715

                     46                     47                     48
                      A                      A                      A
 Frequencies --   1465.5805              1476.1517              1480.8309
 Red. masses --      1.0807                 1.0427                 1.0438
 Frc consts  --      1.3676                 1.3387                 1.3486
 IR Inten    --     54.0165                20.5535                 1.3388

                     49                     50                     51
                      A                      A                      A
 Frequencies --   1485.4881              1497.7966              1503.2676
 Red. masses --      1.0540                 1.0413                 1.0592
 Frc consts  --      1.3703                 1.3763                 1.4102
 IR Inten    --      7.2783                20.8350                14.4609

                     52                     53                     54
                      A                      A                      A
 Frequencies --   1617.5585              1678.1410              1688.0778
 Red. masses --     10.0584                11.8610                 8.5157
 Frc consts  --     15.5060                19.6802                14.2973
 IR Inten    --    184.6647               489.3202               588.0514

                     55                     56                     57
                      A                      A                      A
 Frequencies --   1701.6793              3025.5547              3028.7656
 Red. masses --     12.0577                 1.0349                 1.0369
 Frc consts  --     20.5717                 5.5815                 5.6042
 IR Inten    --    136.5201                38.2478                37.0371

                     58                     59                     60
                      A                      A                      A
 Frequencies --   3036.2169              3046.5152              3086.0020
 Red. masses --      1.0390                 1.0817                 1.0999
 Frc consts  --      5.6431                 5.9150                 6.1713
 IR Inten    --      3.8566                 3.9223                 8.1152

                     61                     62                     63
                      A                      A                      A
 Frequencies --   3088.4587              3094.5097              3097.1520
 Red. masses --      1.1020                 1.1016                 1.1022
 Frc consts  --      6.1933                 6.2153                 6.2293
 IR Inten    --      9.7489                72.6400                53.1952

                     64                     65                     66
                      A                      A                      A
 Frequencies --   3107.7056              3146.0733              3193.8564
 Red. masses --      1.1017                 1.0983                 1.0916
 Frc consts  --      6.2687                 6.4050                 6.5604
 IR Inten    --     35.7038                10.8689                 5.5332

 - Thermochemistry -
 -------------------
 Temperature   298.150 Kelvin.  Pressure   1.00000 Atm.
 Atom     1 has atomic number  6 and mass  12.00000

 Molecular mass:   289.97630 amu.
 Principal axes and moments of inertia in atomic units:
                           1         2         3
     Eigenvalues --  2196.670085649.215847556.96224
           X            0.97574  -0.15475  -0.15485
           Y            0.06764   0.88583  -0.45905
           Z            0.20821   0.43744   0.87481
 This molecule is an asymmetric top.
 Rotational symmetry number  1.
 Warning -- assumption of classical behavior for rotation
           may cause significant error
 Rotational temperatures (Kelvin)      0.03943     0.01533     0.01146
 Rotational constants (GHZ):           0.82158     0.31947     0.23882
 Zero-point vibrational energy     486987.7 (Joules/Mol)
                                  116.39286 (Kcal/Mol)
 Warning -- explicit consideration of  20 degrees of freedom as
           vibrations may cause significant error
 Vibrational temperatures:     52.45    87.33    96.99   125.37   164.49
          (Kelvin)            185.52   276.31   301.19   319.64   336.02
                              355.77   388.82   429.24   500.74   584.69
                              605.40   646.66   682.16   724.97   781.80
                              968.38   986.44  1028.67  1048.73  1151.11
                             1209.88  1271.42  1320.05  1347.01  1393.58
                             1471.66  1494.16  1510.02  1590.78  1612.11
                             1650.08  1715.57  1758.52  1843.43  1887.33
                             1902.07  1993.66  2008.55  2013.25  2035.57
                             2108.64  2123.85  2130.59  2137.29  2155.00
                             2162.87  2327.31  2414.47  2428.77  2448.34
                             4353.10  4357.72  4368.44  4383.26  4440.07
                             4443.60  4452.31  4456.11  4471.30  4526.50
                             4595.25

 Zero-point correction=                           0.185484 (Hartree/Particle)
 Thermal correction to Energy=                    0.199441
 Thermal correction to Enthalpy=                  0.200385
 Thermal correction to Gibbs Free Energy=         0.142801
 Sum of electronic and zero-point Energies=           -835.888726
 Sum of electronic and thermal Energies=              -835.874770
 Sum of electronic and thermal Enthalpies=            -835.873826
 Sum of electronic and thermal Free Energies=         -835.931409

                     E (Thermal)             CV                S
                      KCal/Mol        Cal/Mol-Kelvin    Cal/Mol-Kelvin
 Total                  125.151             49.793            121.195
 Electronic               0.000              0.000              0.000
 Translational            0.889              2.981             42.891
 Rotational               0.889              2.981             32.905
 Vibrational            123.373             43.832             45.398
 Vibration     1          0.594              1.982              5.443
 Vibration     2          0.597              1.973              4.434
 Vibration     3          0.598              1.970              4.228
 Vibration     4          0.601              1.958              3.723
 Vibration     5          0.607              1.938              3.194
 Vibration     6          0.611              1.924              2.962
 Vibration     7          0.634              1.851              2.208
 Vibration     8          0.642              1.826              2.049
 Vibration     9          0.648              1.807              1.941
 Vibration    10          0.654              1.790              1.852
 Vibration    11          0.661              1.767              1.750
 Vibration    12          0.674              1.728              1.595
 Vibration    13          0.691              1.677              1.426
 Vibration    14          0.726              1.579              1.175
 Vibration    15          0.771              1.456              0.939
 Vibration    16          0.783              1.425              0.889
 Vibration    17          0.808              1.362              0.797
 Vibration    18          0.831              1.307              0.726
 Vibration    19          0.859              1.241              0.648
 Vibration    20          0.899              1.154              0.558

                           ! Non-Optimized Parameters !
 Normal termination of Gaussian 16 at Sat Feb 10 11:18:39 2024.
