 Gaussian 16, Revision A.03,
 Gaussian 16:  ES64L-G16RevA.03 25-Dec-2016

 ----------------------------------------------------------------------
 #P UB3LYP/6-311++G(d,p) nosym opt freq SCRF=(PCM,Solvent=n,n-DiMethylF
 ormamide)
 ----------------------------------------------------------------------

 --------
 Oxidized
 --------
 Symbolic Z-matrix:
 Charge =  0 Multiplicity = 1

 SCF Done:  E(UB3LYP) =  -566.088694415     A.U. after   14 cycles
 SCF Done:  E(UB3LYP) =  -566.088792574     A.U. after   12 cycles
 SCF Done:  E(UB3LYP) =  -566.088801848     A.U. after   11 cycles
 SCF Done:  E(UB3LYP) =  -566.088801366     A.U. after   10 cycles
 SCF Done:  E(UB3LYP) =  -566.088802159     A.U. after   10 cycles
 SCF Done:  E(UB3LYP) =  -566.088803360     A.U. after   10 cycles
 Optimization completed.
    -- Stationary point found.
 Normal termination of Gaussian 16 at Sat Feb 10 10:06:22 2024.

 ----------------------------------------------------------------------
 #P Geom=AllCheck Guess=TCheck SCRF=Check GenChk UB3LYP/6-311++G(d,p) F
 req
 ----------------------------------------------------------------------

 Structure from the checkpoint file:  "001.chk"
 --------
 Oxidized
 --------
 Charge =  0 Multiplicity = 1

                          Input orientation:
 ---------------------------------------------------------------------
 Center     Atomic      Atomic             Coordinates (Angstroms)
 Number     Number       Type             X           Y           Z
 ---------------------------------------------------------------------
      1          8           0       -1.054925    1.715652   -1.824957
      2          6           0       -0.823289    0.860173   -0.994169
      3          6           0       -1.866249   -0.035079   -0.460885
      4          6           0       -1.594518   -0.972298    0.456464
      5          6           0       -0.235064   -1.169783    0.991289
      6          8           0        0.026906   -2.017275    1.821242
      7          6           0        0.853028   -0.265856    0.465041
      8          6           0        0.578506    0.681056   -0.464670
      9          6           0        1.577024    1.553558   -0.987648
     10          7           0        2.378800    2.264551   -1.416190
     11          6           0        2.161685   -0.464165    0.993635
     12          7           0        3.217869   -0.630349    1.428225
     13          1           0       -2.863054    0.113202   -0.858293
     14          1           0       -2.356719   -1.633386    0.850916
 ---------------------------------------------------------------------

 SCF Done:  E(UB3LYP) =  -566.088803360     A.U. after    1 cycles

 Alpha  occ. eigenvalues --  -19.17394 -19.17393 -14.36277 -14.36276 -10.32426
 Alpha  occ. eigenvalues --  -10.32424 -10.29273 -10.29201 -10.25818 -10.25816
 Alpha  occ. eigenvalues --  -10.23828 -10.23746  -1.10738  -1.10535  -0.96517
 Alpha  occ. eigenvalues --   -0.95562  -0.91190  -0.84768  -0.77447  -0.70964
 Alpha  occ. eigenvalues --   -0.67838  -0.60140  -0.57601  -0.56349  -0.51738
 Alpha  occ. eigenvalues --   -0.49365  -0.49335  -0.46997  -0.45464  -0.45023
 Alpha  occ. eigenvalues --   -0.42368  -0.41655  -0.41541  -0.39863  -0.38913
 Alpha  occ. eigenvalues --   -0.38187  -0.33798  -0.32595  -0.32461  -0.31560
 Alpha virt. eigenvalues --   -0.17684  -0.10274  -0.04659  -0.03264  -0.00493
 Alpha virt. eigenvalues --   -0.00377   0.00953   0.01597   0.02782   0.03456
 Alpha virt. eigenvalues --    0.03696   0.03759   0.04261   0.05338   0.06520

  Beta  occ. eigenvalues --  -19.17394 -19.17393 -14.36277 -14.36276 -10.32426
  Beta  occ. eigenvalues --  -10.32424 -10.29273 -10.29201 -10.25818 -10.25816
  Beta  occ. eigenvalues --  -10.23828 -10.23746  -1.10738  -1.10535  -0.96517
  Beta  occ. eigenvalues --   -0.95562  -0.91190  -0.84768  -0.77447  -0.70964
  Beta  occ. eigenvalues --   -0.67838  -0.60140  -0.57601  -0.56349  -0.51738
  Beta  occ. eigenvalues --   -0.49365  -0.49335  -0.46997  -0.45464  -0.45023
  Beta  occ. eigenvalues --   -0.42368  -0.41655  -0.41541  -0.39863  -0.38913
  Beta  occ. eigenvalues --   -0.38187  -0.33798  -0.32595  -0.32461  -0.31560
  Beta virt. eigenvalues --   -0.17684  -0.10274  -0.04659  -0.03264  -0.00493
  Beta virt. eigenvalues --   -0.00377   0.00953   0.01597   0.02782   0.03456
  Beta virt. eigenvalues --    0.03696   0.03759   0.04261   0.05338   0.06520

 Mulliken charges and spin densities:
               1          2
     1  O   -0.214544  -0.000000
     2  C   -0.843010   0.000000
     3  C    0.218482   0.000000
     4  C    0.218814  -0.000000
     5  C   -0.844612   0.000000
     6  O   -0.214518  -0.000000
     7  C    1.751183  -0.000000
     8  C    1.751303  -0.000000
     9  C   -0.983202  -0.000000
    10  N   -0.195193   0.000000
    11  C   -0.982888  -0.000000
    12  N   -0.195231   0.000000
    13  H    0.266724   0.000000
    14  H    0.266691   0.000000
 Sum of Mulliken charges =  -0.00000   0.00000

 Dipole moment (field-independent basis, Debye):
    X=             -7.3461    Y=             -2.1467    Z=             -0.0140  Tot=              7.6534
 Quadrupole moment (field-independent basis, Debye-Ang):
   XX=            -78.8955   YY=            -79.8868   ZZ=            -78.1224
   XY=              0.2643   XZ=             -4.1210   YZ=             14.0735

  Exact polarizability: 148.588  -0.142 149.615  22.534 -77.156 139.721
 Approx polarizability: 173.753  -9.404 204.166  34.378-117.757 191.754

                      1                      2                      3
                      A                      A                      A
 Frequencies --     66.9852                79.1879               118.8393
 Red. masses --     13.6583                 7.8949                13.6473
 Frc consts  --      0.0361                 0.0292                 0.1136
 IR Inten    --      0.3455                14.4792                 3.5910

                      4                      5                      6
                      A                      A                      A
 Frequencies --    164.7345               168.1647               246.6033
 Red. masses --     12.7744                 9.6290                 5.6079
 Frc consts  --      0.2042                 0.1604                 0.2009
 IR Inten    --      6.6688                23.0839                 0.0005

                      7                      8                      9
                      A                      A                      A
 Frequencies --    327.5822               357.4278               365.3253
 Red. masses --      7.2493                11.0129                14.5468
 Frc consts  --      0.4583                 0.8289                 1.1439
 IR Inten    --      0.0008                 0.6125                18.8035

                     10                     11                     12
                      A                      A                      A
 Frequencies --    435.1103               448.3363               460.6504
 Red. masses --     12.0259                12.5189                 6.3639
 Frc consts  --      1.3414                 1.4826                 0.7956
 IR Inten    --      4.9110                 0.2373                 3.6198

                     13                     14                     15
                      A                      A                      A
 Frequencies --    525.0755               589.0652               625.9297
 Red. masses --     12.1271                 8.9563                 4.5399
 Frc consts  --      1.9699                 1.8311                 1.0480
 IR Inten    --      2.0074                42.2937                 2.4497

                     16                     17                     18
                      A                      A                      A
 Frequencies --    633.8027               634.7977               738.1088
 Red. masses --      2.7152                 8.9452                 8.6469
 Frc consts  --      0.6426                 2.1238                 2.7756
 IR Inten    --      1.4020                 0.0511                 3.5421

                     19                     20                     21
                      A                      A                      A
 Frequencies --    786.0583               866.3076               937.1908
 Red. masses --     10.6084                 2.0745                 9.0950
 Frc consts  --      3.8620                 0.9173                 4.7066
 IR Inten    --      0.0046                68.7418                 0.3689

                     22                     23                     24
                      A                      A                      A
 Frequencies --   1004.9606              1013.3523              1135.8610
 Red. masses --      6.9403                 1.2503                 1.6187
 Frc consts  --      4.1297                 0.7565                 1.2305
 IR Inten    --     66.9812                 0.0010                54.2305

                     25                     26                     27
                      A                      A                      A
 Frequencies --   1137.7341              1291.8030              1310.4044
 Red. masses --      4.4642                 2.8135                 4.7807
 Frc consts  --      3.4047                 2.7662                 4.8367
 IR Inten    --     41.1468               213.4311                99.7486

                     28                     29                     30
                      A                      A                      A
 Frequencies --   1393.9179              1627.6502              1674.0177
 Red. masses --      1.8733                11.0480                 8.3434
 Frc consts  --      2.1445                17.2447                13.7758
 IR Inten    --      0.2135                34.8057                 7.8531

                     31                     32                     33
                      A                      A                      A
 Frequencies --   1722.2587              1727.5898              2335.9042
 Red. masses --     12.1704                11.3435                12.6835
 Frc consts  --     21.2692                19.9471                40.7755
 IR Inten    --    970.1925                 0.1454                 0.8511

                     34                     35                     36
                      A                      A                      A
 Frequencies --   2344.9294              3196.3754              3210.0037
 Red. masses --     12.6781                 1.0885                 1.0996
 Frc consts  --     41.0737                 6.5525                 6.6756
 IR Inten    --      1.9986                 0.0292                 0.5293

 - Thermochemistry -
 -------------------
 Temperature   298.150 Kelvin.  Pressure   1.00000 Atm.
 Atom     1 has atomic number  8 and mass  15.99491

 Molecular mass:   158.01163 amu.
 Principal axes and moments of inertia in atomic units:
                           1         2         3
     Eigenvalues --  1510.922721688.337463199.25270
           X           -0.20253   0.96005  -0.19310
           Y            0.69976   0.27982   0.65729
           Z           -0.68507   0.00200   0.72848
 This molecule is an asymmetric top.
 Rotational symmetry number  1.
 Warning -- assumption of classical behavior for rotation
           may cause significant error
 Rotational temperatures (Kelvin)      0.05733     0.05130     0.02707
 Rotational constants (GHZ):           1.19446     1.06895     0.56411
 Zero-point vibrational energy     213545.7 (Joules/Mol)
                                   51.03864 (Kcal/Mol)
 Warning -- explicit consideration of  14 degrees of freedom as
           vibrations may cause significant error
 Vibrational temperatures:     96.38   113.93   170.98   237.02   241.95
          (Kelvin)            354.81   471.32   514.26   525.62   626.03
                              645.06   662.77   755.47   847.53   900.57
                              911.90   913.33  1061.97  1130.96  1246.42
                             1348.41  1445.91  1457.99  1634.25  1636.95
                             1858.62  1885.38  2005.54  2341.83  2408.54
                             2477.95  2485.62  3360.85  3373.83  4598.87
                             4618.48

 Zero-point correction=                           0.081335 (Hartree/Particle)
 Thermal correction to Energy=                    0.091290
 Thermal correction to Enthalpy=                  0.092234
 Thermal correction to Gibbs Free Energy=         0.045264
 Sum of electronic and zero-point Energies=           -566.007468
 Sum of electronic and thermal Energies=              -565.997513
 Sum of electronic and thermal Enthalpies=            -565.996569
 Sum of electronic and thermal Free Energies=         -566.043539

                     E (Thermal)             CV                S
                      KCal/Mol        Cal/Mol-Kelvin    Cal/Mol-Kelvin
 Total                   57.285             35.561             98.857
 Electronic               0.000              0.000              0.000
 Translational            0.889              2.981             41.082
 Rotational               0.889              2.981             30.480
 Vibrational             55.508             29.599             27.295
 Vibration     1          0.598              1.970              4.240
 Vibration     2          0.600              1.963              3.911
 Vibration     3          0.609              1.934              3.119
 Vibration     4          0.623              1.886              2.495
 Vibration     5          0.625              1.882              2.456
 Vibration     6          0.661              1.768              1.755
 Vibration     7          0.711              1.620              1.272
 Vibration     8          0.733              1.560              1.133
 Vibration     9          0.739              1.544              1.099
 Vibration    10          0.796              1.394              0.842
 Vibration    11          0.807              1.365              0.801
 Vibration    12          0.818              1.337              0.764
 Vibration    13          0.880              1.194              0.598
 Vibration    14          0.946              1.055              0.469

 Optimization completed.
    -- Stationary point found.
 Normal termination of Gaussian 16 at Sat Feb 10 10:11:17 2024.
