 Gaussian 16, Revision A.03,
 Gaussian 16:  ES64L-G16RevA.03 25-Dec-2016

 --------------------------------------
 #P UB3LYP/6-311++G(d,p) nosym opt freq
 --------------------------------------

 --------
 Oxidized
 --------
 Symbolic Z-matrix:
 Charge =  0 Multiplicity = 1

 SCF Done:  E(UB3LYP) =  -496.096138606     A.U. after   15 cycles
 SCF Done:  E(UB3LYP) =  -496.111871295     A.U. after   14 cycles
 SCF Done:  E(UB3LYP) =  -496.113983107     A.U. after   13 cycles
 SCF Done:  E(UB3LYP) =  -496.116017652     A.U. after   14 cycles
 SCF Done:  E(UB3LYP) =  -496.116104341     A.U. after   16 cycles
 SCF Done:  E(UB3LYP) =  -496.119271598     A.U. after   14 cycles
 SCF Done:  E(UB3LYP) =  -496.120263388     A.U. after   13 cycles
 SCF Done:  E(UB3LYP) =  -496.122066324     A.U. after   13 cycles
 SCF Done:  E(UB3LYP) =  -496.122659874     A.U. after   13 cycles
 SCF Done:  E(UB3LYP) =  -496.122835114     A.U. after   13 cycles
 SCF Done:  E(UB3LYP) =  -496.122868483     A.U. after   12 cycles
 SCF Done:  E(UB3LYP) =  -496.122873269     A.U. after   11 cycles
 SCF Done:  E(UB3LYP) =  -496.122877446     A.U. after   11 cycles
 SCF Done:  E(UB3LYP) =  -496.122878582     A.U. after   11 cycles
 SCF Done:  E(UB3LYP) =  -496.122878715     A.U. after    9 cycles
 Optimization completed.
    -- Stationary point found.
 Normal termination of Gaussian 16 at Wed Dec 20 01:34:07 2023.

 ----------------------------------------------------------------------
 #P Geom=AllCheck Guess=TCheck SCRF=Check GenChk UB3LYP/6-311++G(d,p) F
 req
 ----------------------------------------------------------------------

 Structure from the checkpoint file:  "082.chk"
 --------
 Oxidized
 --------
 Charge =  0 Multiplicity = 1

                          Input orientation:
 ---------------------------------------------------------------------
 Center     Atomic      Atomic             Coordinates (Angstroms)
 Number     Number       Type             X           Y           Z
 ---------------------------------------------------------------------
      1          6           0        2.686904    0.368162    0.492280
      2          8           0        1.729845   -0.666600    0.256292
      3          6           0        0.447826   -0.325604    0.118917
      4          6           0       -0.071246    0.923029    0.178432
      5          6           0       -1.508321    1.160865    0.008915
      6          8           0       -1.987393    2.285341    0.060650
      7          6           0       -2.386363   -0.018476   -0.231709
      8          6           0       -1.887711   -1.258176   -0.293134
      9          6           0       -0.440253   -1.524759   -0.124996
     10          8           0        0.013906   -2.648687   -0.179577
     11          1           0        2.465325    0.895241    1.424834
     12          1           0        3.648231   -0.134138    0.569741
     13          1           0        2.702926    1.077877   -0.339956
     14          1           0        0.532461    1.804043    0.351034
     15          1           0       -3.442558    0.195248   -0.352063
     16          1           0       -2.503579   -2.133366   -0.467100
 ---------------------------------------------------------------------

 SCF Done:  E(UB3LYP) =  -496.122878715     A.U. after    1 cycles

 Alpha  occ. eigenvalues --  -19.19632 -19.14645 -19.13253 -10.29374 -10.28338
 Alpha  occ. eigenvalues --  -10.28091 -10.25201 -10.21921 -10.21803 -10.20304
 Alpha  occ. eigenvalues --   -1.11852  -1.07448  -1.06252  -0.86676  -0.80128
 Alpha  occ. eigenvalues --   -0.75687  -0.70287  -0.63778  -0.61721  -0.55461
 Alpha  occ. eigenvalues --   -0.53771  -0.50853  -0.50762  -0.48835  -0.46055
 Alpha  occ. eigenvalues --   -0.45214  -0.45167  -0.43648  -0.41994  -0.41919
 Alpha  occ. eigenvalues --   -0.37916  -0.37544  -0.31501  -0.29098  -0.27974
 Alpha  occ. eigenvalues --   -0.27698
 Alpha virt. eigenvalues --   -0.13337  -0.02847  -0.01632  -0.00331  -0.00164
 Alpha virt. eigenvalues --    0.01200   0.01646   0.02332   0.02879   0.04767
 Alpha virt. eigenvalues --    0.05304   0.05835   0.06901   0.07204   0.07769

  Beta  occ. eigenvalues --  -19.19632 -19.14645 -19.13253 -10.29374 -10.28338
  Beta  occ. eigenvalues --  -10.28091 -10.25201 -10.21921 -10.21803 -10.20304
  Beta  occ. eigenvalues --   -1.11852  -1.07448  -1.06252  -0.86676  -0.80128
  Beta  occ. eigenvalues --   -0.75687  -0.70287  -0.63778  -0.61721  -0.55461
  Beta  occ. eigenvalues --   -0.53771  -0.50853  -0.50762  -0.48835  -0.46055
  Beta  occ. eigenvalues --   -0.45214  -0.45167  -0.43648  -0.41994  -0.41919
  Beta  occ. eigenvalues --   -0.37916  -0.37544  -0.31501  -0.29098  -0.27974
  Beta  occ. eigenvalues --   -0.27698
  Beta virt. eigenvalues --   -0.13337  -0.02847  -0.01632  -0.00331  -0.00164
  Beta virt. eigenvalues --    0.01200   0.01646   0.02332   0.02879   0.04767
  Beta virt. eigenvalues --    0.05304   0.05835   0.06901   0.07204   0.07769

 Mulliken charges and spin densities:
               1          2
     1  C   -0.296516   0.000000
     2  O   -0.121339  -0.000000
     3  C   -0.196823   0.000000
     4  C    0.680537  -0.000000
     5  C   -0.673471  -0.000000
     6  O   -0.247144   0.000000
     7  C    0.243557   0.000000
     8  C    0.238792   0.000000
     9  C   -0.607093  -0.000000
    10  O   -0.217441   0.000000
    11  H    0.160983  -0.000000
    12  H    0.195046   0.000000
    13  H    0.160995  -0.000000
    14  H    0.231171  -0.000000
    15  H    0.226037   0.000000
    16  H    0.222708   0.000000
 Sum of Mulliken charges =  -0.00000   0.00000

 Dipole moment (field-independent basis, Debye):
    X=              1.5456    Y=              0.5518    Z=              0.2642  Tot=              1.6623
 Quadrupole moment (field-independent basis, Debye-Ang):
   XX=            -48.8537   YY=            -73.3379   ZZ=            -57.1153
   XY=             12.4845   XZ=              2.6005   YZ=              0.0991

  Exact polarizability: 108.111 -18.516 118.766   5.600   4.375  53.592
 Approx polarizability: 152.559 -64.961 237.295   3.299   7.709  79.486

                      1                      2                      3
                      A                      A                      A
 Frequencies --     77.5573               122.1643               151.9712
 Red. masses --      6.3304                 3.8410                 3.3017
 Frc consts  --      0.0224                 0.0338                 0.0449
 IR Inten    --     12.3043                 0.2855                 3.7858

                      4                      5                      6
                      A                      A                      A
 Frequencies --    208.6945               231.2747               276.5243
 Red. masses --      3.9119                 1.2928                 3.5804
 Frc consts  --      0.1004                 0.0407                 0.1613
 IR Inten    --      3.9443                 0.1800                 0.5841

                      7                      8                      9
                      A                      A                      A
 Frequencies --    339.9155               430.4598               452.2989
 Red. masses --      6.8756                 8.1777                 8.6887
 Frc consts  --      0.4681                 0.8928                 1.0473
 IR Inten    --      6.6737                18.0222                 2.9639

                     10                     11                     12
                      A                      A                      A
 Frequencies --    453.2729               505.7357               591.8709
 Red. masses --      3.1502                 6.7828                 4.7516
 Frc consts  --      0.3813                 1.0221                 0.9807
 IR Inten    --      0.0696                 7.3868                 1.2985

                     13                     14                     15
                      A                      A                      A
 Frequencies --    634.4130               694.9844               773.3458
 Red. masses --      2.5652                 6.5510                 3.7206
 Frc consts  --      0.6083                 1.8643                 1.3110
 IR Inten    --      5.2469                 4.3598                 0.2277

                     16                     17                     18
                      A                      A                      A
 Frequencies --    795.8113               830.4702               882.9340
 Red. masses --      5.3479                 1.8754                 1.8487
 Frc consts  --      1.9955                 0.7621                 0.8491
 IR Inten    --      2.9674                 1.2503                73.3083

                     19                     20                     21
                      A                      A                      A
 Frequencies --    909.5889              1003.8387              1017.6646
 Red. masses --      3.1651                 1.2353                 6.2630
 Frc consts  --      1.5428                 0.7334                 3.8216
 IR Inten    --      1.4510                 0.0163                34.2108

                     22                     23                     24
                      A                      A                      A
 Frequencies --   1112.1779              1167.4803              1192.7604
 Red. masses --      1.5813                 1.2792                 1.6456
 Frc consts  --      1.1524                 1.0273                 1.3794
 IR Inten    --    111.2946                 0.8267                18.5731

                     25                     26                     27
                      A                      A                      A
 Frequencies --   1213.1576              1256.1828              1319.0037
 Red. masses --      1.5574                 2.5218                 3.8324
 Frc consts  --      1.3504                 2.3446                 3.9284
 IR Inten    --      7.4541               308.1259                27.4750

                     28                     29                     30
                      A                      A                      A
 Frequencies --   1366.2857              1387.8602              1474.3238
 Red. masses --      2.4770                 2.0960                 1.2283
 Frc consts  --      2.7244                 2.3787                 1.5731
 IR Inten    --     39.1885                 9.5892                 3.2516

                     31                     32                     33
                      A                      A                      A
 Frequencies --   1492.7323              1498.3767              1633.4919
 Red. masses --      1.0443                 1.0466                 7.3278
 Frc consts  --      1.3710                 1.3844                11.5201
 IR Inten    --     11.9151                16.9218               271.4115

                     34                     35                     36
                      A                      A                      A
 Frequencies --   1676.1701              1708.8232              1748.3038
 Red. masses --      8.4912                 9.3074                11.7483
 Frc consts  --     14.0558                16.0130                21.1573
 IR Inten    --      8.8993               278.4908               228.3937

                     37                     38                     39
                      A                      A                      A
 Frequencies --   3021.2971              3087.7003              3153.8231
 Red. masses --      1.0334                 1.1068                 1.1013
 Frc consts  --      5.5578                 6.2172                 6.4538
 IR Inten    --     28.4104                23.4145                11.1817

                     40                     41                     42
                      A                      A                      A
 Frequencies --   3177.9549              3195.7220              3207.0814
 Red. masses --      1.0872                 1.0993                 1.0911
 Frc consts  --      6.4694                 6.6148                 6.6123
 IR Inten    --      0.9561                 2.8006                 2.3343

 - Thermochemistry -
 -------------------
 Temperature   298.150 Kelvin.  Pressure   1.00000 Atm.
 Atom     1 has atomic number  6 and mass  12.00000

 Molecular mass:   138.03169 amu.
 Principal axes and moments of inertia in atomic units:
                           1         2         3
     Eigenvalues --   931.618931468.643442388.73001
           X            0.89676   0.42208  -0.13294
           Y           -0.43598   0.89416  -0.10200
           Z            0.07582   0.14943   0.98586
 This molecule is an asymmetric top.
 Rotational symmetry number  1.
 Warning -- assumption of classical behavior for rotation
           may cause significant error
 Rotational temperatures (Kelvin)      0.09297     0.05898     0.03626
 Rotational constants (GHZ):           1.93721     1.22885     0.75552
 Zero-point vibrational energy     307891.9 (Joules/Mol)
                                   73.58792 (Kcal/Mol)
 Warning -- explicit consideration of  12 degrees of freedom as
           vibrations may cause significant error
 Vibrational temperatures:    111.59   175.77   218.65   300.26   332.75
          (Kelvin)            397.86   489.06   619.34   650.76   652.16
                              727.64   851.57   912.78   999.93  1112.67
                             1144.99  1194.86  1270.35  1308.70  1444.30
                             1464.19  1600.18  1679.74  1716.12  1745.46
                             1807.37  1897.75  1965.78  1996.82  2121.22
                             2147.71  2155.83  2350.23  2411.63  2458.62
                             2515.42  4346.97  4442.51  4537.65  4572.37
                             4597.93  4614.27

 Zero-point correction=                           0.117270 (Hartree/Particle)
 Thermal correction to Energy=                    0.126099
 Thermal correction to Enthalpy=                  0.127043
 Thermal correction to Gibbs Free Energy=         0.083196
 Sum of electronic and zero-point Energies=           -496.005609
 Sum of electronic and thermal Energies=              -495.996780
 Sum of electronic and thermal Enthalpies=            -495.995835
 Sum of electronic and thermal Free Energies=         -496.039682

                     E (Thermal)             CV                S
                      KCal/Mol        Cal/Mol-Kelvin    Cal/Mol-Kelvin
 Total                   79.128             32.415             92.284
 Electronic               0.000              0.000              0.000
 Translational            0.889              2.981             40.679
 Rotational               0.889              2.981             29.570
 Vibrational             77.351             26.453             22.035
 Vibration     1          0.599              1.964              3.952
 Vibration     2          0.610              1.931              3.066
 Vibration     3          0.619              1.900              2.647
 Vibration     4          0.642              1.827              2.055
 Vibration     5          0.653              1.793              1.869
 Vibration     6          0.678              1.717              1.555
 Vibration     7          0.720              1.596              1.213
 Vibration     8          0.792              1.404              0.857
 Vibration     9          0.811              1.356              0.789
 Vibration    10          0.812              1.354              0.786
 Vibration    11          0.861              1.237              0.644
 Vibration    12          0.949              1.049              0.464

 Optimization completed.
    -- Stationary point found.
 Normal termination of Gaussian 16 at Wed Dec 20 01:38:28 2023.
