 Q-Chem 5.4, Q-Chem, Inc., Pleasanton, CA (2021)
 Q-Chem 5.4.0 for Intel X86 EM64T Linux

User input:
--------------------------------------------------------------
$molecule
-2 1
C                 -0.7993500000      2.8581910000      0.3569350000
C                 -1.4906060000      2.9604780000     -0.8326070000
C                 -1.0245820000      2.2836600000     -1.9881100000
C                  0.3879080000      2.0821340000      0.4657370000
C                  0.8611790000      1.3919080000     -0.7110250000
C                  0.1301030000      1.5192860000     -1.9059350000
C                  1.0895120000      1.9894300000      1.7060080000
C                  2.2595060000      1.1855060000      1.7024990000
C                  2.7542590000      0.5019140000      0.5714660000
C                  2.0815260000      0.5658140000     -0.7041330000
O                  0.7520010000      2.5684670000      2.8316000000
O                  2.4777160000     -0.0414460000     -1.7438330000
O                  2.8760270000      1.1424150000      2.9218060000
H                 -1.1389480000      3.3672610000      1.2533710000
H                 -2.3968690000      3.5619000000     -0.8847430000
H                 -1.5681700000      2.3621910000     -2.9268930000
H                  0.5155150000      0.9854170000     -2.7690950000
H                  2.2508140000      1.7223880000      3.4318440000
S                  4.3156010000     -0.3452900000      0.6845600000
C                  3.9425880000     -2.0857440000      0.7873220000
C                  2.6497070000     -2.6131560000      0.6633640000
C                  5.0011720000     -2.9822310000      0.9945920000
C                  2.4367450000     -3.9850660000      0.7516560000
C                  4.7742450000     -4.3548990000      1.0780030000
C                  3.4872200000     -4.8895280000      0.9600190000
C                  3.2365890000     -6.3779970000      1.0497760000
H                  1.8244980000     -1.9331390000      0.4901590000
H                  6.0125700000     -2.5980130000      1.0956390000
H                  1.4218680000     -4.3640350000      0.6494100000
H                  5.6168130000     -5.0237030000      1.2435530000
H                  4.1597440000     -6.9294080000      1.2543040000
H                  2.8181980000     -6.7798160000      0.1184060000
H                  2.5271580000     -6.6264250000      1.8493420000
$end

$rem
BASIS  =  6-311++G(d,p)
GUI  =  2
JOB_TYPE  =  SP
METHOD  =  B3LYP
SCF_CONVERGENCE  = 8
SOLVENT_METHOD = sm12
$end

$smx
solvent dimethylformamide
charges CM5
$end

--------------------------------------------------------------

             Standard Nuclear Orientation (Angstroms)
    I     Atom           X                Y                Z
 ----------------------------------------------------------------
    1      C      -0.7993500000     2.8581910000     0.3569350000
    2      C      -1.4906060000     2.9604780000    -0.8326070000
    3      C      -1.0245820000     2.2836600000    -1.9881100000
    4      C       0.3879080000     2.0821340000     0.4657370000
    5      C       0.8611790000     1.3919080000    -0.7110250000
    6      C       0.1301030000     1.5192860000    -1.9059350000
    7      C       1.0895120000     1.9894300000     1.7060080000
    8      C       2.2595060000     1.1855060000     1.7024990000
    9      C       2.7542590000     0.5019140000     0.5714660000
   10      C       2.0815260000     0.5658140000    -0.7041330000
   11      O       0.7520010000     2.5684670000     2.8316000000
   12      O       2.4777160000    -0.0414460000    -1.7438330000
   13      O       2.8760270000     1.1424150000     2.9218060000
   14      H      -1.1389480000     3.3672610000     1.2533710000
   15      H      -2.3968690000     3.5619000000    -0.8847430000
   16      H      -1.5681700000     2.3621910000    -2.9268930000
   17      H       0.5155150000     0.9854170000    -2.7690950000
   18      H       2.2508140000     1.7223880000     3.4318440000
   19      S       4.3156010000    -0.3452900000     0.6845600000
   20      C       3.9425880000    -2.0857440000     0.7873220000
   21      C       2.6497070000    -2.6131560000     0.6633640000
   22      C       5.0011720000    -2.9822310000     0.9945920000
   23      C       2.4367450000    -3.9850660000     0.7516560000
   24      C       4.7742450000    -4.3548990000     1.0780030000
   25      C       3.4872200000    -4.8895280000     0.9600190000
   26      C       3.2365890000    -6.3779970000     1.0497760000
   27      H       1.8244980000    -1.9331390000     0.4901590000
   28      H       6.0125700000    -2.5980130000     1.0956390000
   29      H       1.4218680000    -4.3640350000     0.6494100000
   30      H       5.6168130000    -5.0237030000     1.2435530000
   31      H       4.1597440000    -6.9294080000     1.2543040000
   32      H       2.8181980000    -6.7798160000     0.1184060000
   33      H       2.5271580000    -6.6264250000     1.8493420000
 ----------------------------------------------------------------

   18   -1279.1532238043      3.75e-09  Convergence criterion met
 Total energy in the final basis set =    -1279.4303801866

                    Orbital Energies (a.u.)
 --------------------------------------------------------------

 Alpha MOs
 -- Occupied --
-88.8378 -19.1186 -19.0303 -19.0293 -10.2040 -10.1969 -10.1967 -10.1849
-10.1809 -10.1800 -10.1795 -10.1761 -10.1751 -10.1727 -10.1722 -10.1690
-10.1682 -10.1671 -10.1616 -10.1560 -10.1529  -7.9227  -5.8867  -5.8826
 -5.8772  -1.0350  -0.9554  -0.9308  -0.8676  -0.8440  -0.8042  -0.7786
 -0.7528  -0.7437  -0.7425  -0.7050  -0.6684  -0.6449  -0.6162  -0.6042
 -0.5915  -0.5734  -0.5518  -0.5183  -0.5044  -0.4832  -0.4735  -0.4599
 -0.4565  -0.4423  -0.4379  -0.4275  -0.4227  -0.4221  -0.4110  -0.3976
 -0.3892  -0.3787  -0.3753  -0.3685  -0.3636  -0.3607  -0.3587  -0.3474
 -0.3401  -0.3325  -0.3228  -0.3071  -0.3032  -0.2792  -0.2633  -0.2485
 -0.2365  -0.2190  -0.2137  -0.2057  -0.1970  -0.1207

          Ground-State Mulliken Net Atomic Charges

     Atom                 Charge (a.u.)
  ----------------------------------------
      1 C                    -0.452879
      2 C                     1.072932
      3 C                     0.863193
      4 C                    -1.936894
      5 C                    -1.449050
      6 C                    -0.428760
      7 C                    -2.170588
      8 C                    -0.707610
      9 C                     2.795566
     10 C                    -2.229701
     11 O                    -0.452688
     12 O                    -0.255847
     13 O                    -0.014848
     14 H                     0.130545
     15 H                     0.387074
     16 H                     0.354288
     17 H                     0.114710
     18 H                     0.299762
     19 S                     0.852058
     20 C                    -2.871642
     21 C                    -3.514130
     22 C                     1.027800
     23 C                     0.417491
     24 C                     0.489080
     25 C                     2.394520
     26 C                     1.888904
     27 H                    -0.289502
     28 H                     0.347084
     29 H                     0.285998
     30 H                     0.268091
     31 H                     0.331005
     32 H                     0.224743
     33 H                     0.229295
  ----------------------------------------
  Sum of atomic charges =    -2.000000

                    Cartesian Multipole Moments
 -----------------------------------------------------------------
    Charge (ESU x 10^10)
                -9.6064
    Dipole Moment (Debye)
         X     -16.1494      Y     -11.2211      Z      -4.4172
       Tot      20.1551
    Quadrupole Moments (Debye-Ang)
        XX    -194.7526     XY       1.4737     YY    -172.8011
        XZ      -6.1285     YZ     -16.7420     ZZ    -184.7952

 Total job time:  1133.81s(wall), 8605.43s(cpu)
        *  Thank you very much for using Q-Chem.  Have a nice day.  *
