 Gaussian 16, Revision A.03,
 Gaussian 16:  ES64L-G16RevA.03 25-Dec-2016

 --------------------------------------
 #P UB3LYP/6-311++G(d,p) nosym opt freq
 --------------------------------------

 -------
 Reduced
 -------
 Symbolic Z-matrix:
 Charge = -2 Multiplicity = 1

 SCF Done:  E(UB3LYP) =  -1279.16872195     A.U. after   47 cycles
 SCF Done:  E(UB3LYP) =  -1279.16872186     A.U. after   22 cycles
 Optimization completed.
    -- Stationary point found.
 Normal termination of Gaussian 16 at Tue Jan  9 02:33:49 2024.

 ----------------------------------------------------------------------
 #P Geom=AllCheck Guess=TCheck SCRF=Check GenChk UB3LYP/6-311++G(d,p) F
 req
 ----------------------------------------------------------------------

 Structure from the checkpoint file:  "297-an.chk"
 -------
 Reduced
 -------
 Charge = -2 Multiplicity = 1

                          Input orientation:
 ---------------------------------------------------------------------
 Center     Atomic      Atomic             Coordinates (Angstroms)
 Number     Number       Type             X           Y           Z
 ---------------------------------------------------------------------
      1          6           0       -0.799350    2.858191    0.356935
      2          6           0       -1.490606    2.960478   -0.832607
      3          6           0       -1.024582    2.283660   -1.988110
      4          6           0        0.387908    2.082134    0.465737
      5          6           0        0.861179    1.391908   -0.711025
      6          6           0        0.130103    1.519286   -1.905935
      7          6           0        1.089512    1.989430    1.706008
      8          6           0        2.259506    1.185506    1.702499
      9          6           0        2.754259    0.501914    0.571466
     10          6           0        2.081526    0.565814   -0.704133
     11          8           0        0.752001    2.568467    2.831600
     12          8           0        2.477716   -0.041446   -1.743833
     13          8           0        2.876027    1.142415    2.921806
     14          1           0       -1.138948    3.367261    1.253371
     15          1           0       -2.396869    3.561900   -0.884743
     16          1           0       -1.568170    2.362191   -2.926893
     17          1           0        0.515515    0.985417   -2.769095
     18          1           0        2.250814    1.722388    3.431844
     19         16           0        4.315601   -0.345290    0.684560
     20          6           0        3.942588   -2.085744    0.787322
     21          6           0        2.649707   -2.613156    0.663364
     22          6           0        5.001172   -2.982231    0.994592
     23          6           0        2.436745   -3.985066    0.751656
     24          6           0        4.774245   -4.354899    1.078003
     25          6           0        3.487220   -4.889528    0.960019
     26          6           0        3.236589   -6.377997    1.049776
     27          1           0        1.824498   -1.933139    0.490159
     28          1           0        6.012570   -2.598013    1.095639
     29          1           0        1.421868   -4.364035    0.649410
     30          1           0        5.616813   -5.023703    1.243553
     31          1           0        4.159744   -6.929408    1.254304
     32          1           0        2.818198   -6.779816    0.118406
     33          1           0        2.527158   -6.626425    1.849342
 ---------------------------------------------------------------------

 SCF Done:  E(UB3LYP) =  -1279.16872186     A.U. after    4 cycles

 Alpha  occ. eigenvalues --  -88.62373 -18.89562 -18.80906 -18.80878 -10.00010
 Alpha  occ. eigenvalues --   -9.99916  -9.99135  -9.98649  -9.98192  -9.98058
 Alpha  occ. eigenvalues --   -9.97500  -9.97471  -9.97122  -9.95145  -9.95115
 Alpha  occ. eigenvalues --   -9.94480  -9.94142  -9.94065  -9.93988  -9.93119
 Alpha  occ. eigenvalues --   -9.92829  -7.70911  -5.67319  -5.66891  -5.66344
 Alpha  occ. eigenvalues --   -0.81231  -0.73239  -0.70868  -0.66956  -0.61883
 Alpha  occ. eigenvalues --   -0.60129  -0.56560  -0.55358  -0.53454  -0.51615
 Alpha  occ. eigenvalues --   -0.50015  -0.45990  -0.42553  -0.41678  -0.39091
 Alpha  occ. eigenvalues --   -0.37594  -0.35883  -0.32709  -0.30337  -0.29481
 Alpha  occ. eigenvalues --   -0.28015  -0.26710  -0.25637  -0.24998  -0.23685
 Alpha  occ. eigenvalues --   -0.22860  -0.22187  -0.21759  -0.21280  -0.20319
 Alpha  occ. eigenvalues --   -0.19315  -0.17538  -0.17257  -0.16451  -0.15266
 Alpha  occ. eigenvalues --   -0.14903  -0.14687  -0.13782  -0.13597  -0.12198
 Alpha  occ. eigenvalues --   -0.10855  -0.10066  -0.08755  -0.08008  -0.07720
 Alpha  occ. eigenvalues --   -0.06346  -0.02061  -0.01055  -0.00023   0.00737
 Alpha  occ. eigenvalues --    0.01461   0.01886   0.10711
 Alpha virt. eigenvalues --    0.11798   0.14362   0.15175   0.15814   0.15958
 Alpha virt. eigenvalues --    0.16999   0.17552   0.17880   0.18828   0.18967
 Alpha virt. eigenvalues --    0.19474   0.19979   0.20377   0.20773   0.21485

  Beta  occ. eigenvalues --  -88.62373 -18.89562 -18.80906 -18.80878 -10.00010
  Beta  occ. eigenvalues --   -9.99916  -9.99135  -9.98649  -9.98192  -9.98058
  Beta  occ. eigenvalues --   -9.97500  -9.97471  -9.97122  -9.95145  -9.95115
  Beta  occ. eigenvalues --   -9.94480  -9.94142  -9.94065  -9.93988  -9.93119
  Beta  occ. eigenvalues --   -9.92829  -7.70911  -5.67319  -5.66891  -5.66344
  Beta  occ. eigenvalues --   -0.81231  -0.73239  -0.70868  -0.66956  -0.61883
  Beta  occ. eigenvalues --   -0.60129  -0.56560  -0.55358  -0.53454  -0.51615
  Beta  occ. eigenvalues --   -0.50015  -0.45990  -0.42553  -0.41678  -0.39091
  Beta  occ. eigenvalues --   -0.37594  -0.35883  -0.32709  -0.30337  -0.29481
  Beta  occ. eigenvalues --   -0.28015  -0.26710  -0.25637  -0.24998  -0.23685
  Beta  occ. eigenvalues --   -0.22860  -0.22187  -0.21759  -0.21280  -0.20319
  Beta  occ. eigenvalues --   -0.19315  -0.17538  -0.17257  -0.16451  -0.15266
  Beta  occ. eigenvalues --   -0.14903  -0.14687  -0.13782  -0.13597  -0.12198
  Beta  occ. eigenvalues --   -0.10855  -0.10066  -0.08755  -0.08008  -0.07720
  Beta  occ. eigenvalues --   -0.06346  -0.02061  -0.01055  -0.00023   0.00737
  Beta  occ. eigenvalues --    0.01461   0.01886   0.10711
  Beta virt. eigenvalues --    0.11798   0.14362   0.15175   0.15814   0.15958
  Beta virt. eigenvalues --    0.16999   0.17552   0.17880   0.18828   0.18967
  Beta virt. eigenvalues --    0.19474   0.19979   0.20377   0.20773   0.21485

 Mulliken charges and spin densities:
               1          2
     1  C   -0.218387   0.000000
     2  C   -0.444014   0.000000
     3  C   -0.454222  -0.000000
     4  C    0.507978   0.000000
     5  C    0.206141  -0.000000
     6  C   -0.071216  -0.000000
     7  C   -1.230442  -0.000000
     8  C   -0.680530  -0.000000
     9  C    2.639836   0.000000
    10  C   -1.072107   0.000000
    11  O   -0.580661  -0.000000
    12  O   -0.404816  -0.000000
    13  O   -0.224046   0.000000
    14  H    0.152282   0.000000
    15  H    0.081040  -0.000000
    16  H    0.082515  -0.000000
    17  H    0.154287   0.000000
    18  H    0.250906  -0.000000
    19  S   -0.007511  -0.000000
    20  C    0.035890   0.000000
    21  C   -0.200926   0.000000
    22  C   -0.025435  -0.000000
    23  C   -0.549625  -0.000000
    24  C   -0.200520   0.000000
    25  C   -1.282331  -0.000000
    26  C    1.721927   0.000000
    27  H    0.201694   0.000000
    28  H    0.107789  -0.000000
    29  H    0.151727  -0.000000
    30  H   -0.031290   0.000000
    31  H   -0.626189   0.000000
    32  H    0.026563   0.000000
    33  H   -0.016306   0.000000
 Sum of Mulliken charges =  -2.00000  -0.00000

 Dipole moment (field-independent basis, Debye):
    X=            -20.0795    Y=              1.3095    Z=             -5.8545  Tot=             20.9565
 Quadrupole moment (field-independent basis, Debye-Ang):
   XX=           -220.7593   YY=           -254.5773   ZZ=           -186.2920
   XY=             47.8174   XZ=            -14.8909   YZ=              0.4293

  Exact polarizability: 850.022-685.3982580.793 141.154-245.631 385.699
 Approx polarizability:1854.394**************** 400.131-991.422 623.074

                      1                      2                      3
                      A                      A                      A
 Frequencies --     11.6844                26.8314                30.9423
 Red. masses --      6.2325                 3.6964                 5.8620
 Frc consts  --      0.0005                 0.0016                 0.0033
 IR Inten    --      0.8852                 0.2492                 0.3205

                      4                      5                      6
                      A                      A                      A
 Frequencies --     85.4903                89.6830               111.4494
 Red. masses --      3.6447                 2.0875                 2.8599
 Frc consts  --      0.0157                 0.0099                 0.0209
 IR Inten    --      2.1482                 9.0785                10.7675

                      7                      8                      9
                      A                      A                      A
 Frequencies --    115.3319               155.9219               181.7552
 Red. masses --      2.6304                 5.9703                 7.1380
 Frc consts  --      0.0206                 0.0855                 0.1389
 IR Inten    --     12.9756                 1.0142                 1.3526

                     10                     11                     12
                      A                      A                      A
 Frequencies --    197.3869               207.6932               262.7987
 Red. masses --      7.4488                 7.4716                 6.3817
 Frc consts  --      0.1710                 0.1899                 0.2597
 IR Inten    --      1.9682                 2.4895                 2.7234

                     13                     14                     15
                      A                      A                      A
 Frequencies --    294.0330               297.5899               336.7083
 Red. masses --      4.5568                 5.9625                 4.7226
 Frc consts  --      0.2321                 0.3111                 0.3155
 IR Inten    --      7.1270                 6.4142                 3.1715

                     16                     17                     18
                      A                      A                      A
 Frequencies --    348.5968               365.4277               374.2990
 Red. masses --      4.5969                 9.8364                 5.9404
 Frc consts  --      0.3291                 0.7739                 0.4903
 IR Inten    --     22.4285                 2.2479                 3.3076

                     19                     20                     21
                      A                      A                      A
 Frequencies --    392.4855               415.1960               429.8548
 Red. masses --      9.9965                 2.9840                 9.2923
 Frc consts  --      0.9073                 0.3031                 1.0116
 IR Inten    --     79.7581                 1.7305               194.6210

                     22                     23                     24
                      A                      A                      A
 Frequencies --    433.4957               469.6152               486.9670
 Red. masses --      5.3647                 4.2034                 2.7104
 Frc consts  --      0.5940                 0.5462                 0.3787
 IR Inten    --     74.4267               173.5734                33.9815

                     25                     26                     27
                      A                      A                      A
 Frequencies --    497.5005               536.5729               582.2581
 Red. masses --      8.8477                 5.2719                 8.5702
 Frc consts  --      1.2902                 0.8943                 1.7119
 IR Inten    --    547.5773                 6.0939                 5.0078

                     28                     29                     30
                      A                      A                      A
 Frequencies --    622.8551               651.8947               659.6570
 Red. masses --      5.5451                 6.9937                 6.7796
 Frc consts  --      1.2675                 1.7511                 1.7382
 IR Inten    --     11.7666                 5.2542                 0.9246

                     31                     32                     33
                      A                      A                      A
 Frequencies --    685.8287               693.6581               711.8823
 Red. masses --      6.0442                 1.8076                 7.2151
 Frc consts  --      1.6750                 0.5125                 2.1543
 IR Inten    --      2.5753                59.5116                18.4061

                     34                     35                     36
                      A                      A                      A
 Frequencies --    713.4520               741.6723               773.9302
 Red. masses --      3.5880                 2.8921                 3.3008
 Frc consts  --      1.0760                 0.9373                 1.1649
 IR Inten    --      0.4289                12.4424                 3.0451

                     37                     38                     39
                      A                      A                      A
 Frequencies --    801.7934               803.2366               808.4426
 Red. masses --      1.5652                 3.9866                 1.3429
 Frc consts  --      0.5929                 1.5154                 0.5171
 IR Inten    --      7.8640                 4.7172                29.4176

                     40                     41                     42
                      A                      A                      A
 Frequencies --    820.8474               821.1313               833.9662
 Red. masses --      2.2532                 2.3490                 1.2919
 Frc consts  --      0.8945                 0.9332                 0.5294
 IR Inten    --     22.2923                28.6187                 4.3953

                     43                     44                     45
                      A                      A                      A
 Frequencies --    887.7040               927.2887               947.5395
 Red. masses --      7.4027                 1.2878                 1.2635
 Frc consts  --      3.4370                 0.6524                 0.6684
 IR Inten    --     68.7085                 0.9122                 1.3636

                     46                     47                     48
                      A                      A                      A
 Frequencies --    960.7381               968.4268               991.4452
 Red. masses --      1.3231                 1.3276                 1.4157
 Frc consts  --      0.7196                 0.7336                 0.8199
 IR Inten    --      0.6013                 1.8629                89.8908

                     49                     50                     51
                      A                      A                      A
 Frequencies --   1011.4453              1029.9272              1035.1813
 Red. masses --      3.7320                 3.0489                 2.9894
 Frc consts  --      2.2495                 1.9055                 1.8874
 IR Inten    --    400.7028                30.4561               115.4305

                     52                     53                     54
                      A                      A                      A
 Frequencies --   1062.4850              1079.6295              1090.2477
 Red. masses --      1.4971                 4.5326                 2.5666
 Frc consts  --      0.9958                 3.1127                 1.7974
 IR Inten    --     10.9247               146.6505               141.9259

                     55                     56                     57
                      A                      A                      A
 Frequencies --   1129.3021              1130.9810              1143.0149
 Red. masses --      1.3959                 1.3747                 3.8151
 Frc consts  --      1.0489                 1.0360                 2.9367
 IR Inten    --     29.7124               129.7767               418.0555

                     58                     59                     60
                      A                      A                      A
 Frequencies --   1177.1434              1198.4511              1219.2459
 Red. masses --      2.2290                 1.1451                 3.0487
 Frc consts  --      1.8198                 0.9691                 2.6702
 IR Inten    --     46.1171                 2.8787               238.4566

                     61                     62                     63
                      A                      A                      A
 Frequencies --   1223.4580              1249.2201              1309.3438
 Red. masses --      2.9656                 2.1586                 3.9662
 Frc consts  --      2.6155                 1.9848                 4.0062
 IR Inten    --     52.1254                19.3227                18.8809

                     64                     65                     66
                      A                      A                      A
 Frequencies --   1328.3328              1337.4967              1342.0167
 Red. masses --      1.5894                 5.9700                 2.1959
 Frc consts  --      1.6524                 6.2923                 2.3302
 IR Inten    --    144.9361              1661.9844                56.5251

                     67                     68                     69
                      A                      A                      A
 Frequencies --   1399.4055              1409.1072              1423.0076
 Red. masses --      1.4927                 3.5922                 2.7197
 Frc consts  --      1.7223                 4.2024                 3.2448
 IR Inten    --   2170.3157              2817.4094                37.1505

                     70                     71                     72
                      A                      A                      A
 Frequencies --   1433.1523              1448.7855              1481.1864
 Red. masses --      3.5528                 3.4622                 1.0469
 Frc consts  --      4.2994                 4.2816                 1.3532
 IR Inten    --    115.8485               522.9056               114.7749

                     73                     74                     75
                      A                      A                      A
 Frequencies --   1490.5705              1493.3616              1508.2359
 Red. masses --      1.8956                 1.5629                 4.1061
 Frc consts  --      2.4814                 2.0536                 5.5033
 IR Inten    --   1214.2032               168.3181               927.1360

                     76                     77                     78
                      A                      A                      A
 Frequencies --   1514.7736              1542.1894              1567.4598
 Red. masses --      2.6491                 3.0614                 3.4298
 Frc consts  --      3.5814                 4.2899                 4.9649
 IR Inten    --     72.5271               813.3325              2349.8083

                     79                     80                     81
                      A                      A                      A
 Frequencies --   1585.6900              1601.5473              1629.2168
 Red. masses --      5.4893                 5.9099                 5.5532
 Frc consts  --      8.1321                 8.9312                 8.6846
 IR Inten    --     39.7787              1860.3291                 6.8362

                     82                     83                     84
                      A                      A                      A
 Frequencies --   2985.1324              3021.2047              3059.6892
 Red. masses --      1.0378                 1.0998                 1.0980
 Frc consts  --      5.4484                 5.9148                 6.0563
 IR Inten    --     12.7764                47.6293                18.7512

                     85                     86                     87
                      A                      A                      A
 Frequencies --   3097.2257              3112.2859              3122.1325
 Red. masses --      1.0834                 1.0868                 1.0885
 Frc consts  --      6.1231                 6.2024                 6.2515
 IR Inten    --    103.4554                51.0002                24.8660

                     88                     89                     90
                      A                      A                      A
 Frequencies --   3123.4118              3142.0943              3160.3173
 Red. masses --      1.0901                 1.0916                 1.0905
 Frc consts  --      6.2655                 6.3497                 6.4168
 IR Inten    --    249.0378               100.0381                27.7477

                     91                     92                     93
                      A                      A                      A
 Frequencies --   3163.0502              3188.5337              3289.9951
 Red. masses --      1.0917                 1.0914                 1.0634
 Frc consts  --      6.4353                 6.5376                 6.7819
 IR Inten    --    216.6908                12.3485                94.2649

 - Thermochemistry -
 -------------------
 Temperature   298.150 Kelvin.  Pressure   1.00000 Atm.
 Atom     1 has atomic number  6 and mass  12.00000

 Molecular mass:   296.05072 amu.
 Principal axes and moments of inertia in atomic units:
                           1         2         3
     Eigenvalues --  3280.23204********************
           X           -0.51320   0.44642   0.73303
           Y            0.84877   0.39067   0.35632
           Z           -0.12731   0.80504  -0.57940
 This molecule is an asymmetric top.
 Rotational symmetry number  1.
 Warning -- assumption of classical behavior for rotation
           may cause significant error
 Rotational temperatures (Kelvin)      0.02640     0.00766     0.00694
 Rotational constants (GHZ):           0.55019     0.15958     0.14450
 Zero-point vibrational energy     631955.1 (Joules/Mol)
                                  151.04090 (Kcal/Mol)
 Warning -- explicit consideration of  27 degrees of freedom as
           vibrations may cause significant error
 Vibrational temperatures:     16.81    38.60    44.52   123.00   129.03
          (Kelvin)            160.35   165.94   224.34   261.51   284.00
                              298.82   378.11   423.05   428.17   484.45
                              501.55   525.77   538.53   564.70   597.37
                              618.47   623.70   675.67   700.64   715.79
                              772.01   837.74   896.15   937.93   949.10
                              986.75   998.02  1024.24  1026.50  1067.10
                             1113.51  1153.60  1155.68  1163.17  1181.02
                             1181.42  1199.89  1277.21  1334.16  1363.30
                             1382.29  1393.35  1426.47  1455.24  1481.84
                             1489.39  1528.68  1553.35  1568.62  1624.81
                             1627.23  1644.54  1693.65  1724.30  1754.22
                             1760.28  1797.35  1883.85  1911.17  1924.36
                             1930.86  2013.43  2027.39  2047.39  2061.99
                             2084.48  2131.10  2144.60  2148.61  2170.02
                             2179.42  2218.87  2255.23  2281.45  2304.27
                             2344.08  4294.94  4346.84  4402.21  4456.22
                             4477.89  4492.05  4493.89  4520.77  4546.99
                             4550.92  4587.59  4733.57

 Zero-point correction=                           0.240699 (Hartree/Particle)
 Thermal correction to Energy=                    0.258672
 Thermal correction to Enthalpy=                  0.259617
 Thermal correction to Gibbs Free Energy=         0.192336
 Sum of electronic and zero-point Energies=          -1278.928023
 Sum of electronic and thermal Energies=             -1278.910049
 Sum of electronic and thermal Enthalpies=           -1278.909105
 Sum of electronic and thermal Free Energies=        -1278.976386

                     E (Thermal)             CV                S
                      KCal/Mol        Cal/Mol-Kelvin    Cal/Mol-Kelvin
 Total                  162.319             69.659            141.604
 Electronic               0.000              0.000              0.000
 Translational            0.889              2.981             42.953
 Rotational               0.889              2.981             34.493
 Vibrational            160.542             63.697             64.158
 Vibration     1          0.593              1.987              7.702
 Vibration     2          0.593              1.984              6.051
 Vibration     3          0.594              1.984              5.768
 Vibration     4          0.601              1.959              3.761
 Vibration     5          0.602              1.956              3.667
 Vibration     6          0.607              1.940              3.244
 Vibration     7          0.608              1.937              3.177
 Vibration     8          0.620              1.896              2.599
 Vibration     9          0.630              1.865              2.310
 Vibration    10          0.637              1.844              2.157
 Vibration    11          0.641              1.829              2.064
 Vibration    12          0.670              1.741              1.643
 Vibration    13          0.689              1.685              1.451
 Vibration    14          0.691              1.678              1.430
 Vibration    15          0.717              1.602              1.228
 Vibration    16          0.726              1.578              1.173
 Vibration    17          0.739              1.543              1.099
 Vibration    18          0.745              1.525              1.062
 Vibration    19          0.760              1.486              0.991
 Vibration    20          0.779              1.437              0.908
 Vibration    21          0.791              1.405              0.859
 Vibration    22          0.794              1.397              0.847
 Vibration    23          0.827              1.317              0.739
 Vibration    24          0.843              1.279              0.692
 Vibration    25          0.853              1.256              0.664
 Vibration    26          0.892              1.169              0.573
 Vibration    27          0.939              1.070              0.481

                           ! Non-Optimized Parameters !
 Normal termination of Gaussian 16 at Tue Jan  9 04:44:07 2024.
