 Gaussian 16, Revision A.03,
 Gaussian 16:  ES64L-G16RevA.03 25-Dec-2016

 --------------------------------------
 #P UB3LYP/6-311++G(d,p) nosym opt freq
 --------------------------------------

 -------
 Reduced
 -------
 Symbolic Z-matrix:
 Charge = -2 Multiplicity = 1

 SCF Done:  E(UB3LYP) =  -1896.94117265     A.U. after   31 cycles
 SCF Done:  E(UB3LYP) =  -1896.99188817     A.U. after   20 cycles
 SCF Done:  E(UB3LYP) =  -1897.01929821     A.U. after   18 cycles
 SCF Done:  E(UB3LYP) =  -1897.02089862     A.U. after   17 cycles
 SCF Done:  E(UB3LYP) =  -1897.02118726     A.U. after   17 cycles
 SCF Done:  E(UB3LYP) =  -1897.02144684     A.U. after   18 cycles
 SCF Done:  E(UB3LYP) =  -1897.02244122     A.U. after   19 cycles
 SCF Done:  E(UB3LYP) =  -1897.02421354     A.U. after   19 cycles
 SCF Done:  E(UB3LYP) =  -1897.02527685     A.U. after   18 cycles
 SCF Done:  E(UB3LYP) =  -1897.02584481     A.U. after   19 cycles
 SCF Done:  E(UB3LYP) =  -1897.02622222     A.U. after   19 cycles
 SCF Done:  E(UB3LYP) =  -1897.02635099     A.U. after   19 cycles
 SCF Done:  E(UB3LYP) =  -1897.02657413     A.U. after   16 cycles
 SCF Done:  E(UB3LYP) =  -1897.02659399     A.U. after   15 cycles
 SCF Done:  E(UB3LYP) =  -1897.02660704     A.U. after   15 cycles
 SCF Done:  E(UB3LYP) =  -1897.02661270     A.U. after   15 cycles
 SCF Done:  E(UB3LYP) =  -1897.02661320     A.U. after   13 cycles
 SCF Done:  E(UB3LYP) =  -1897.02661331     A.U. after   12 cycles
 Optimization completed.
    -- Stationary point found.
 Normal termination of Gaussian 16 at Thu Dec 21 23:08:57 2023.

 ----------------------------------------------------------------------
 #P Geom=AllCheck Guess=TCheck SCRF=Check GenChk UB3LYP/6-311++G(d,p) F
 req
 ----------------------------------------------------------------------

 Structure from the checkpoint file:  "219-an.chk"
 -------
 Reduced
 -------
 Charge = -2 Multiplicity = 1

                          Input orientation:
 ---------------------------------------------------------------------
 Center     Atomic      Atomic             Coordinates (Angstroms)
 Number     Number       Type             X           Y           Z
 ---------------------------------------------------------------------
      1          6           0        5.065798   -2.459956    0.371054
      2          6           0        5.824239   -1.511596   -0.269679
      3          6           0        5.142364   -0.482619   -0.992230
      4          6           0        3.646157   -2.468822    0.329898
      5          6           0        2.973236   -1.419465   -0.415745
      6          6           0        3.757324   -0.448321   -1.061868
      7          6           0        2.927424   -3.511531    1.021499
      8          6           0        1.476241   -3.419006    0.898635
      9          6           0        0.803332   -2.369573    0.153051
     10          6           0        1.522059   -1.326891   -0.538520
     11          6           0        0.692177   -4.390267    1.544542
     12          6           0       -0.616331   -2.378383    0.112024
     13          6           0       -1.374757   -3.326804    0.752657
     14          8           0        3.503296   -4.433161    1.687552
     15          8           0        0.946180   -0.405211   -1.204581
     16          1           0        5.535706   -3.252910    0.943483
     17          1           0       -2.456480   -3.323033    0.706948
     18          1           0        3.233948    0.328215   -1.608241
     19          1           0        1.215576   -5.166942    2.090708
     20          1           0       -1.086242   -1.585290   -0.460210
     21          6           0       -0.692892   -4.355984    1.474970
     22         16           0        6.073166    0.661265   -1.939324
     23          1           0        6.905951   -1.515217   -0.223732
     24         16           0       -1.623564   -5.500059    2.421849
     25          8           0       -0.834271   -6.706000    2.734429
     26          8           0       -2.984111   -5.689422    1.888492
     27          7           0       -1.900134   -4.634928    3.904642
     28          1           0       -0.997339   -4.501709    4.356368
     29          1           0       -2.473771   -5.238204    4.493745
     30          8           0        5.283609    1.866831   -2.252627
     31          8           0        7.433512    0.851152   -1.405577
     32          7           0        6.350711   -0.204322   -3.421461
     33          1           0        6.926544    0.397745   -4.009614
     34          1           0        5.448603   -0.336496   -3.874817
 ---------------------------------------------------------------------

 SCF Done:  E(UB3LYP) =  -1897.02661331     A.U. after    2 cycles

 Alpha  occ. eigenvalues --  -88.87394 -88.87392 -18.92826 -18.92825 -18.92766
 Alpha  occ. eigenvalues --  -18.92764 -18.81926 -18.81923 -14.16180 -14.16177
 Alpha  occ. eigenvalues --   -9.99796  -9.99795  -9.98324  -9.98322  -9.97535
 Alpha  occ. eigenvalues --   -9.97535  -9.96938  -9.96938  -9.95998  -9.95997
 Alpha  occ. eigenvalues --   -9.95119  -9.95118  -9.94483  -9.94482  -7.93589
 Alpha  occ. eigenvalues --   -7.93587  -5.89893  -5.89891  -5.89841  -5.89839
 Alpha  occ. eigenvalues --   -5.89631  -5.89630  -0.92684  -0.92682  -0.81560
 Alpha  occ. eigenvalues --   -0.81558  -0.74348  -0.73958  -0.72404  -0.72400
 Alpha  occ. eigenvalues --   -0.65090  -0.64870  -0.58211  -0.55860  -0.54687
 Alpha  occ. eigenvalues --   -0.53790  -0.49025  -0.47439  -0.43407  -0.42055
 Alpha  occ. eigenvalues --   -0.39577  -0.37831  -0.36185  -0.35385  -0.33757
 Alpha  occ. eigenvalues --   -0.33473  -0.32328  -0.32076  -0.30724  -0.29403
 Alpha  occ. eigenvalues --   -0.27101  -0.27051  -0.25343  -0.25177  -0.24635
 Alpha  occ. eigenvalues --   -0.22067  -0.21947  -0.21145  -0.18928  -0.18818
 Alpha  occ. eigenvalues --   -0.18584  -0.17628  -0.17625  -0.16165  -0.15888
 Alpha  occ. eigenvalues --   -0.15460  -0.15365  -0.14438  -0.14168  -0.12906
 Alpha  occ. eigenvalues --   -0.12678  -0.12646  -0.12441  -0.11741  -0.11502
 Alpha  occ. eigenvalues --   -0.10912  -0.09980  -0.09814  -0.05302  -0.04136
 Alpha  occ. eigenvalues --   -0.03382  -0.02837   0.00073   0.00684   0.08918
 Alpha virt. eigenvalues --    0.13252   0.13352   0.14364   0.17149   0.17244
 Alpha virt. eigenvalues --    0.17556   0.17872   0.18124   0.18905   0.19588
 Alpha virt. eigenvalues --    0.20072   0.20574   0.20785   0.22305   0.22336

  Beta  occ. eigenvalues --  -88.87394 -88.87392 -18.92826 -18.92825 -18.92766
  Beta  occ. eigenvalues --  -18.92764 -18.81926 -18.81923 -14.16180 -14.16177
  Beta  occ. eigenvalues --   -9.99796  -9.99795  -9.98324  -9.98322  -9.97535
  Beta  occ. eigenvalues --   -9.97535  -9.96938  -9.96938  -9.95998  -9.95997
  Beta  occ. eigenvalues --   -9.95119  -9.95118  -9.94483  -9.94482  -7.93589
  Beta  occ. eigenvalues --   -7.93587  -5.89893  -5.89891  -5.89841  -5.89839
  Beta  occ. eigenvalues --   -5.89631  -5.89630  -0.92684  -0.92682  -0.81560
  Beta  occ. eigenvalues --   -0.81558  -0.74348  -0.73958  -0.72404  -0.72400
  Beta  occ. eigenvalues --   -0.65090  -0.64870  -0.58211  -0.55860  -0.54687
  Beta  occ. eigenvalues --   -0.53790  -0.49025  -0.47439  -0.43407  -0.42055
  Beta  occ. eigenvalues --   -0.39577  -0.37831  -0.36185  -0.35385  -0.33757
  Beta  occ. eigenvalues --   -0.33473  -0.32328  -0.32076  -0.30724  -0.29403
  Beta  occ. eigenvalues --   -0.27101  -0.27051  -0.25343  -0.25177  -0.24635
  Beta  occ. eigenvalues --   -0.22067  -0.21947  -0.21145  -0.18928  -0.18818
  Beta  occ. eigenvalues --   -0.18584  -0.17628  -0.17625  -0.16165  -0.15888
  Beta  occ. eigenvalues --   -0.15460  -0.15365  -0.14438  -0.14168  -0.12906
  Beta  occ. eigenvalues --   -0.12678  -0.12646  -0.12441  -0.11741  -0.11502
  Beta  occ. eigenvalues --   -0.10912  -0.09980  -0.09814  -0.05302  -0.04136
  Beta  occ. eigenvalues --   -0.03382  -0.02837   0.00073   0.00684   0.08918
  Beta virt. eigenvalues --    0.13252   0.13352   0.14364   0.17149   0.17244
  Beta virt. eigenvalues --    0.17556   0.17872   0.18124   0.18905   0.19588
  Beta virt. eigenvalues --    0.20072   0.20574   0.20785   0.22305   0.22336

 Mulliken charges and spin densities:
               1          2
     1  C   -0.101707  -0.000000
     2  C   -0.405979  -0.000000
     3  C   -0.129823   0.000000
     4  C    0.649887   0.000000
     5  C    0.172385   0.000000
     6  C   -0.123277  -0.000000
     7  C   -0.787573   0.000000
     8  C    0.172321   0.000000
     9  C    0.649667   0.000000
    10  C   -0.787748  -0.000000
    11  C   -0.123555  -0.000000
    12  C   -0.101428  -0.000000
    13  C   -0.405967  -0.000000
    14  O   -0.462421  -0.000000
    15  O   -0.462469   0.000000
    16  H    0.140751   0.000000
    17  H    0.184095  -0.000000
    18  H    0.228690  -0.000000
    19  H    0.228630   0.000000
    20  H    0.140772   0.000000
    21  C   -0.129998  -0.000000
    22  S    0.067916   0.000000
    23  H    0.184096  -0.000000
    24  S    0.068113  -0.000000
    25  O   -0.234331  -0.000000
    26  O   -0.310723  -0.000000
    27  N   -0.390572   0.000000
    28  H    0.253043  -0.000000
    29  H    0.249959  -0.000000
    30  O   -0.234349  -0.000000
    31  O   -0.310960  -0.000000
    32  N   -0.390452  -0.000000
    33  H    0.249960  -0.000000
    34  H    0.253043   0.000000
 Sum of Mulliken charges =  -2.00000  -0.00000

 Dipole moment (field-independent basis, Debye):
    X=            -21.3656    Y=             23.2407    Z=             -2.3209  Tot=             31.6545
 Quadrupole moment (field-independent basis, Debye-Ang):
   XX=           -320.1303   YY=           -311.5600   ZZ=           -172.9285
   XY=             -4.7378   XZ=             13.4499   YZ=             45.1742

  Exact polarizability: 612.095 171.251 323.303-173.480-145.534 325.700
 Approx polarizability:1187.026 247.145 528.823-200.963-207.784 447.865

                      1                      2                      3
                      A                      A                      A
 Frequencies --     22.1933                28.4163                35.1566
 Red. masses --      9.8549                 6.6892                 6.9191
 Frc consts  --      0.0029                 0.0032                 0.0050
 IR Inten    --      2.0837                 4.6466                 0.0001

                      4                      5                      6
                      A                      A                      A
 Frequencies --     63.6425                79.8768                82.0303
 Red. masses --      6.4784                 9.8741                 5.9660
 Frc consts  --      0.0155                 0.0371                 0.0237
 IR Inten    --      0.0000                 1.8120                10.2781

                      7                      8                      9
                      A                      A                      A
 Frequencies --    121.7129               134.7602               150.2694
 Red. masses --      6.4396                 3.4430                 3.4912
 Frc consts  --      0.0562                 0.0368                 0.0464
 IR Inten    --      0.0001                 6.5591                 0.0001

                     10                     11                     12
                      A                      A                      A
 Frequencies --    163.2334               180.6305               192.1926
 Red. masses --      2.6989                 1.6594                10.3001
 Frc consts  --      0.0424                 0.0319                 0.2242
 IR Inten    --     23.1847                 0.0000                 0.0003

                     13                     14                     15
                      A                      A                      A
 Frequencies --    196.9121               224.6195               244.7555
 Red. masses --      1.9691                 9.9106                 4.0537
 Frc consts  --      0.0450                 0.2946                 0.1431
 IR Inten    --     33.0890                 4.4843                 0.0000

                     16                     17                     18
                      A                      A                      A
 Frequencies --    266.8589               267.2974               303.3945
 Red. masses --     11.0949                12.1978                 4.7438
 Frc consts  --      0.4655                 0.5135                 0.2573
 IR Inten    --      0.0042                22.3834               189.4123

                     19                     20                     21
                      A                      A                      A
 Frequencies --    319.4755               362.5265               362.6468
 Red. masses --      5.3768                 4.3026                 4.6637
 Frc consts  --      0.3233                 0.3332                 0.3614
 IR Inten    --      0.0004                23.0318                 0.0263

                     22                     23                     24
                      A                      A                      A
 Frequencies --    385.9665               407.0571               417.5565
 Red. masses --      9.8372                 6.9723                 6.5185
 Frc consts  --      0.8634                 0.6807                 0.6696
 IR Inten    --      9.7885                 0.0000                 0.0001

                     25                     26                     27
                      A                      A                      A
 Frequencies --    424.1194               440.2403               443.6493
 Red. masses --      3.6383                 6.1917                 5.7748
 Frc consts  --      0.3856                 0.7070                 0.6697
 IR Inten    --     26.3446                 0.0011                80.8843

                     28                     29                     30
                      A                      A                      A
 Frequencies --    469.1757               476.1546               480.9665
 Red. masses --      7.0795                 4.8648                 6.6902
 Frc consts  --      0.9182                 0.6499                 0.9118
 IR Inten    --     69.7331                 0.0002                 0.0000

                     31                     32                     33
                      A                      A                      A
 Frequencies --    495.3642               503.8527               524.5427
 Red. masses --      6.8570                 8.7570                 6.5026
 Frc consts  --      0.9914                 1.3098                 1.0541
 IR Inten    --      0.0001                 0.0000               424.6053

                     34                     35                     36
                      A                      A                      A
 Frequencies --    544.1470               589.0479               619.5261
 Red. masses --      7.1659                 7.0301                 5.9240
 Frc consts  --      1.2501                 1.4372                 1.3396
 IR Inten    --    222.6941                 0.0003                 0.0010

                     37                     38                     39
                      A                      A                      A
 Frequencies --    639.8423               651.5273               665.3437
 Red. masses --      7.5441                 8.7080                 8.8851
 Frc consts  --      1.8197                 2.1779                 2.3174
 IR Inten    --    106.0366               564.4334                 0.0044

                     40                     41                     42
                      A                      A                      A
 Frequencies --    676.7009               690.2176               705.7085
 Red. masses --      6.1270                 6.7786                 4.1049
 Frc consts  --      1.6531                 1.9027                 1.2045
 IR Inten    --    469.1911                 0.0000                 3.5516

                     43                     44                     45
                      A                      A                      A
 Frequencies --    721.3459               725.0725               756.0743
 Red. masses --      3.8252                 6.9386                 1.4341
 Frc consts  --      1.1727                 2.1492                 0.4830
 IR Inten    --     19.0370                 0.0002                 0.0001

                     46                     47                     48
                      A                      A                      A
 Frequencies --    789.8808               826.8507               838.4731
 Red. masses --      1.8400                 4.6025                 6.5990
 Frc consts  --      0.6764                 1.8539                 2.7334
 IR Inten    --     31.7596                 0.0000                95.3775

                     49                     50                     51
                      A                      A                      A
 Frequencies --    877.4207               880.0557               950.1979
 Red. masses --      1.3826                 1.3898                 4.6297
 Frc consts  --      0.6271                 0.6342                 2.4628
 IR Inten    --    365.2496                 2.8208                44.1958

                     52                     53                     54
                      A                      A                      A
 Frequencies --    959.5894               963.6752               965.1053
 Red. masses --      2.9272                 1.3793                 1.9003
 Frc consts  --      1.5881                 0.7547                 1.0429
 IR Inten    --      0.0000                 6.3965                 0.0001

                     55                     56                     57
                      A                      A                      A
 Frequencies --    980.2990               983.1828              1028.0751
 Red. masses --      1.2970                 1.3403                 2.3068
 Frc consts  --      0.7344                 0.7633                 1.4365
 IR Inten    --      0.0000                 4.5777               982.1452

                     58                     59                     60
                      A                      A                      A
 Frequencies --   1036.6724              1055.2179              1068.8937
 Red. masses --      2.7646                 7.4075                 2.9352
 Frc consts  --      1.7505                 4.8597                 1.9759
 IR Inten    --      0.0003              1454.6583                 0.0007

                     61                     62                     63
                      A                      A                      A
 Frequencies --   1099.0699              1114.9423              1115.3060
 Red. masses --      1.3822                 2.5996                 1.5281
 Frc consts  --      0.9837                 1.9039                 1.1199
 IR Inten    --   1094.5237               245.4994                 0.2904

                     64                     65                     66
                      A                      A                      A
 Frequencies --   1131.3651              1150.7492              1180.9333
 Red. masses --      1.5797                 2.6499                 4.8124
 Frc consts  --      1.1913                 2.0675                 3.9543
 IR Inten    --      0.0035               229.9675                 0.0001

                     67                     68                     69
                      A                      A                      A
 Frequencies --   1212.8186              1213.7205              1234.5086
 Red. masses --      2.3082                 1.6812                 4.0477
 Frc consts  --      2.0004                 1.4592                 3.6345
 IR Inten    --    254.0324                 0.0970               565.8549

                     70                     71                     72
                      A                      A                      A
 Frequencies --   1240.6083              1250.3508              1307.8758
 Red. masses --      8.6512                 2.7875                 2.2698
 Frc consts  --      7.8450                 2.5676                 2.2875
 IR Inten    --      0.0006                26.2651                 0.0001

                     73                     74                     75
                      A                      A                      A
 Frequencies --   1345.3425              1353.7967              1375.4820
 Red. masses --      3.9252                 6.7035                 5.6492
 Frc consts  --      4.1857                 7.2387                 6.2971
 IR Inten    --    386.4765                 0.0048               757.7095

                     76                     77                     78
                      A                      A                      A
 Frequencies --   1440.5326              1449.3725              1466.5932
 Red. masses --      4.0394                 2.5552                 6.6577
 Frc consts  --      4.9387                 3.1625                 8.4371
 IR Inten    --      0.0000                98.0894               688.1631

                     79                     80                     81
                      A                      A                      A
 Frequencies --   1472.7052              1494.6173              1511.5179
 Red. masses --      3.9458                 7.3789                 6.1889
 Frc consts  --      5.0421                 9.7118                 8.3309
 IR Inten    --      0.0167                 0.0012               149.3548

                     82                     83                     84
                      A                      A                      A
 Frequencies --   1548.0549              1563.2069              1580.8907
 Red. masses --      5.9220                 5.7542                 1.1315
 Frc consts  --      8.3617                 8.2845                 1.6661
 IR Inten    --      0.0011               305.2956                48.3176

                     85                     86                     87
                      A                      A                      A
 Frequencies --   1580.9793              1597.1971              3164.8092
 Red. masses --      1.1232                 7.7288                 1.0865
 Frc consts  --      1.6541                11.6166                 6.4120
 IR Inten    --     11.2014                 0.0009                14.7263

                     88                     89                     90
                      A                      A                      A
 Frequencies --   3165.0538              3185.3334              3185.4794
 Red. masses --      1.0867                 1.0892                 1.0891
 Frc consts  --      6.4136                 6.5113                 6.5113
 IR Inten    --      0.0007                 3.6294                 0.2763

                     91                     92                     93
                      A                      A                      A
 Frequencies --   3190.3308              3190.5664              3441.8830
 Red. masses --      1.0927                 1.0928                 1.0483
 Frc consts  --      6.5525                 6.5545                 7.3171
 IR Inten    --     32.8666                 0.0161               230.4988

                     94                     95                     96
                      A                      A                      A
 Frequencies --   3442.2957              3550.4656              3550.8990
 Red. masses --      1.0482                 1.0939                 1.0938
 Frc consts  --      7.3179                 8.1243                 8.1259
 IR Inten    --     21.2871               119.1424                18.9573

 - Thermochemistry -
 -------------------
 Temperature   298.150 Kelvin.  Pressure   1.00000 Atm.
 Atom     1 has atomic number  6 and mass  12.00000

 Molecular mass:   365.99803 amu.
 Principal axes and moments of inertia in atomic units:
                           1         2         3
     Eigenvalues --  2659.04211********************
           X            0.73245   0.68080  -0.00482
           Y            0.54604  -0.58321   0.60142
           Z           -0.40664   0.44314   0.79892
 This molecule is an asymmetric top.
 Rotational symmetry number  1.
 Warning -- assumption of classical behavior for rotation
           may cause significant error
 Rotational temperatures (Kelvin)      0.03257     0.00385     0.00355
 Rotational constants (GHZ):           0.67872     0.08012     0.07403
 Zero-point vibrational energy     595495.3 (Joules/Mol)
                                  142.32680 (Kcal/Mol)
 Warning -- explicit consideration of  36 degrees of freedom as
           vibrations may cause significant error
 Vibrational temperatures:     31.93    40.88    50.58    91.57   114.92
          (Kelvin)            118.02   175.12   193.89   216.20   234.86
                              259.89   276.52   283.31   323.18   352.15
                              383.95   384.58   436.52   459.65   521.59
                              521.77   555.32   585.66   600.77   610.21
                              633.41   638.31   675.04   685.08   692.00
                              712.72   724.93   754.70   782.91   847.51
                              891.36   920.59   937.40   957.28   973.62
                              993.07  1015.36  1037.86  1043.22  1087.82
                             1136.46  1189.65  1206.38  1262.41  1266.20
                             1367.12  1380.64  1386.51  1388.57  1410.43
                             1414.58  1479.17  1491.54  1518.22  1537.90
                             1581.32  1604.15  1604.68  1627.78  1655.67
                             1699.10  1744.98  1746.27  1776.18  1784.96
                             1798.98  1881.74  1935.65  1947.81  1979.01
                             2072.61  2085.32  2110.10  2118.89  2150.42
                             2174.74  2227.31  2249.11  2274.55  2274.68
                             2298.01  4553.45  4553.81  4582.98  4583.19
                             4590.17  4590.51  4952.10  4952.70  5108.33
                             5108.95

 Zero-point correction=                           0.226812 (Hartree/Particle)
 Thermal correction to Energy=                    0.248141
 Thermal correction to Enthalpy=                  0.249085
 Thermal correction to Gibbs Free Energy=         0.175357
 Sum of electronic and zero-point Energies=          -1896.799801
 Sum of electronic and thermal Energies=             -1896.778472
 Sum of electronic and thermal Enthalpies=           -1896.777528
 Sum of electronic and thermal Free Energies=        -1896.851256

                     E (Thermal)             CV                S
                      KCal/Mol        Cal/Mol-Kelvin    Cal/Mol-Kelvin
 Total                  155.711             81.915            155.173
 Electronic               0.000              0.000              0.000
 Translational            0.889              2.981             43.585
 Rotational               0.889              2.981             35.633
 Vibrational            153.933             75.953             75.955
 Vibration     1          0.593              1.985              6.428
 Vibration     2          0.593              1.984              5.937
 Vibration     3          0.594              1.982              5.515
 Vibration     4          0.597              1.972              4.341
 Vibration     5          0.600              1.963              3.894
 Vibration     6          0.600              1.961              3.842
 Vibration     7          0.609              1.931              3.073
 Vibration     8          0.613              1.919              2.877
 Vibration     9          0.618              1.902              2.669
 Vibration    10          0.623              1.888              2.512
 Vibration    11          0.630              1.866              2.322
 Vibration    12          0.634              1.851              2.207
 Vibration    13          0.636              1.844              2.162
 Vibration    14          0.649              1.804              1.922
 Vibration    15          0.660              1.771              1.768
 Vibration    16          0.672              1.734              1.616
 Vibration    17          0.672              1.733              1.614
 Vibration    18          0.695              1.667              1.398
 Vibration    19          0.705              1.636              1.313
 Vibration    20          0.736              1.549              1.111
 Vibration    21          0.736              1.549              1.111
 Vibration    22          0.755              1.500              1.016
 Vibration    23          0.772              1.455              0.937
 Vibration    24          0.781              1.432              0.900
 Vibration    25          0.786              1.418              0.878
 Vibration    26          0.800              1.382              0.826
 Vibration    27          0.803              1.375              0.815
 Vibration    28          0.826              1.318              0.740
 Vibration    29          0.833              1.303              0.721
 Vibration    30          0.837              1.292              0.707
 Vibration    31          0.851              1.260              0.670
 Vibration    32          0.859              1.241              0.649
 Vibration    33          0.880              1.196              0.600
 Vibration    34          0.899              1.153              0.556
 Vibration    35          0.946              1.055              0.469
 Vibration    36          0.979              0.991              0.417

                           ! Non-Optimized Parameters !
 Normal termination of Gaussian 16 at Fri Dec 22 01:14:58 2023.
