 Q-Chem 5.4, Q-Chem, Inc., Pleasanton, CA (2021)
 Q-Chem 5.4.0 for Intel X86 EM64T Linux

User input:
--------------------------------------------------------------
$molecule
0 1
C                 -1.8409430000      1.9087610000     -5.1580670000
C                 -1.7587510000      0.5834440000     -5.5610990000
C                 -1.3482190000     -0.4008790000     -4.6545220000
C                 -1.5141790000      2.2666880000     -3.8437470000
C                 -1.1033480000      1.2811110000     -2.9353400000
C                 -1.0227980000     -0.0544990000     -3.3506810000
C                 -1.6050830000      3.6899720000     -3.4339000000
C                 -0.7532250000      1.6280250000     -1.5348260000
C                 -1.2566440000      4.0408800000     -2.0530100000
C                 -0.8442370000      3.0265670000     -1.1169430000
C                 -1.3416620000      5.3926250000     -1.6442490000
C                 -1.0223220000      5.7063290000     -0.2962680000
C                 -0.6343970000      4.7503000000      0.5974120000
C                 -0.5257690000      3.3792340000      0.2245390000
O                 -1.9720130000      4.5348250000     -4.2653250000
O                 -0.3971720000      0.7183280000     -0.7647090000
N                 -1.6941170000      6.4085570000     -2.4812280000
N                 -0.1294020000      2.4600210000      1.1436340000
C                  0.2057330000      2.7547330000      2.5197590000
H                 -2.1547800000      2.6884600000     -5.8404190000
H                 -2.0125230000      0.3105460000     -6.5793460000
H                 -1.2842570000     -1.4360110000     -4.9710510000
H                 -0.7031920000     -0.7981160000     -2.6318270000
H                 -1.0876170000      6.7417660000      0.0236410000
H                 -0.4020810000      5.0441120000      1.6124510000
H                 -1.9910580000      6.1649010000     -3.4190860000
H                 -1.8565720000      7.3269190000     -2.1054940000
H                 -0.0803420000      1.5070500000      0.7921950000
H                 -0.6406340000      3.1818620000      3.0712680000
H                  1.0536800000      3.4454440000      2.6018980000
H                  0.4860740000      1.8216140000      3.0078210000
$end

$rem
BASIS  =  6-311++G(d,p)
GUI  =  2
JOB_TYPE  =  SP
METHOD  =  B3LYP
SCF_CONVERGENCE  = 8
SOLVENT_METHOD = sm12
$end

$smx
solvent dimethylformamide
charges CM5
$end

--------------------------------------------------------------

             Standard Nuclear Orientation (Angstroms)
    I     Atom           X                Y                Z
 ----------------------------------------------------------------
    1      C      -1.8409430000     1.9087610000    -5.1580670000
    2      C      -1.7587510000     0.5834440000    -5.5610990000
    3      C      -1.3482190000    -0.4008790000    -4.6545220000
    4      C      -1.5141790000     2.2666880000    -3.8437470000
    5      C      -1.1033480000     1.2811110000    -2.9353400000
    6      C      -1.0227980000    -0.0544990000    -3.3506810000
    7      C      -1.6050830000     3.6899720000    -3.4339000000
    8      C      -0.7532250000     1.6280250000    -1.5348260000
    9      C      -1.2566440000     4.0408800000    -2.0530100000
   10      C      -0.8442370000     3.0265670000    -1.1169430000
   11      C      -1.3416620000     5.3926250000    -1.6442490000
   12      C      -1.0223220000     5.7063290000    -0.2962680000
   13      C      -0.6343970000     4.7503000000     0.5974120000
   14      C      -0.5257690000     3.3792340000     0.2245390000
   15      O      -1.9720130000     4.5348250000    -4.2653250000
   16      O      -0.3971720000     0.7183280000    -0.7647090000
   17      N      -1.6941170000     6.4085570000    -2.4812280000
   18      N      -0.1294020000     2.4600210000     1.1436340000
   19      C       0.2057330000     2.7547330000     2.5197590000
   20      H      -2.1547800000     2.6884600000    -5.8404190000
   21      H      -2.0125230000     0.3105460000    -6.5793460000
   22      H      -1.2842570000    -1.4360110000    -4.9710510000
   23      H      -0.7031920000    -0.7981160000    -2.6318270000
   24      H      -1.0876170000     6.7417660000     0.0236410000
   25      H      -0.4020810000     5.0441120000     1.6124510000
   26      H      -1.9910580000     6.1649010000    -3.4190860000
   27      H      -1.8565720000     7.3269190000    -2.1054940000
   28      H      -0.0803420000     1.5070500000     0.7921950000
   29      H      -0.6406340000     3.1818620000     3.0712680000
   30      H       1.0536800000     3.4454440000     2.6018980000
   31      H       0.4860740000     1.8216140000     3.0078210000
 ----------------------------------------------------------------

   15    -839.0308287870      6.70e-09  Convergence criterion met
 Total energy in the final basis set =     -839.0574881873

                    Orbital Energies (a.u.)
 --------------------------------------------------------------

 Alpha MOs
 -- Occupied --
-19.1105 -19.1098 -14.3361 -14.3298 -10.2643 -10.2630 -10.2401 -10.2391
-10.2009 -10.1978 -10.1978 -10.1972 -10.1963 -10.1945 -10.1941 -10.1913
-10.1907 -10.1889 -10.1886  -1.0444  -1.0422  -0.9527  -0.9366  -0.8807
 -0.8518  -0.8052  -0.7696  -0.7661  -0.7534  -0.6968  -0.6823  -0.6570
 -0.6433  -0.6076  -0.5891  -0.5680  -0.5485  -0.5361  -0.5213  -0.4995
 -0.4856  -0.4837  -0.4751  -0.4561  -0.4556  -0.4429  -0.4401  -0.4385
 -0.4376  -0.4250  -0.4070  -0.4052  -0.3990  -0.3961  -0.3826  -0.3703
 -0.3638  -0.3595  -0.3470  -0.2851  -0.2768  -0.2725  -0.2705  -0.2669
 -0.2618  -0.1959

          Ground-State Mulliken Net Atomic Charges

     Atom                 Charge (a.u.)
  ----------------------------------------
      1 C                    -0.001005
      2 C                     0.166817
      3 C                     0.133521
      4 C                    -0.682682
      5 C                    -0.534040
      6 C                    -0.120468
      7 C                    -1.685542
      8 C                    -1.266740
      9 C                    -0.046944
     10 C                    -0.067950
     11 C                    -0.041338
     12 C                     1.803688
     13 C                     1.328931
     14 C                    -1.068869
     15 O                    -0.283402
     16 O                    -0.302555
     17 N                    -0.319674
     18 N                    -0.346672
     19 C                    -0.127237
     20 H                     0.190758
     21 H                     0.314207
     22 H                     0.313901
     23 H                     0.188375
     24 H                     0.355748
     25 H                     0.376855
     26 H                     0.283063
     27 H                     0.426356
     28 H                     0.330623
     29 H                     0.223214
     30 H                     0.221404
     31 H                     0.237658
  ----------------------------------------
  Sum of atomic charges =     0.000000

                    Cartesian Multipole Moments
 -----------------------------------------------------------------
    Charge (ESU x 10^10)
                 0.0000
    Dipole Moment (Debye)
         X       0.3473      Y       2.9359      Z       3.8428
       Tot       4.8484
    Quadrupole Moments (Debye-Ang)
        XX    -114.7039     XY      -2.5257     YY     -75.0097
        XZ       0.2224     YZ      20.8636     ZZ    -105.1671

 Total job time:  794.45s(wall), 6229.95s(cpu)
        *  Thank you very much for using Q-Chem.  Have a nice day.  *
