 Q-Chem 5.4, Q-Chem, Inc., Pleasanton, CA (2021)
 Q-Chem 5.4.0 for Intel X86 EM64T Linux

User input:
--------------------------------------------------------------
$molecule
-2 1
C                 -3.2595260000      3.4237230000      0.3982160000
C                 -4.4786650000      2.7891960000      0.4338090000
C                 -4.5546420000      1.3739130000      0.4974900000
C                 -2.0439360000      2.6930110000      0.4146720000
C                 -2.1091800000      1.2501010000      0.4625980000
C                 -3.3858880000      0.6405790000      0.5120610000
C                 -0.7874090000      3.4188500000      0.3762350000
C                  0.3987700000      2.5821180000      0.3814270000
C                  0.3341880000      1.1391750000      0.4292520000
C                 -0.9226270000      0.4128830000      0.4721770000
C                  1.6747170000      3.1996260000      0.3312090000
C                  2.8318180000      2.4571270000      0.3344790000
C                  2.7808490000      1.0406880000      0.3976190000
C                  1.5512470000      0.4163400000      0.4446860000
O                 -0.7302110000      4.6940690000      0.3285540000
O                 -0.9798430000     -0.8622830000      0.5197930000
H                 -3.4046710000     -0.4433120000      0.5648720000
H                  1.4730540000     -0.6648540000      0.4981850000
H                 -3.1930470000      4.5060260000      0.3652250000
H                  1.7058540000      4.2835390000      0.2988470000
O                  4.0863840000      3.0878950000      0.3216240000
C                  4.6067310000      3.3107410000     -0.9806040000
O                 -5.6708480000      3.5310160000      0.4537690000
H                  3.7079110000      0.4742110000      0.4197040000
H                  5.5907350000      3.7791230000     -0.8650420000
H                  3.9569240000      3.9784580000     -1.5616890000
H                  4.7255180000      2.3688100000     -1.5356600000
C                 -6.2023250000      3.8033290000     -0.8344850000
H                 -5.5283230000      0.8938390000      0.5454260000
H                 -7.1365970000      4.3585140000     -0.6933680000
H                 -6.4201010000      2.8773760000     -1.3864100000
H                 -5.5099730000      4.4109650000     -1.4321130000
$end
$rem
MAX_SCF_CYCLES=200
BASIS  =  6-311++G(d,p)
GUI  =  2
JOB_TYPE  =  SP
METHOD  =  B3LYP
SOLVENT_METHOD = PCM
$end
$pcm
theory = CPCM
$end
$solvent
dielectric 37.219
opticaldielectric 1.43
$end

--------------------------------------------------------------

             Standard Nuclear Orientation (Angstroms)
    I     Atom           X                Y                Z
 ----------------------------------------------------------------
    1      C      -3.2595260000     3.4237230000     0.3982160000
    2      C      -4.4786650000     2.7891960000     0.4338090000
    3      C      -4.5546420000     1.3739130000     0.4974900000
    4      C      -2.0439360000     2.6930110000     0.4146720000
    5      C      -2.1091800000     1.2501010000     0.4625980000
    6      C      -3.3858880000     0.6405790000     0.5120610000
    7      C      -0.7874090000     3.4188500000     0.3762350000
    8      C       0.3987700000     2.5821180000     0.3814270000
    9      C       0.3341880000     1.1391750000     0.4292520000
   10      C      -0.9226270000     0.4128830000     0.4721770000
   11      C       1.6747170000     3.1996260000     0.3312090000
   12      C       2.8318180000     2.4571270000     0.3344790000
   13      C       2.7808490000     1.0406880000     0.3976190000
   14      C       1.5512470000     0.4163400000     0.4446860000
   15      O      -0.7302110000     4.6940690000     0.3285540000
   16      O      -0.9798430000    -0.8622830000     0.5197930000
   17      H      -3.4046710000    -0.4433120000     0.5648720000
   18      H       1.4730540000    -0.6648540000     0.4981850000
   19      H      -3.1930470000     4.5060260000     0.3652250000
   20      H       1.7058540000     4.2835390000     0.2988470000
   21      O       4.0863840000     3.0878950000     0.3216240000
   22      C       4.6067310000     3.3107410000    -0.9806040000
   23      O      -5.6708480000     3.5310160000     0.4537690000
   24      H       3.7079110000     0.4742110000     0.4197040000
   25      H       5.5907350000     3.7791230000    -0.8650420000
   26      H       3.9569240000     3.9784580000    -1.5616890000
   27      H       4.7255180000     2.3688100000    -1.5356600000
   28      C      -6.2023250000     3.8033290000    -0.8344850000
   29      H      -5.5283230000     0.8938390000     0.5454260000
   30      H      -7.1365970000     4.3585140000    -0.6933680000
   31      H      -6.4201010000     2.8773760000    -1.3864100000
   32      H      -5.5099730000     4.4109650000    -1.4321130000
 ----------------------------------------------------------------

    9    -918.3049694493      5.58e-06  Convergence criterion met
 Total energy in the final basis set =     -918.3049694493

                    Orbital Energies (a.u.)
 --------------------------------------------------------------

 Alpha MOs
 -- Occupied --
-19.1282 -19.1282 -19.0261 -19.0222 -10.2053 -10.2053 -10.2035 -10.2035
-10.1787 -10.1741 -10.1516 -10.1516 -10.1505 -10.1505 -10.1462 -10.1462
-10.1397 -10.1397 -10.1376 -10.1376  -1.0375  -1.0375  -0.9483  -0.9438
 -0.8307  -0.8238  -0.7552  -0.7302  -0.7300  -0.7177  -0.6819  -0.6672
 -0.6347  -0.6047  -0.5861  -0.5668  -0.5318  -0.5179  -0.5109  -0.4731
 -0.4688  -0.4571  -0.4483  -0.4481  -0.4463  -0.4221  -0.4220  -0.4092
 -0.4044  -0.4010  -0.3828  -0.3824  -0.3756  -0.3660  -0.3585  -0.3422
 -0.3386  -0.3310  -0.3285  -0.3210  -0.3094  -0.2977  -0.2674  -0.2663
 -0.2372  -0.2293  -0.2251  -0.2140  -0.2082  -0.1998  -0.1060

          Ground-State Mulliken Net Atomic Charges

     Atom                 Charge (a.u.)
  ----------------------------------------
      1 C                    -0.125114
      2 C                    -0.700390
      3 C                    -0.001380
      4 C                     0.386335
      5 C                     0.185225
      6 C                    -0.002878
      7 C                    -0.611957
      8 C                     0.386070
      9 C                     0.185426
     10 C                    -0.402625
     11 C                    -0.125515
     12 C                    -0.702643
     13 C                    -0.000430
     14 C                    -0.003859
     15 O                    -0.680429
     16 O                    -0.665578
     17 H                     0.154225
     18 H                     0.154047
     19 H                     0.162771
     20 H                     0.162625
     21 O                    -0.228882
     22 C                    -0.309220
     23 O                    -0.229326
     24 H                     0.204173
     25 H                     0.170477
     26 H                     0.145320
     27 H                     0.141600
     28 C                    -0.309660
     29 H                     0.204021
     30 H                     0.170615
     31 H                     0.141731
     32 H                     0.145224
  ----------------------------------------
  Sum of atomic charges =    -2.000000

                    Cartesian Multipole Moments
 -----------------------------------------------------------------
    Charge (ESU x 10^10)
                -9.6064
    Dipole Moment (Debye)
         X       8.1077      Y     -19.8010      Z      -7.4294
       Tot      22.6497
    Quadrupole Moments (Debye-Ang)
        XX    -155.9574     XY      15.3080     YY    -219.5096
        XZ       6.4513     YZ     -18.8226     ZZ    -129.8738

 Total job time:  200.38s(wall), 453.33s(cpu)
        *  Thank you very much for using Q-Chem.  Have a nice day.  *
