 Gaussian 16, Revision A.03,
 Gaussian 16:  ES64L-G16RevA.03 25-Dec-2016

 ----------------------------------------------------------------------
 #P UB3LYP/6-311++G(d,p) nosym opt freq SCRF=(PCM,Solvent=n,n-DiMethylF
 ormamide)
 ----------------------------------------------------------------------

 -------
 Radical
 -------
 Symbolic Z-matrix:
 Charge = -1 Multiplicity = 2

 SCF Done:  E(UB3LYP) =  -767.750010309     A.U. after   18 cycles
 SCF Done:  E(UB3LYP) =  -767.750282171     A.U. after   14 cycles
 SCF Done:  E(UB3LYP) =  -767.750314303     A.U. after   13 cycles
 SCF Done:  E(UB3LYP) =  -767.750313816     A.U. after   11 cycles
 SCF Done:  E(UB3LYP) =  -767.750314846     A.U. after   11 cycles
 SCF Done:  E(UB3LYP) =  -767.750315601     A.U. after   10 cycles
 Optimization completed.
    -- Stationary point found.
 Normal termination of Gaussian 16 at Sat Feb 10 16:30:25 2024.

 ----------------------------------------------------------------------
 #P Geom=AllCheck Guess=TCheck SCRF=Check GenChk UB3LYP/6-311++G(d,p) F
 req
 ----------------------------------------------------------------------

 Structure from the checkpoint file:  "130-rad.chk"
 -------
 Radical
 -------
 Charge = -1 Multiplicity = 2

                          Input orientation:
 ---------------------------------------------------------------------
 Center     Atomic      Atomic             Coordinates (Angstroms)
 Number     Number       Type             X           Y           Z
 ---------------------------------------------------------------------
      1          6           0       -3.380111    3.491937    0.026038
      2          6           0       -4.603563    2.848615    0.073774
      3          6           0       -4.613539    1.430981    0.120284
      4          6           0       -2.152904    2.786683    0.023170
      5          6           0       -2.178959    1.363310    0.071893
      6          6           0       -3.434995    0.715974    0.119149
      7          6           0       -0.895742    3.528338   -0.029104
      8          6           0        0.331729    2.736753   -0.025467
      9          6           0        0.302769    1.313409    0.023542
     10          6           0       -0.953029    0.570053    0.074397
     11          6           0        1.585169    3.392670   -0.071105
     12          6           0        2.782969    2.701102   -0.070619
     13          6           0        2.738206    1.284193   -0.023063
     14          6           0        1.533025    0.616653    0.022682
     15          8           0       -0.871021    4.793522   -0.075052
     16          8           0       -0.977888   -0.693139    0.119041
     17          6           0       -5.903479    3.615088    0.077215
     18          1           0       -5.563511    0.906064    0.157295
     19          1           0       -3.447696   -0.366937    0.154817
     20          1           0        1.504618   -0.465821    0.059649
     21          6           0        4.111601    3.414992   -0.118429
     22          1           0        3.667211    0.721795   -0.022403
     23          1           0       -3.336190    4.574460   -0.010933
     24          1           0        1.582696    4.476227   -0.106820
     25          1           0       -5.730066    4.692260    0.039603
     26          1           0       -6.488780    3.397488    0.976805
     27          1           0       -6.526309    3.342094   -0.781128
     28          1           0        3.980033    4.498264   -0.149818
     29          1           0        4.688980    3.118147   -1.000311
     30          1           0        4.722436    3.173205    0.757709
 ---------------------------------------------------------------------

 SCF Done:  E(UB3LYP) =  -767.750315601     A.U. after    1 cycles

 Alpha  occ. eigenvalues --  -19.07317 -19.07220 -10.22225 -10.21993 -10.18014
 Alpha  occ. eigenvalues --  -10.18013 -10.17064 -10.17063 -10.16908 -10.16906
 Alpha  occ. eigenvalues --  -10.16864 -10.16862 -10.16795 -10.16794 -10.16421
 Alpha  occ. eigenvalues --  -10.16420 -10.16304 -10.16303  -0.99676  -0.99360
 Alpha  occ. eigenvalues --   -0.86096  -0.85223  -0.79574  -0.76685  -0.75358
 Alpha  occ. eigenvalues --   -0.74290  -0.70614  -0.68153  -0.65795  -0.61818
 Alpha  occ. eigenvalues --   -0.60248  -0.58265  -0.55397  -0.51953  -0.51410
 Alpha  occ. eigenvalues --   -0.47326  -0.45682  -0.45433  -0.44394  -0.42581
 Alpha  occ. eigenvalues --   -0.42315  -0.42081  -0.41855  -0.40950  -0.40874
 Alpha  occ. eigenvalues --   -0.40818  -0.40233  -0.37751  -0.37678  -0.37612
 Alpha  occ. eigenvalues --   -0.36603  -0.35262  -0.34121  -0.33886  -0.32766
 Alpha  occ. eigenvalues --   -0.32724  -0.26109  -0.25522  -0.25041  -0.24357
 Alpha  occ. eigenvalues --   -0.23818  -0.23502  -0.14023
 Alpha virt. eigenvalues --   -0.05021  -0.02032  -0.00422  -0.00066   0.00186
 Alpha virt. eigenvalues --    0.01119   0.01835   0.02043   0.02872   0.03853
 Alpha virt. eigenvalues --    0.03894   0.04054   0.04159   0.04953   0.05431

  Beta  occ. eigenvalues --  -19.06788 -19.06645 -10.22054 -10.21796 -10.17970
  Beta  occ. eigenvalues --  -10.17969 -10.16988 -10.16987 -10.16889 -10.16887
  Beta  occ. eigenvalues --  -10.16809 -10.16807 -10.16755 -10.16754 -10.16405
  Beta  occ. eigenvalues --  -10.16405 -10.16308 -10.16307  -0.98731  -0.98340
  Beta  occ. eigenvalues --   -0.85845  -0.85113  -0.79229  -0.76578  -0.75100
  Beta  occ. eigenvalues --   -0.74150  -0.70355  -0.68055  -0.65157  -0.61662
  Beta  occ. eigenvalues --   -0.60018  -0.58201  -0.55136  -0.51707  -0.51275
  Beta  occ. eigenvalues --   -0.47102  -0.45588  -0.45261  -0.44275  -0.42249
  Beta  occ. eigenvalues --   -0.42087  -0.42019  -0.41759  -0.40851  -0.40260
  Beta  occ. eigenvalues --   -0.40001  -0.39919  -0.37716  -0.37578  -0.36503
  Beta  occ. eigenvalues --   -0.35244  -0.34990  -0.34028  -0.33814  -0.32620
  Beta  occ. eigenvalues --   -0.31514  -0.25134  -0.24308  -0.23849  -0.23844
  Beta  occ. eigenvalues --   -0.23345  -0.22989
  Beta virt. eigenvalues --   -0.08133  -0.04085  -0.01093  -0.00411   0.00167
  Beta virt. eigenvalues --    0.00183   0.01125   0.01851   0.02035   0.03032
  Beta virt. eigenvalues --    0.03859   0.03890   0.04119   0.04178   0.05421

 Mulliken charges and spin densities:
               1          2
     1  C   -0.243075   0.028649
     2  C    0.348306   0.028765
     3  C   -0.526921   0.040374
     4  C    0.194613   0.047053
     5  C    0.130403   0.027548
     6  C    0.180250   0.025272
     7  C   -0.453558   0.118144
     8  C    0.195548   0.047148
     9  C    0.131075   0.027534
    10  C   -1.003698   0.083840
    11  C   -0.242572   0.028626
    12  C    0.348352   0.028821
    13  C   -0.526604   0.040325
    14  C    0.179751   0.025325
    15  O   -0.469950   0.214638
    16  O   -0.466771   0.196465
    17  C   -0.347083  -0.002096
    18  H    0.176915  -0.003193
    19  H    0.166934  -0.001062
    20  H    0.166828  -0.001061
    21  C   -0.347102  -0.002099
    22  H    0.176915  -0.003189
    23  H    0.126351  -0.002404
    24  H    0.126396  -0.002405
    25  H    0.165309   0.000066
    26  H    0.161986   0.002210
    27  H    0.162074   0.002213
    28  H    0.165270   0.000066
    29  H    0.162107   0.002214
    30  H    0.161951   0.002213
 Sum of Mulliken charges =  -1.00000   1.00000

 Dipole moment (field-independent basis, Debye):
    X=              4.4468    Y=             -9.5752    Z=             -0.1109  Tot=             10.5580
 Quadrupole moment (field-independent basis, Debye-Ang):
   XX=           -100.4112   YY=           -162.2699   ZZ=           -112.4742
   XY=              7.9410   XZ=             -0.1878   YZ=              0.9014

  Exact polarizability: 514.967  -3.118 367.614  -7.260  -7.303 151.655
 Approx polarizability: 512.488  -1.669 436.959  -6.788  -8.947 174.436

                      1                      2                      3
                      A                      A                      A
 Frequencies --     43.0897                85.2382                87.5764
 Red. masses --      5.0419                 1.5420                 1.1343
 Frc consts  --      0.0055                 0.0066                 0.0051
 IR Inten    --     13.9215                 0.0003                 0.0308

                      4                      5                      6
                      A                      A                      A
 Frequencies --     88.7024               113.9330               155.7180
 Red. masses --      1.5815                 4.7501                 6.4735
 Frc consts  --      0.0073                 0.0363                 0.0925
 IR Inten    --      0.0234                 2.7653                 3.0677

                      7                      8                      9
                      A                      A                      A
 Frequencies --    164.1308               175.4049               237.1301
 Red. masses --      3.7530                 3.8816                 4.3569
 Frc consts  --      0.0596                 0.0704                 0.1443
 IR Inten    --      9.2802                 0.0123                 0.9377

                     10                     11                     12
                      A                      A                      A
 Frequencies --    261.9619               308.8141               319.6841
 Red. masses --      4.2498                 4.3073                 5.0942
 Frc consts  --      0.1718                 0.2420                 0.3067
 IR Inten    --      7.0553                 0.0014                 3.5216

                     13                     14                     15
                      A                      A                      A
 Frequencies --    352.4464               370.4994               378.2391
 Red. masses --      6.3617                 3.5004                 6.7921
 Frc consts  --      0.4656                 0.2831                 0.5725
 IR Inten    --     10.9267                 4.3916                11.0491

                     16                     17                     18
                      A                      A                      A
 Frequencies --    419.3308               435.4456               460.9665
 Red. masses --      3.6399                 4.6647                 4.5731
 Frc consts  --      0.3771                 0.5211                 0.5725
 IR Inten    --      1.8320                 6.7859                19.1144

                     19                     20                     21
                      A                      A                      A
 Frequencies --    465.7227               485.9786               547.3574
 Red. masses --      3.0661                11.8375                 3.7588
 Frc consts  --      0.3918                 1.6472                 0.6635
 IR Inten    --      0.0369                 1.2205                 0.0001

                     22                     23                     24
                      A                      A                      A
 Frequencies --    580.8306               595.1646               647.4170
 Red. masses --      5.1066                 5.8169                 3.5588
 Frc consts  --      1.0150                 1.2140                 0.8789
 IR Inten    --     26.4905                 6.3070                22.5996

                     25                     26                     27
                      A                      A                      A
 Frequencies --    661.6445               708.8155               722.9825
 Red. masses --      7.3064                 6.5862                 4.4492
 Frc consts  --      1.8845                 1.9496                 1.3702
 IR Inten    --      1.6128                 2.3969                52.7820

                     28                     29                     30
                      A                      A                      A
 Frequencies --    726.3609               731.3307               780.0924
 Red. masses --      5.6256                 4.2857                 6.1024
 Frc consts  --      1.7487                 1.3505                 2.1880
 IR Inten    --     14.1898                 0.1240                17.7863

                     31                     32                     33
                      A                      A                      A
 Frequencies --    801.2618               828.0041               844.7749
 Red. masses --      3.2496                 1.3554                 1.8798
 Frc consts  --      1.2292                 0.5475                 0.7904
 IR Inten    --      6.7482                 0.0117                59.0902

                     34                     35                     36
                      A                      A                      A
 Frequencies --    910.9871               915.7755               921.2695
 Red. masses --      3.9919                 1.3487                 1.3984
 Frc consts  --      1.9519                 0.6664                 0.6993
 IR Inten    --      2.3827                 1.7340                15.2052

                     37                     38                     39
                      A                      A                      A
 Frequencies --    933.1466               981.9704               989.4002
 Red. masses --      6.6280                 1.7880                 1.3159
 Frc consts  --      3.4004                 1.0158                 0.7589
 IR Inten    --     42.9535                 1.6140                 0.2138

                     40                     41                     42
                      A                      A                      A
 Frequencies --    992.6529              1015.2823              1039.2551
 Red. masses --      1.3314                 1.4662                 1.9212
 Frc consts  --      0.7729                 0.8905                 1.2226
 IR Inten    --      2.4516                 1.5862                13.0960

                     43                     44                     45
                      A                      A                      A
 Frequencies --   1059.1813              1059.4435              1107.5738
 Red. masses --      1.5318                 1.5313                 2.9403
 Frc consts  --      1.0125                 1.0127                 2.1252
 IR Inten    --      3.3499                11.2571                26.0797

                     46                     47                     48
                      A                      A                      A
 Frequencies --   1128.4504              1151.2925              1179.2211
 Red. masses --      1.7020                 1.4198                 2.7589
 Frc consts  --      1.2769                 1.1088                 2.2603
 IR Inten    --      0.1403                15.9240                 3.6696

                     49                     50                     51
                      A                      A                      A
 Frequencies --   1199.2521              1222.4358              1230.3620
 Red. masses --      2.3080                 1.6040                 3.0184
 Frc consts  --      1.9557                 1.4122                 2.6921
 IR Inten    --      0.0099                 3.8605               184.2431

                     52                     53                     54
                      A                      A                      A
 Frequencies --   1230.8325              1271.5971              1330.3845
 Red. masses --      5.1537                 2.0347                 1.9743
 Frc consts  --      4.6001                 1.9384                 2.0588
 IR Inten    --     57.3977               151.8628                 1.7360

                     55                     56                     57
                      A                      A                      A
 Frequencies --   1359.7044              1364.6637              1393.8283
 Red. masses --      7.5540                 8.1734                 2.9845
 Frc consts  --      8.2284                 8.9681                 3.4162
 IR Inten    --     68.4578                 9.0215               891.9172

                     58                     59                     60
                      A                      A                      A
 Frequencies --   1406.4615              1407.6447              1448.7011
 Red. masses --      1.2494                 1.3351                 2.8163
 Frc consts  --      1.4562                 1.5586                 3.4824
 IR Inten    --      8.2070                30.4931                14.1990

                     61                     62                     63
                      A                      A                      A
 Frequencies --   1464.0410              1473.4442              1473.5512
 Red. masses --      2.4076                 1.0433                 1.0432
 Frc consts  --      3.0404                 1.3345                 1.3346
 IR Inten    --    824.8242                10.9468                 9.9069

                     64                     65                     66
                      A                      A                      A
 Frequencies --   1478.7179              1484.5960              1497.7835
 Red. masses --      1.5372                 1.8695                 2.3625
 Frc consts  --      1.9804                 2.4276                 3.1227
 IR Inten    --    160.7023               137.6872                17.8603

                     67                     68                     69
                      A                      A                      A
 Frequencies --   1506.5138              1523.4261              1551.3598
 Red. masses --      3.1922                 3.9724                 4.9154
 Frc consts  --      4.2686                 5.4318                 6.9700
 IR Inten    --    529.5566               116.9205                83.9095

                     70                     71                     72
                      A                      A                      A
 Frequencies --   1603.1865              1631.5338              1641.1505
 Red. masses --      8.5111                 5.7573                 6.3058
 Frc consts  --     12.8885                 9.0295                10.0066
 IR Inten    --      9.3076                89.1851                 0.6856

                     73                     74                     75
                      A                      A                      A
 Frequencies --   3015.7963              3016.0476              3060.5987
 Red. masses --      1.0377                 1.0377                 1.1001
 Frc consts  --      5.5607                 5.5616                 6.0716
 IR Inten    --    178.6335                 9.5231                27.8167

                     76                     77                     78
                      A                      A                      A
 Frequencies --   3060.6284              3099.7796              3099.9894
 Red. masses --      1.1001                 1.1000                 1.0999
 Frc consts  --      6.0718                 6.2273                 6.2279
 IR Inten    --     33.9738                32.5538                35.6736

                     79                     80                     81
                      A                      A                      A
 Frequencies --   3151.5031              3151.8556              3177.0477
 Red. masses --      1.0885                 1.0886                 1.0890
 Frc consts  --      6.3695                 6.3718                 6.4763
 IR Inten    --     27.9153                33.9970                19.7708

                     82                     83                     84
                      A                      A                      A
 Frequencies --   3178.7081              3186.7355              3189.4111
 Red. masses --      1.0890                 1.0918                 1.0915
 Frc consts  --      6.4831                 6.5328                 6.5421
 IR Inten    --     17.1364                29.5100                22.5108

 - Thermochemistry -
 -------------------
 Temperature   298.150 Kelvin.  Pressure   1.00000 Atm.
 Atom     1 has atomic number  6 and mass  12.00000

 Molecular mass:   236.08373 amu.
 Principal axes and moments of inertia in atomic units:
                           1         2         3
     Eigenvalues --  1886.095866677.059548540.86732
           X            0.99961   0.01927   0.02018
           Y           -0.01995   0.99923   0.03381
           Z           -0.01951  -0.03420   0.99922
 This molecule is an asymmetric top.
 Rotational symmetry number  1.
 Warning -- assumption of classical behavior for rotation
           may cause significant error
 Rotational temperatures (Kelvin)      0.04592     0.01297     0.01014
 Rotational constants (GHZ):           0.95687     0.27029     0.21131
 Zero-point vibrational energy     607429.2 (Joules/Mol)
                                  145.17905 (Kcal/Mol)
 Warning -- explicit consideration of  23 degrees of freedom as
           vibrations may cause significant error
 Vibrational temperatures:     62.00   122.64   126.00   127.62   163.92
          (Kelvin)            224.04   236.15   252.37   341.18   376.90
                              444.31   459.95   507.09   533.07   544.20
                              603.32   626.51   663.23   670.07   699.21
                              787.53   835.69   856.31   931.49   951.96
                             1019.83  1040.21  1045.07  1052.22  1122.38
                             1152.84  1191.31  1215.44  1310.71  1317.60
                             1325.50  1342.59  1412.84  1423.53  1428.21
                             1460.76  1495.26  1523.93  1524.30  1593.55
                             1623.59  1656.45  1696.64  1725.46  1758.81
                             1770.22  1770.89  1829.54  1914.13  1956.31
                             1963.45  2005.41  2023.58  2025.29  2084.36
                             2106.43  2119.96  2120.11  2127.55  2136.00
                             2154.98  2167.54  2191.87  2232.06  2306.63
                             2347.41  2361.25  4339.06  4339.42  4403.52
                             4403.56  4459.89  4460.19  4534.31  4534.82
                             4571.06  4573.45  4585.00  4588.85

 Zero-point correction=                           0.231358 (Hartree/Particle)
 Thermal correction to Energy=                    0.246211
 Thermal correction to Enthalpy=                  0.247155
 Thermal correction to Gibbs Free Energy=         0.188737
 Sum of electronic and zero-point Energies=           -767.518958
 Sum of electronic and thermal Energies=              -767.504105
 Sum of electronic and thermal Enthalpies=            -767.503161
 Sum of electronic and thermal Free Energies=         -767.561579

                     E (Thermal)             CV                S
                      KCal/Mol        Cal/Mol-Kelvin    Cal/Mol-Kelvin
 Total                  154.499             58.303            122.951
 Electronic               0.000              0.000              1.377
 Translational            0.889              2.981             42.279
 Rotational               0.889              2.981             33.042
 Vibrational            152.722             52.342             46.253
 Vibration     1          0.595              1.980              5.112
 Vibration     2          0.601              1.959              3.766
 Vibration     3          0.601              1.958              3.713
 Vibration     4          0.602              1.957              3.688
 Vibration     5          0.607              1.938              3.201
 Vibration     6          0.620              1.896              2.601
 Vibration     7          0.623              1.886              2.502
 Vibration     8          0.627              1.873              2.377
 Vibration     9          0.656              1.784              1.824
 Vibration    10          0.669              1.742              1.649
 Vibration    11          0.698              1.657              1.369
 Vibration    12          0.706              1.636              1.312
 Vibration    13          0.729              1.570              1.155
 Vibration    14          0.742              1.533              1.078
 Vibration    15          0.749              1.517              1.046
 Vibration    16          0.782              1.428              0.894
 Vibration    17          0.796              1.393              0.841
 Vibration    18          0.819              1.337              0.763
 Vibration    19          0.823              1.326              0.750
 Vibration    20          0.842              1.281              0.694
 Vibration    21          0.903              1.145              0.550
 Vibration    22          0.938              1.073              0.484
 Vibration    23          0.953              1.042              0.458

                           ! Non-Optimized Parameters !
 Normal termination of Gaussian 16 at Sat Feb 10 17:50:44 2024.
