 Gaussian 16, Revision A.03,
 Gaussian 16:  ES64L-G16RevA.03 25-Dec-2016

 ----------------------------------------------------------------------
 #P UB3LYP/6-311++G(d,p) nosym opt freq SCRF=(PCM,Solvent=n,n-DiMethylF
 ormamide)
 ----------------------------------------------------------------------

 -------
 Radical
 -------
 Symbolic Z-matrix:
 Charge = -1 Multiplicity = 2

 SCF Done:  E(UB3LYP) =  -1279.31970915     A.U. after   22 cycles
 SCF Done:  E(UB3LYP) =  -1279.32001249     A.U. after   20 cycles
 SCF Done:  E(UB3LYP) =  -1279.32009707     A.U. after   17 cycles
 SCF Done:  E(UB3LYP) =  -1279.32009965     A.U. after   16 cycles
 SCF Done:  E(UB3LYP) =  -1279.32013230     A.U. after   16 cycles
 SCF Done:  E(UB3LYP) =  -1279.32013363     A.U. after   14 cycles
 SCF Done:  E(UB3LYP) =  -1279.32013452     A.U. after   14 cycles
 SCF Done:  E(UB3LYP) =  -1279.32013488     A.U. after   12 cycles
 SCF Done:  E(UB3LYP) =  -1279.32013502     A.U. after   13 cycles
 SCF Done:  E(UB3LYP) =  -1279.32013510     A.U. after   11 cycles
 SCF Done:  E(UB3LYP) =  -1279.32013530     A.U. after   11 cycles
 SCF Done:  E(UB3LYP) =  -1279.32013551     A.U. after   11 cycles
 SCF Done:  E(UB3LYP) =  -1279.32013583     A.U. after   11 cycles
 SCF Done:  E(UB3LYP) =  -1279.32013630     A.U. after   11 cycles
 SCF Done:  E(UB3LYP) =  -1279.32013677     A.U. after   13 cycles
 SCF Done:  E(UB3LYP) =  -1279.32013717     A.U. after   13 cycles
 SCF Done:  E(UB3LYP) =  -1279.32013727     A.U. after   12 cycles
 SCF Done:  E(UB3LYP) =  -1279.32013727     A.U. after   10 cycles
 SCF Done:  E(UB3LYP) =  -1279.32013727     A.U. after    9 cycles
 Optimization completed.
    -- Stationary point found.
 Normal termination of Gaussian 16 at Sun Feb 11 16:58:00 2024.

 ----------------------------------------------------------------------
 #P Geom=AllCheck Guess=TCheck SCRF=Check GenChk UB3LYP/6-311++G(d,p) F
 req
 ----------------------------------------------------------------------

 Structure from the checkpoint file:  "297-rad.chk"
 -------
 Radical
 -------
 Charge = -1 Multiplicity = 2

                          Input orientation:
 ---------------------------------------------------------------------
 Center     Atomic      Atomic             Coordinates (Angstroms)
 Number     Number       Type             X           Y           Z
 ---------------------------------------------------------------------
      1          6           0       -0.860379    2.744352    0.340040
      2          6           0       -1.513940    2.869216   -0.872514
      3          6           0       -0.976402    2.271754   -2.027116
      4          6           0        0.347608    2.020902    0.437949
      5          6           0        0.893063    1.418037   -0.727392
      6          6           0        0.209267    1.558813   -1.948181
      7          6           0        1.027729    1.886981    1.710143
      8          6           0        2.254214    1.123734    1.729208
      9          6           0        2.807559    0.529956    0.602073
     10          6           0        2.159315    0.648632   -0.687907
     11          8           0        0.620511    2.384294    2.812037
     12          8           0        2.621099    0.131031   -1.733311
     13          8           0        2.825528    1.031284    2.950360
     14          1           0       -1.263970    3.199160    1.236673
     15          1           0       -2.441772    3.427495   -0.933775
     16          1           0       -1.490033    2.369195   -2.977121
     17          1           0        0.634810    1.092828   -2.828545
     18          1           0        2.211859    1.540315    3.523909
     19         16           0        4.376085   -0.306702    0.718495
     20          6           0        3.957888   -2.051992    0.807204
     21          6           0        2.655967   -2.534480    0.947442
     22          6           0        5.018031   -2.966682    0.754580
     23          6           0        2.423558   -3.908153    1.029301
     24          6           0        4.771233   -4.333633    0.841850
     25          6           0        3.469456   -4.834572    0.976916
     26          6           0        3.208302   -6.320578    1.037475
     27          1           0        1.823716   -1.842663    0.994085
     28          1           0        6.037754   -2.611618    0.646246
     29          1           0        1.402610   -4.260783    1.139563
     30          1           0        5.609077   -5.022963    0.801751
     31          1           0        3.978030   -6.837305    1.616430
     32          1           0        3.205795   -6.762577    0.034941
     33          1           0        2.238695   -6.534819    1.492187
 ---------------------------------------------------------------------

 SCF Done:  E(UB3LYP) =  -1279.32013727     A.U. after    2 cycles

 Alpha  occ. eigenvalues --  -88.84996 -19.15427 -19.09242 -19.08071 -10.23951
 Alpha  occ. eigenvalues --  -10.23648 -10.22808 -10.20681 -10.19134 -10.18215
 Alpha  occ. eigenvalues --  -10.18190 -10.18016 -10.17790 -10.17721 -10.17576
 Alpha  occ. eigenvalues --  -10.17539 -10.17537 -10.17509 -10.17454 -10.17453
 Alpha  occ. eigenvalues --  -10.16486  -7.93574  -5.89984  -5.89577  -5.88966
 Alpha  occ. eigenvalues --   -1.07684  -1.00783  -1.00268  -0.86864  -0.86431
 Alpha  occ. eigenvalues --   -0.82234  -0.79152  -0.75845  -0.75527  -0.75008
 Alpha  occ. eigenvalues --   -0.71958  -0.68398  -0.66133  -0.62725  -0.61530
 Alpha  occ. eigenvalues --   -0.60543  -0.57925  -0.57545  -0.54334  -0.51658
 Alpha  occ. eigenvalues --   -0.50128  -0.48538  -0.47276  -0.46500  -0.45722
 Alpha  occ. eigenvalues --   -0.44843  -0.44421  -0.43095  -0.42352  -0.42201
 Alpha  occ. eigenvalues --   -0.42073  -0.41376  -0.40520  -0.39553  -0.38906
 Alpha  occ. eigenvalues --   -0.38527  -0.37640  -0.37072  -0.36657  -0.35220
 Alpha  occ. eigenvalues --   -0.34881  -0.34458  -0.34284  -0.32803  -0.28521
 Alpha  occ. eigenvalues --   -0.27343  -0.26585  -0.26160  -0.26002  -0.24689
 Alpha  occ. eigenvalues --   -0.24322  -0.21064  -0.15966
 Alpha virt. eigenvalues --   -0.04039  -0.02168  -0.01859  -0.01352  -0.00583
 Alpha virt. eigenvalues --    0.00090   0.00792   0.01336   0.01706   0.02211
 Alpha virt. eigenvalues --    0.02933   0.03248   0.03422   0.03799   0.04309

  Beta  occ. eigenvalues --  -88.84997 -19.15339 -19.08558 -19.07597 -10.23766
  Beta  occ. eigenvalues --  -10.23554 -10.22522 -10.20668 -10.19069 -10.18216
  Beta  occ. eigenvalues --  -10.18204 -10.17908 -10.17790 -10.17734 -10.17537
  Beta  occ. eigenvalues --  -10.17518 -10.17508 -10.17477 -10.17457 -10.17454
  Beta  occ. eigenvalues --  -10.16486  -7.93576  -5.89987  -5.89580  -5.88967
  Beta  occ. eigenvalues --   -1.07393  -0.99967  -0.99094  -0.86833  -0.86226
  Beta  occ. eigenvalues --   -0.81973  -0.78965  -0.75682  -0.75355  -0.75003
  Beta  occ. eigenvalues --   -0.71776  -0.67815  -0.65832  -0.62525  -0.61475
  Beta  occ. eigenvalues --   -0.60339  -0.57818  -0.57368  -0.54160  -0.51467
  Beta  occ. eigenvalues --   -0.49967  -0.48313  -0.47238  -0.46367  -0.45682
  Beta  occ. eigenvalues --   -0.44778  -0.43234  -0.42998  -0.42232  -0.42072
  Beta  occ. eigenvalues --   -0.41676  -0.41056  -0.40232  -0.38863  -0.38524
  Beta  occ. eigenvalues --   -0.38311  -0.37219  -0.36696  -0.35833  -0.35115
  Beta  occ. eigenvalues --   -0.34433  -0.34172  -0.33226  -0.32577  -0.28484
  Beta  occ. eigenvalues --   -0.26028  -0.25992  -0.25496  -0.25337  -0.24212
  Beta  occ. eigenvalues --   -0.23514  -0.21020
  Beta virt. eigenvalues --   -0.09346  -0.03276  -0.01941  -0.01427  -0.00942
  Beta virt. eigenvalues --   -0.00547   0.00117   0.00814   0.01359   0.01718
  Beta virt. eigenvalues --    0.02266   0.02969   0.03257   0.03605   0.03850

 Mulliken charges and spin densities:
               1          2
     1  C   -0.064396   0.080246
     2  C   -0.525185  -0.017431
     3  C   -0.460823   0.073750
     4  C    0.223323  -0.029722
     5  C    0.300890   0.084009
     6  C    0.032436  -0.010494
     7  C   -0.745706   0.189798
     8  C   -0.839443   0.105007
     9  C    2.297741   0.024112
    10  C   -0.843873   0.057992
    11  O   -0.508325   0.251533
    12  O   -0.420837   0.174230
    13  O   -0.213039   0.027730
    14  H    0.191307  -0.004684
    15  H    0.181353   0.000349
    16  H    0.183154  -0.004986
    17  H    0.188807   0.000197
    18  H    0.293052  -0.003613
    19  S    0.201493   0.003706
    20  C   -0.239998   0.006785
    21  C   -0.087253  -0.008974
    22  C   -0.300386   0.003417
    23  C   -0.440512  -0.005023
    24  C   -0.584246   0.001344
    25  C    0.453660  -0.000551
    26  C   -0.531686  -0.000973
    27  H    0.212141   0.002026
    28  H    0.190618  -0.000116
    29  H    0.197161   0.000088
    30  H    0.185100   0.000287
    31  H    0.149280   0.000006
    32  H    0.172842  -0.000038
    33  H    0.151350  -0.000009
 Sum of Mulliken charges =  -1.00000   1.00000

 Dipole moment (field-independent basis, Debye):
    X=            -11.9557    Y=             -4.9545    Z=             -2.7262  Tot=             13.2256
 Quadrupole moment (field-independent basis, Debye-Ang):
   XX=           -166.6995   YY=           -133.2723   ZZ=           -157.7838
   XY=             -7.7965   XZ=              1.9614   YZ=            -13.0346

  Exact polarizability: 380.603 -96.272 370.065  19.325  17.486 350.777
 Approx polarizability: 422.385 -85.360 383.998   7.645  34.047 414.693

                      1                      2                      3
                      A                      A                      A
 Frequencies --     15.9622                22.8672                30.2542
 Red. masses --      3.7103                 1.2292                 3.4426
 Frc consts  --      0.0006                 0.0004                 0.0019
 IR Inten    --      1.7874                 0.3804                 1.2477

                      4                      5                      6
                      A                      A                      A
 Frequencies --     32.8207                84.7585               105.3300
 Red. masses --      5.1720                 8.3078                 5.0900
 Frc consts  --      0.0033                 0.0352                 0.0333
 IR Inten    --      1.1295                11.6229                 0.4457

                      7                      8                      9
                      A                      A                      A
 Frequencies --    107.1284               147.9512               182.2067
 Red. masses --      4.7425                 6.4980                 6.9822
 Frc consts  --      0.0321                 0.0838                 0.1366
 IR Inten    --      0.1094                 0.0173                 2.4168

                     10                     11                     12
                      A                      A                      A
 Frequencies --    202.4397               208.2359               270.7440
 Red. masses --      5.3769                10.3730                 6.4953
 Frc consts  --      0.1298                 0.2650                 0.2805
 IR Inten    --      0.6280                 4.1896                 2.2090

                     13                     14                     15
                      A                      A                      A
 Frequencies --    293.4369               299.1017               337.9922
 Red. masses --      5.3173                 5.5893                 4.8704
 Frc consts  --      0.2698                 0.2946                 0.3278
 IR Inten    --      0.9813                 3.8991                11.1669

                     16                     17                     18
                      A                      A                      A
 Frequencies --    354.4959               378.2868               389.3553
 Red. masses --      3.7345                10.9945                 8.9337
 Frc consts  --      0.2765                 0.9270                 0.7979
 IR Inten    --     19.0619                29.9574                 3.5198

                     19                     20                     21
                      A                      A                      A
 Frequencies --    400.9964               414.0275               426.1122
 Red. masses --      5.8262                 2.9680                10.0906
 Frc consts  --      0.5520                 0.2998                 1.0795
 IR Inten    --      6.8759                 0.2317                 4.4224

                     22                     23                     24
                      A                      A                      A
 Frequencies --    439.9750               464.5397               491.7952
 Red. masses --      5.0722                 4.5258                 2.6708
 Frc consts  --      0.5785                 0.5754                 0.3806
 IR Inten    --      6.6539                 7.6271                35.2854

                     25                     26                     27
                      A                      A                      A
 Frequencies --    506.5618               554.2358               588.0005
 Red. masses --     10.9450                 5.3199                 8.6664
 Frc consts  --      1.6547                 0.9628                 1.7654
 IR Inten    --      0.4569                10.9196                19.0345

                     28                     29                     30
                      A                      A                      A
 Frequencies --    621.7532               650.1144               665.8135
 Red. masses --      5.6415                 6.9968                 6.8721
 Frc consts  --      1.2849                 1.7423                 1.7949
 IR Inten    --     10.9834                 1.6528                13.8260

                     31                     32                     33
                      A                      A                      A
 Frequencies --    692.2784               700.7107               711.0754
 Red. masses --      1.1611                 4.1758                 3.3319
 Frc consts  --      0.3279                 1.2080                 0.9926
 IR Inten    --    101.8347                67.3454                59.9990

                     34                     35                     36
                      A                      A                      A
 Frequencies --    711.8518               712.5857               771.3179
 Red. masses --      4.1526                 5.6344                 3.2127
 Frc consts  --      1.2398                 1.6857                 1.1261
 IR Inten    --     12.3021                 5.7914                30.4867

                     37                     38                     39
                      A                      A                      A
 Frequencies --    791.2963               806.0145               816.5326
 Red. masses --      2.2074                 4.5103                 1.4580
 Frc consts  --      0.8143                 1.7264                 0.5727
 IR Inten    --     19.7813                 8.4177                73.2773

                     40                     41                     42
                      A                      A                      A
 Frequencies --    830.7898               842.6229               880.6664
 Red. masses --      8.3180                 1.2532                 6.7278
 Frc consts  --      3.3826                 0.5243                 3.0743
 IR Inten    --     36.0445                 0.3808                60.5824

                     43                     44                     45
                      A                      A                      A
 Frequencies --    885.7080               955.9839               981.9852
 Red. masses --      1.4140                 1.2638                 1.3565
 Frc consts  --      0.6535                 0.6805                 0.7707
 IR Inten    --      0.1302                 0.2535                 0.0408

                     46                     47                     48
                      A                      A                      A
 Frequencies --    984.8896              1001.4973              1004.3789
 Red. masses --      1.3720                 1.2950                 1.4211
 Frc consts  --      0.7841                 0.7653                 0.8446
 IR Inten    --      2.3458                 0.0024                 1.6842

                     49                     50                     51
                      A                      A                      A
 Frequencies --   1025.2322              1028.9346              1053.2317
 Red. masses --      5.5463                 3.3283                 2.3355
 Frc consts  --      3.4348                 2.0761                 1.5264
 IR Inten    --    134.1167                25.9655                35.2275

                     52                     53                     54
                      A                      A                      A
 Frequencies --   1059.1089              1084.8164              1105.7074
 Red. masses --      1.5290                 3.9574                 2.6059
 Frc consts  --      1.0105                 2.7439                 1.8771
 IR Inten    --     17.8551                51.8373                20.5660

                     55                     56                     57
                      A                      A                      A
 Frequencies --   1135.7872              1146.9647              1164.7936
 Red. masses --      1.3266                 1.9945                 1.6041
 Frc consts  --      1.0083                 1.5459                 1.2823
 IR Inten    --     10.2148                 8.5973                 8.9025

                     58                     59                     60
                      A                      A                      A
 Frequencies --   1202.3512              1203.2153              1228.0800
 Red. masses --      2.0742                 1.2646                 2.9952
 Frc consts  --      1.7667                 1.0787                 2.6615
 IR Inten    --     17.9294                16.0355                 6.2778

                     61                     62                     63
                      A                      A                      A
 Frequencies --   1238.4208              1257.8867              1306.2113
 Red. masses --      3.2283                 2.1458                 6.0174
 Frc consts  --      2.9171                 2.0004                 6.0491
 IR Inten    --     15.2584                16.7600                12.6092

                     64                     65                     66
                      A                      A                      A
 Frequencies --   1316.3660              1333.0993              1349.6781
 Red. masses --      2.0046                 1.3766                 9.6470
 Frc consts  --      2.0466                 1.4414                10.3539
 IR Inten    --    279.9621                 1.2334                 9.7032

                     67                     68                     69
                      A                      A                      A
 Frequencies --   1402.8219              1408.9047              1421.9942
 Red. masses --      3.3601                 1.2467                 2.4917
 Frc consts  --      3.8959                 1.4580                 2.9686
 IR Inten    --   1035.1455                 3.4963                 8.2809

                     70                     71                     72
                      A                      A                      A
 Frequencies --   1461.3461              1477.9771              1478.5221
 Red. masses --      3.0493                 1.0806                 2.9233
 Frc consts  --      3.8367                 1.3908                 3.7651
 IR Inten    --    131.9664                 5.7514                68.4708

                     73                     74                     75
                      A                      A                      A
 Frequencies --   1483.2486              1507.6266              1518.7953
 Red. masses --      1.1077                 4.8778                 2.2696
 Frc consts  --      1.4358                 6.5323                 3.0846
 IR Inten    --     25.0831              1060.9416               135.6588

                     76                     77                     78
                      A                      A                      A
 Frequencies --   1540.6937              1557.5836              1596.5856
 Red. masses --      6.9053                 4.2391                 5.6999
 Frc consts  --      9.6575                 6.0594                 8.5605
 IR Inten    --    143.9152                68.1076                 1.6748

                     79                     80                     81
                      A                      A                      A
 Frequencies --   1609.3642              1629.5529              1633.2252
 Red. masses --      6.9720                 6.0320                 5.6870
 Frc consts  --     10.6394                 9.4373                 8.9377
 IR Inten    --     21.4931                22.7145                23.5407

                     82                     83                     84
                      A                      A                      A
 Frequencies --   3017.7934              3070.1913              3099.3250
 Red. masses --      1.0410                 1.0947                 1.1022
 Frc consts  --      5.5859                 6.0796                 6.2379
 IR Inten    --     62.9986                32.0126                30.1871

                     85                     86                     87
                      A                      A                      A
 Frequencies --   3152.4534              3155.2202              3162.5133
 Red. masses --      1.0871                 1.0890                 1.0861
 Frc consts  --      6.3651                 6.3873                 6.4003
 IR Inten    --     16.4022                27.1661                 8.0922

                     88                     89                     90
                      A                      A                      A
 Frequencies --   3169.1612              3175.8772              3186.1221
 Red. masses --      1.0942                 1.0901                 1.0917
 Frc consts  --      6.4748                 6.4778                 6.5297
 IR Inten    --     35.4473                17.7045                 5.6405

                     91                     92                     93
                      A                      A                      A
 Frequencies --   3189.4499              3193.5135              3501.0586
 Red. masses --      1.0924                 1.0950                 1.0636
 Frc consts  --      6.5473                 6.5797                 7.6810
 IR Inten    --     16.5979                35.4177               211.2103

 - Thermochemistry -
 -------------------
 Temperature   298.150 Kelvin.  Pressure   1.00000 Atm.
 Atom     1 has atomic number  6 and mass  12.00000

 Molecular mass:   296.05072 amu.
 Principal axes and moments of inertia in atomic units:
                           1         2         3
     Eigenvalues --  3328.44731********************
           X           -0.52347   0.40753   0.74826
           Y            0.84121   0.38677   0.37785
           Z           -0.13542   0.82724  -0.54528
 This molecule is an asymmetric top.
 Rotational symmetry number  1.
 Warning -- assumption of classical behavior for rotation
           may cause significant error
 Rotational temperatures (Kelvin)      0.02602     0.00771     0.00713
 Rotational constants (GHZ):           0.54222     0.16066     0.14850
 Zero-point vibrational energy     638867.4 (Joules/Mol)
                                  152.69297 (Kcal/Mol)
 Warning -- explicit consideration of  27 degrees of freedom as
           vibrations may cause significant error
 Vibrational temperatures:     22.97    32.90    43.53    47.22   121.95
          (Kelvin)            151.55   154.13   212.87   262.15   291.27
                              299.61   389.54   422.19   430.34   486.30
                              510.04   544.27   560.20   576.94   595.69
                              613.08   633.03   668.37   707.58   728.83
                              797.42   846.00   894.56   935.37   957.96
                              996.03  1008.17  1023.08  1024.20  1025.25
                             1109.75  1138.50  1159.68  1174.81  1195.32
                             1212.35  1267.08  1274.34  1375.45  1412.86
                             1417.04  1440.93  1445.08  1475.08  1480.41
                             1515.37  1523.82  1560.81  1590.87  1634.14
                             1650.23  1675.88  1729.92  1731.16  1766.93
                             1781.81  1809.82  1879.35  1893.96  1918.03
                             1941.89  2018.35  2027.10  2045.93  2102.55
                             2126.48  2127.26  2134.06  2169.14  2185.21
                             2216.71  2241.02  2297.13  2315.52  2344.56
                             2349.85  4341.93  4417.32  4459.24  4535.68
                             4539.66  4550.15  4559.72  4569.38  4584.12
                             4588.91  4594.75  5037.24

 Zero-point correction=                           0.243332 (Hartree/Particle)
 Thermal correction to Energy=                    0.261325
 Thermal correction to Enthalpy=                  0.262269
 Thermal correction to Gibbs Free Energy=         0.193584
 Sum of electronic and zero-point Energies=          -1279.076806
 Sum of electronic and thermal Energies=             -1279.058812
 Sum of electronic and thermal Enthalpies=           -1279.057868
 Sum of electronic and thermal Free Energies=        -1279.126554

                     E (Thermal)             CV                S
                      KCal/Mol        Cal/Mol-Kelvin    Cal/Mol-Kelvin
 Total                  163.984             69.114            144.561
 Electronic               0.000              0.000              1.377
 Translational            0.889              2.981             42.953
 Rotational               0.889              2.981             34.473
 Vibrational            162.207             63.152             65.757
 Vibration     1          0.593              1.986              7.082
 Vibration     2          0.593              1.985              6.368
 Vibration     3          0.594              1.984              5.813
 Vibration     4          0.594              1.983              5.651
 Vibration     5          0.601              1.960              3.778
 Vibration     6          0.605              1.945              3.353
 Vibration     7          0.606              1.944              3.320
 Vibration     8          0.617              1.905              2.698
 Vibration     9          0.630              1.864              2.306
 Vibration    10          0.639              1.836              2.111
 Vibration    11          0.642              1.828              2.059
 Vibration    12          0.674              1.727              1.591
 Vibration    13          0.688              1.686              1.454
 Vibration    14          0.692              1.675              1.422
 Vibration    15          0.718              1.600              1.222
 Vibration    16          0.730              1.566              1.146
 Vibration    17          0.749              1.516              1.046
 Vibration    18          0.757              1.493              1.003
 Vibration    19          0.767              1.468              0.959
 Vibration    20          0.778              1.440              0.912
 Vibration    21          0.788              1.413              0.871
 Vibration    22          0.800              1.383              0.827
 Vibration    23          0.822              1.329              0.753
 Vibration    24          0.848              1.268              0.679
 Vibration    25          0.862              1.235              0.642
 Vibration    26          0.910              1.130              0.535
 Vibration    27          0.945              1.057              0.471

 Optimization completed.
    -- Stationary point found.
 Normal termination of Gaussian 16 at Sun Feb 11 18:23:02 2024.
