 Gaussian 16, Revision A.03,
 Gaussian 16:  ES64L-G16RevA.03 25-Dec-2016

 ----------------------------------------------------------------------
 #P UB3LYP/6-311++G(d,p) nosym opt freq SCRF=(PCM,Solvent=n,n-DiMethylF
 ormamide)
 ----------------------------------------------------------------------

 --------
 Oxidized
 --------
 Symbolic Z-matrix:
 Charge =  0 Multiplicity = 1

 SCF Done:  E(UB3LYP) =  -590.662336534     A.U. after   15 cycles
 SCF Done:  E(UB3LYP) =  -590.662590826     A.U. after   13 cycles
 SCF Done:  E(UB3LYP) =  -590.662637850     A.U. after   12 cycles
 SCF Done:  E(UB3LYP) =  -590.662634507     A.U. after   10 cycles
 SCF Done:  E(UB3LYP) =  -590.662638225     A.U. after   10 cycles
 SCF Done:  E(UB3LYP) =  -590.662639415     A.U. after   10 cycles
 Optimization completed.
    -- Stationary point found.
 Normal termination of Gaussian 16 at Sun Feb 11 00:21:33 2024.

 ----------------------------------------------------------------------
 #P Geom=AllCheck Guess=TCheck SCRF=Check GenChk UB3LYP/6-311++G(d,p) F
 req
 ----------------------------------------------------------------------

 Structure from the checkpoint file:  "269.chk"
 --------
 Oxidized
 --------
 Charge =  0 Multiplicity = 1

                          Input orientation:
 ---------------------------------------------------------------------
 Center     Atomic      Atomic             Coordinates (Angstroms)
 Number     Number       Type             X           Y           Z
 ---------------------------------------------------------------------
      1          7           0       -3.299916   -0.934776    0.230154
      2          6           0       -2.121032   -0.292079    0.214085
      3          6           0       -1.938711    1.038344    0.477210
      4          6           0       -0.642917    1.667237    0.442944
      5          8           0       -0.494979    2.871410    0.683281
      6          6           0        0.548649    0.817103    0.104304
      7          6           0        1.820272    1.385350    0.061579
      8          6           0        2.930616    0.602024   -0.252017
      9          6           0        2.777586   -0.758071   -0.525838
     10          6           0        1.511920   -1.335457   -0.485919
     11          6           0        0.395778   -0.553877   -0.171821
     12          6           0       -0.944531   -1.176574   -0.131428
     13          8           0       -1.138140   -2.360685   -0.362753
     14          1           0       -4.162564   -0.460961    0.444818
     15          1           0       -3.320188   -1.921574    0.019127
     16          1           0       -2.782808    1.672490    0.724467
     17          1           0        1.927630    2.441194    0.275571
     18          1           0        3.915880    1.052522   -0.282849
     19          1           0        3.641749   -1.364615   -0.769239
     20          1           0        1.375705   -2.389006   -0.695675
 ---------------------------------------------------------------------

 SCF Done:  E(UB3LYP) =  -590.662639415     A.U. after    1 cycles

 Alpha  occ. eigenvalues --  -19.14616 -19.11503 -14.35429 -10.29430 -10.27002
 Alpha  occ. eigenvalues --  -10.25693 -10.20940 -10.20769 -10.20046 -10.19936
 Alpha  occ. eigenvalues --  -10.19695 -10.19588 -10.18308  -1.08042  -1.04392
 Alpha  occ. eigenvalues --   -0.95550  -0.88952  -0.82146  -0.77880  -0.76591
 Alpha  occ. eigenvalues --   -0.69929  -0.65042  -0.64418  -0.59575  -0.57389
 Alpha  occ. eigenvalues --   -0.54913  -0.51798  -0.50843  -0.48801  -0.46844
 Alpha  occ. eigenvalues --   -0.46001  -0.45241  -0.45175  -0.43914  -0.42325
 Alpha  occ. eigenvalues --   -0.41469  -0.38903  -0.38319  -0.36906  -0.36287
 Alpha  occ. eigenvalues --   -0.29647  -0.28632  -0.27869  -0.27162  -0.24262
 Alpha virt. eigenvalues --   -0.12129  -0.05382  -0.02452  -0.00713   0.00206
 Alpha virt. eigenvalues --    0.01155   0.02273   0.02465   0.02752   0.04291
 Alpha virt. eigenvalues --    0.04483   0.05067   0.05202   0.05919   0.07114

  Beta  occ. eigenvalues --  -19.14616 -19.11503 -14.35429 -10.29430 -10.27002
  Beta  occ. eigenvalues --  -10.25693 -10.20940 -10.20769 -10.20046 -10.19936
  Beta  occ. eigenvalues --  -10.19695 -10.19588 -10.18308  -1.08042  -1.04392
  Beta  occ. eigenvalues --   -0.95550  -0.88952  -0.82146  -0.77880  -0.76591
  Beta  occ. eigenvalues --   -0.69929  -0.65042  -0.64418  -0.59575  -0.57389
  Beta  occ. eigenvalues --   -0.54913  -0.51798  -0.50843  -0.48801  -0.46844
  Beta  occ. eigenvalues --   -0.46001  -0.45241  -0.45175  -0.43914  -0.42325
  Beta  occ. eigenvalues --   -0.41469  -0.38903  -0.38319  -0.36906  -0.36287
  Beta  occ. eigenvalues --   -0.29647  -0.28632  -0.27869  -0.27162  -0.24262
  Beta virt. eigenvalues --   -0.12129  -0.05382  -0.02452  -0.00713   0.00206
  Beta virt. eigenvalues --    0.01155   0.02273   0.02465   0.02752   0.04291
  Beta virt. eigenvalues --    0.04483   0.05067   0.05202   0.05919   0.07114

 Mulliken charges and spin densities:
               1          2
     1  N   -0.407795   0.000000
     2  C    0.201987   0.000000
     3  C    0.573556  -0.000000
     4  C   -0.591917   0.000000
     5  O   -0.365773  -0.000000
     6  C    0.192487   0.000000
     7  C    0.250317   0.000000
     8  C   -0.332968   0.000000
     9  C   -0.391148   0.000000
    10  C    0.193104  -0.000000
    11  C    0.340195  -0.000000
    12  C   -1.009414  -0.000000
    13  O   -0.287727  -0.000000
    14  H    0.331976  -0.000000
    15  H    0.317516   0.000000
    16  H    0.201597   0.000000
    17  H    0.180829  -0.000000
    18  H    0.210157  -0.000000
    19  H    0.209653   0.000000
    20  H    0.183368  -0.000000
 Sum of Mulliken charges =  -0.00000   0.00000

 Dipole moment (field-independent basis, Debye):
    X=             -1.0546    Y=             -3.3262    Z=             -0.5763  Tot=              3.5367
 Quadrupole moment (field-independent basis, Debye-Ang):
   XX=            -44.3740   YY=            -92.1937   ZZ=            -77.9458
   XY=              3.1264   XZ=             -3.6675   YZ=             -3.5446

  Exact polarizability: 240.208  32.700 241.418 -12.842  28.892  95.650
 Approx polarizability: 266.247  50.489 323.825 -10.500  41.223 112.516

                      1                      2                      3
                      A                      A                      A
 Frequencies --     60.2363               115.8750               155.9687
 Red. masses --      8.4217                 4.5333                 7.0161
 Frc consts  --      0.0180                 0.0359                 0.1006
 IR Inten    --     11.9085                 0.3609                 1.3171

                      4                      5                      6
                      A                      A                      A
 Frequencies --    191.5017               259.6285               261.6504
 Red. masses --      4.4988                 1.2639                 3.9086
 Frc consts  --      0.0972                 0.0502                 0.1577
 IR Inten    --     14.9946               277.8366                30.4311

                      7                      8                      9
                      A                      A                      A
 Frequencies --    330.1576               382.8285               399.4295
 Red. masses --      3.9082                 8.8624                 3.5258
 Frc consts  --      0.2510                 0.7653                 0.3314
 IR Inten    --      3.2614                31.4197                 2.8455

                     10                     11                     12
                      A                      A                      A
 Frequencies --    403.2544               443.4585               465.0240
 Red. masses --      8.7140                 3.7407                 9.0564
 Frc consts  --      0.8349                 0.4334                 1.1539
 IR Inten    --     20.0920                 3.9126                 8.9961

                     13                     14                     15
                      A                      A                      A
 Frequencies --    491.0279               526.7100               562.0949
 Red. masses --      3.3480                 8.2628                 1.1342
 Frc consts  --      0.4756                 1.3506                 0.2111
 IR Inten    --      3.4899                16.4931                 0.1197

                     16                     17                     18
                      A                      A                      A
 Frequencies --    656.2304               672.1327               680.8948
 Red. masses --      4.4729                 5.8343                 3.6380
 Frc consts  --      1.1349                 1.5529                 0.9937
 IR Inten    --      8.1972                 1.0543                 9.2925

                     19                     20                     21
                      A                      A                      A
 Frequencies --    715.5058               738.5482               782.6362
 Red. masses --      6.5346                 2.6156                 2.5159
 Frc consts  --      1.9710                 0.8406                 0.9079
 IR Inten    --      1.8292                67.0672                37.8271

                     22                     23                     24
                      A                      A                      A
 Frequencies --    803.0539               808.9483               848.0273
 Red. masses --      4.4142                 2.7027                 1.5727
 Frc consts  --      1.6772                 1.0420                 0.6664
 IR Inten    --      9.7886                32.1259                36.0054

                     25                     26                     27
                      A                      A                      A
 Frequencies --    912.1850               993.6078               997.6072
 Red. masses --      1.3609                 5.8435                 1.3850
 Frc consts  --      0.6672                 3.3990                 0.8121
 IR Inten    --      0.1871                99.3394                 1.9762

                     28                     29                     30
                      A                      A                      A
 Frequencies --   1022.2379              1053.7928              1060.6360
 Red. masses --      1.3312                 2.2738                 1.7335
 Frc consts  --      0.8196                 1.4877                 1.1490
 IR Inten    --      0.1971                 7.4641                15.6209

                     31                     32                     33
                      A                      A                      A
 Frequencies --   1108.0077              1143.2303              1180.7506
 Red. masses --      2.0790                 1.7478                 1.1278
 Frc consts  --      1.5038                 1.3459                 0.9264
 IR Inten    --      7.5708                35.1042                14.5187

                     34                     35                     36
                      A                      A                      A
 Frequencies --   1239.3702              1278.6807              1295.2797
 Red. masses --      2.2246                 2.5943                 1.8654
 Frc consts  --      2.0133                 2.4992                 1.8440
 IR Inten    --     47.7795               728.7390                17.4622

                     37                     38                     39
                      A                      A                      A
 Frequencies --   1341.5912              1369.1163              1411.4442
 Red. masses --      4.8904                 5.8435                 3.1075
 Frc consts  --      5.1860                 6.4536                 3.6474
 IR Inten    --     94.3566               152.4755               148.4891

                     40                     41                     42
                      A                      A                      A
 Frequencies --   1481.9948              1503.0159              1594.5095
 Red. masses --      2.4050                 2.7050                 1.7807
 Frc consts  --      3.1122                 3.6003                 2.6674
 IR Inten    --      4.2088                32.9565                 0.5333

                     43                     44                     45
                      A                      A                      A
 Frequencies --   1596.6808              1620.9858              1635.0316
 Red. masses --      3.9766                 4.8402                 5.4235
 Frc consts  --      5.9731                 7.4933                 8.5425
 IR Inten    --   1328.7738               268.5398               822.5429

                     46                     47                     48
                      A                      A                      A
 Frequencies --   1653.9701              1713.6230              3175.9589
 Red. masses --      7.9915                 8.2142                 1.0910
 Frc consts  --     12.8805                14.2117                 6.4836
 IR Inten    --    112.9093               241.2806                11.7885

                     49                     50                     51
                      A                      A                      A
 Frequencies --   3177.9204              3190.1787              3201.3822
 Red. masses --      1.0874                 1.0910                 1.0929
 Frc consts  --      6.4702                 6.5418                 6.5994
 IR Inten    --      3.8689                 9.3934                 5.1911

                     52                     53                     54
                      A                      A                      A
 Frequencies --   3204.8995              3577.9179              3703.8744
 Red. masses --      1.0954                 1.0455                 1.1055
 Frc consts  --      6.6293                 7.8855                 8.9357
 IR Inten    --     16.5723               261.8593               129.8016

 - Thermochemistry -
 -------------------
 Temperature   298.150 Kelvin.  Pressure   1.00000 Atm.
 Atom     1 has atomic number  7 and mass  14.00307

 Molecular mass:   173.04768 amu.
 Principal axes and moments of inertia in atomic units:
                           1         2         3
     Eigenvalues --  1405.221382307.364573712.58521
           X            0.97796  -0.16605   0.12655
           Y            0.18995   0.95922  -0.20930
           Z           -0.08663   0.22873   0.96963
 This molecule is an asymmetric top.
 Rotational symmetry number  1.
 Warning -- assumption of classical behavior for rotation
           may cause significant error
 Rotational temperatures (Kelvin)      0.06164     0.03754     0.02333
 Rotational constants (GHZ):           1.28431     0.78217     0.48611
 Zero-point vibrational energy     389948.5 (Joules/Mol)
                                   93.19994 (Kcal/Mol)
 Warning -- explicit consideration of  15 degrees of freedom as
           vibrations may cause significant error
 Vibrational temperatures:     86.67   166.72   224.40   275.53   373.55
          (Kelvin)            376.46   475.02   550.80   574.69   580.19
                              638.04   669.07   706.48   757.82   808.73
                              944.17   967.05   979.66  1029.45  1062.61
                             1126.04  1155.42  1163.90  1220.12  1312.43
                             1429.58  1435.33  1470.77  1516.17  1526.02
                             1594.18  1644.85  1698.84  1783.18  1839.74
                             1863.62  1930.25  1969.85  2030.75  2132.26
                             2162.50  2294.14  2297.27  2332.24  2352.45
                             2379.69  2465.52  4569.50  4572.32  4589.96
                             4606.07  4611.14  5147.83  5329.05

 Zero-point correction=                           0.148524 (Hartree/Particle)
 Thermal correction to Energy=                    0.158746
 Thermal correction to Enthalpy=                  0.159691
 Thermal correction to Gibbs Free Energy=         0.112727
 Sum of electronic and zero-point Energies=           -590.514116
 Sum of electronic and thermal Energies=              -590.503893
 Sum of electronic and thermal Enthalpies=            -590.502949
 Sum of electronic and thermal Free Energies=         -590.549913

                     E (Thermal)             CV                S
                      KCal/Mol        Cal/Mol-Kelvin    Cal/Mol-Kelvin
 Total                   99.615             40.447             98.843
 Electronic               0.000              0.000              0.000
 Translational            0.889              2.981             41.353
 Rotational               0.889              2.981             30.866
 Vibrational             97.837             34.486             26.625
 Vibration     1          0.597              1.973              4.449
 Vibration     2          0.608              1.936              3.168
 Vibration     3          0.620              1.896              2.598
 Vibration     4          0.634              1.852              2.213
 Vibration     5          0.668              1.746              1.664
 Vibration     6          0.669              1.743              1.651
 Vibration     7          0.713              1.615              1.259
 Vibration     8          0.752              1.507              1.028
 Vibration     9          0.765              1.471              0.965
 Vibration    10          0.769              1.463              0.951
 Vibration    11          0.803              1.375              0.816
 Vibration    12          0.822              1.328              0.752
 Vibration    13          0.847              1.270              0.681
 Vibration    14          0.882              1.191              0.595
 Vibration    15          0.918              1.113              0.520

                           ! Non-Optimized Parameters !
 Normal termination of Gaussian 16 at Sun Feb 11 00:39:11 2024.
