 Q-Chem 5.4, Q-Chem, Inc., Pleasanton, CA (2021)
 Q-Chem 5.4.0 for Intel X86 EM64T Linux

User input:
--------------------------------------------------------------
$molecule
-2 1
C                  0.6018940000      1.3247880000     -1.0286650000
C                 -0.7135230000      0.8486260000     -0.6720980000
C                 -0.9782720000     -0.4430670000     -0.1714050000
C                  0.1079920000     -1.3567640000      0.0908780000
C                  1.4354400000     -0.9375810000     -0.2909450000
C                  1.6524350000      0.3638340000     -0.7895260000
O                  0.8186580000      2.4937110000     -1.4874620000
O                 -0.1061060000     -2.5240190000      0.5971880000
S                  3.2919530000      0.9779360000     -1.1753310000
C                  3.5248960000      2.5191700000     -0.2221380000
C                  3.2141040000      3.7579490000     -0.7804380000
C                  4.0760530000      2.4269950000      1.0541130000
C                  4.3211610000      3.5890990000      1.7853190000
C                  3.4723930000      4.9156910000     -0.0467240000
C                  4.0214000000      4.8366380000      1.2336950000
O                  3.4578600000      1.3383620000     -2.5991390000
O                  4.3201430000      0.0701680000     -0.6051470000
H                  2.7667230000      3.7861710000     -1.7630140000
H                  4.3184810000      1.4496630000      1.4529220000
H                  3.2273760000      5.8842710000     -0.4718750000
H                  4.7464610000      3.5198570000      2.7821570000
H                  4.2060120000      5.7426120000      1.8039530000
S                 -2.0092650000      2.0642800000     -0.9116530000
C                 -1.5256830000      3.5552630000      0.0271230000
C                 -0.8100770000      4.5831870000     -0.5845030000
C                 -1.9423680000      3.6628750000      1.3521860000
C                 -1.6405190000      4.8143770000      2.0789650000
C                 -0.5218470000      5.7358190000      0.1460690000
C                 -0.9310780000      5.8546410000      1.4748150000
O                 -2.1565110000      2.4873600000     -2.3202200000
O                 -3.2511750000      1.6226970000     -0.2267870000
H                 -0.4849090000      4.4519410000     -1.6059930000
H                 -2.5083980000      2.8515320000      1.7930220000
H                 -1.9601400000      4.8989190000      3.1133960000
H                  0.0405070000      6.5386370000     -0.3210300000
H                 -0.6898010000      6.7498150000      2.0409520000
C                 -2.3521060000     -1.0136150000      0.0835160000
C                  2.4926460000     -2.0062620000     -0.1560870000
H                 -2.7760040000     -0.6596730000      1.0312930000
H                 -2.2339290000     -2.0970550000      0.1548640000
H                 -3.0686600000     -0.7430500000     -0.6928140000
H                  1.9660970000     -2.9574500000     -0.0517900000
H                  3.1096710000     -1.8648060000      0.7397540000
H                  3.1803550000     -2.0242930000     -1.0022820000
$end
$rem
MAX_SCF_CYCLES=200
BASIS  =  6-311++G(d,p)
GUI  =  2
JOB_TYPE  =  SP
METHOD  =  B3LYP
SOLVENT_METHOD = PCM
$end
$pcm
theory = CPCM
$end
$solvent
dielectric 37.219
opticaldielectric 1.43
$end

--------------------------------------------------------------

             Standard Nuclear Orientation (Angstroms)
    I     Atom           X                Y                Z
 ----------------------------------------------------------------
    1      C       0.6018940000     1.3247880000    -1.0286650000
    2      C      -0.7135230000     0.8486260000    -0.6720980000
    3      C      -0.9782720000    -0.4430670000    -0.1714050000
    4      C       0.1079920000    -1.3567640000     0.0908780000
    5      C       1.4354400000    -0.9375810000    -0.2909450000
    6      C       1.6524350000     0.3638340000    -0.7895260000
    7      O       0.8186580000     2.4937110000    -1.4874620000
    8      O      -0.1061060000    -2.5240190000     0.5971880000
    9      S       3.2919530000     0.9779360000    -1.1753310000
   10      C       3.5248960000     2.5191700000    -0.2221380000
   11      C       3.2141040000     3.7579490000    -0.7804380000
   12      C       4.0760530000     2.4269950000     1.0541130000
   13      C       4.3211610000     3.5890990000     1.7853190000
   14      C       3.4723930000     4.9156910000    -0.0467240000
   15      C       4.0214000000     4.8366380000     1.2336950000
   16      O       3.4578600000     1.3383620000    -2.5991390000
   17      O       4.3201430000     0.0701680000    -0.6051470000
   18      H       2.7667230000     3.7861710000    -1.7630140000
   19      H       4.3184810000     1.4496630000     1.4529220000
   20      H       3.2273760000     5.8842710000    -0.4718750000
   21      H       4.7464610000     3.5198570000     2.7821570000
   22      H       4.2060120000     5.7426120000     1.8039530000
   23      S      -2.0092650000     2.0642800000    -0.9116530000
   24      C      -1.5256830000     3.5552630000     0.0271230000
   25      C      -0.8100770000     4.5831870000    -0.5845030000
   26      C      -1.9423680000     3.6628750000     1.3521860000
   27      C      -1.6405190000     4.8143770000     2.0789650000
   28      C      -0.5218470000     5.7358190000     0.1460690000
   29      C      -0.9310780000     5.8546410000     1.4748150000
   30      O      -2.1565110000     2.4873600000    -2.3202200000
   31      O      -3.2511750000     1.6226970000    -0.2267870000
   32      H      -0.4849090000     4.4519410000    -1.6059930000
   33      H      -2.5083980000     2.8515320000     1.7930220000
   34      H      -1.9601400000     4.8989190000     3.1133960000
   35      H       0.0405070000     6.5386370000    -0.3210300000
   36      H      -0.6898010000     6.7498150000     2.0409520000
   37      C      -2.3521060000    -1.0136150000     0.0835160000
   38      C       2.4926460000    -2.0062620000    -0.1560870000
   39      H      -2.7760040000    -0.6596730000     1.0312930000
   40      H      -2.2339290000    -2.0970550000     0.1548640000
   41      H      -3.0686600000    -0.7430500000    -0.6928140000
   42      H       1.9660970000    -2.9574500000    -0.0517900000
   43      H       3.1096710000    -1.8648060000     0.7397540000
   44      H       3.1803550000    -2.0242930000    -1.0022820000
 ----------------------------------------------------------------

    9   -2020.0111863784      5.74e-06  Convergence criterion met
 Total energy in the final basis set =    -2020.0111863784

                    Orbital Energies (a.u.)
 --------------------------------------------------------------

 Alpha MOs
 -- Occupied --
-89.0382 -89.0382 -19.1062 -19.1061 -19.1009 -19.1009 -19.0419 -19.0256
-10.2150 -10.1999 -10.1998 -10.1866 -10.1833 -10.1832 -10.1798 -10.1798
-10.1797 -10.1797 -10.1782 -10.1781 -10.1768 -10.1768 -10.1767 -10.1767
-10.1667 -10.1667 -10.1400 -10.1399  -8.1016  -8.1016  -6.0647  -6.0646
 -6.0634  -6.0634  -6.0623  -6.0623  -1.0941  -1.0938  -0.9892  -0.9887
 -0.9728  -0.9477  -0.8654  -0.8653  -0.8182  -0.7825  -0.7670  -0.7620
 -0.7530  -0.7524  -0.7183  -0.7109  -0.6750  -0.6363  -0.6355  -0.6123
 -0.6119  -0.5974  -0.5887  -0.5524  -0.5499  -0.5257  -0.5227  -0.4889
 -0.4857  -0.4730  -0.4721  -0.4652  -0.4651  -0.4502  -0.4473  -0.4439
 -0.4411  -0.4365  -0.4306  -0.4255  -0.4161  -0.4101  -0.3919  -0.3912
 -0.3852  -0.3791  -0.3777  -0.3703  -0.3695  -0.3678  -0.3629  -0.3499
 -0.3489  -0.3437  -0.3412  -0.3298  -0.3276  -0.3239  -0.3150  -0.3135
 -0.2984  -0.2951  -0.2881  -0.2823  -0.2661  -0.2654  -0.2620  -0.2594
 -0.2461  -0.2350  -0.2200  -0.2073  -0.1415

          Ground-State Mulliken Net Atomic Charges

     Atom                 Charge (a.u.)
  ----------------------------------------
      1 C                    -0.371800
      2 C                     0.112008
      3 C                     0.642156
      4 C                    -1.403861
      5 C                     0.643548
      6 C                     0.116913
      7 O                    -0.434381
      8 O                    -0.656879
      9 S                     0.212049
     10 C                    -0.234492
     11 C                    -0.054290
     12 C                     0.335077
     13 C                    -0.536525
     14 C                    -0.287278
     15 C                    -0.473911
     16 O                    -0.237727
     17 O                    -0.247911
     18 H                     0.267343
     19 H                     0.258233
     20 H                     0.230455
     21 H                     0.222559
     22 H                     0.203458
     23 S                     0.211244
     24 C                    -0.238129
     25 C                    -0.051605
     26 C                     0.332221
     27 C                    -0.535743
     28 C                    -0.287051
     29 C                    -0.469841
     30 O                    -0.237071
     31 O                    -0.248551
     32 H                     0.266981
     33 H                     0.258555
     34 H                     0.222420
     35 H                     0.230836
     36 H                     0.203455
     37 C                    -0.490556
     38 C                    -0.492272
     39 H                     0.180709
     40 H                     0.159073
     41 H                     0.170136
     42 H                     0.159514
     43 H                     0.180620
     44 H                     0.170311
  ----------------------------------------
  Sum of atomic charges =    -2.000000

                    Cartesian Multipole Moments
 -----------------------------------------------------------------
    Charge (ESU x 10^10)
                -9.6064
    Dipole Moment (Debye)
         X      -2.9689      Y       0.4929      Z      11.8575
       Tot      12.2335
    Quadrupole Moments (Debye-Ang)
        XX    -255.7900     XY      12.6697     YY    -205.8299
        XZ      14.4322     YZ      36.0649     ZZ    -208.0273

 Total job time:  248.98s(wall), 1443.30s(cpu)
        *  Thank you very much for using Q-Chem.  Have a nice day.  *
