 Gaussian 16, Revision A.03,
 Gaussian 16:  ES64L-G16RevA.03 25-Dec-2016

 ----------------------------------------------------------------------
 #P UB3LYP/6-311++G(d,p) nosym opt freq SCRF=(PCM,Solvent=n,n-DiMethylF
 ormamide)
 ----------------------------------------------------------------------

 --------
 Oxidized
 --------
 Symbolic Z-matrix:
 Charge =  0 Multiplicity = 1

 SCF Done:  E(UB3LYP) =  -574.599540661     A.U. after   15 cycles
 SCF Done:  E(UB3LYP) =  -574.599624988     A.U. after   11 cycles
 SCF Done:  E(UB3LYP) =  -574.599636442     A.U. after   10 cycles
 Optimization completed.
    -- Stationary point found.
 Normal termination of Gaussian 16 at Sat Feb 10 23:41:27 2024.

 ----------------------------------------------------------------------
 #P Geom=AllCheck Guess=TCheck SCRF=Check GenChk UB3LYP/6-311++G(d,p) F
 req
 ----------------------------------------------------------------------

 Structure from the checkpoint file:  "236.chk"
 --------
 Oxidized
 --------
 Charge =  0 Multiplicity = 1

                          Input orientation:
 ---------------------------------------------------------------------
 Center     Atomic      Atomic             Coordinates (Angstroms)
 Number     Number       Type             X           Y           Z
 ---------------------------------------------------------------------
      1          6           0       -3.259496    0.061025    1.006031
      2          6           0       -1.938179   -0.011579    0.306232
      3          6           0       -1.814353   -0.226935   -1.017115
      4          6           0       -0.518233   -0.300502   -1.715632
      5          8           0       -0.476165   -0.499003   -2.925574
      6          6           0        0.717283   -0.126652   -0.903258
      7          6           0        1.972528   -0.187364   -1.511643
      8          6           0        3.125982   -0.023674   -0.749331
      9          6           0        3.030376    0.201737    0.625761
     10          6           0        1.782103    0.263357    1.238980
     11          6           0        0.619656    0.099961    0.481139
     12          6           0       -0.711614    0.167475    1.147332
     13          8           0       -0.816643    0.363683    2.350330
     14          1           0       -4.081147   -0.081770    0.304616
     15          1           0       -3.321432   -0.701092    1.787873
     16          1           0       -3.378244    1.028264    1.502357
     17          1           0       -2.687983   -0.359743   -1.647028
     18          1           0        2.031809   -0.362639   -2.578522
     19          1           0        4.098815   -0.071261   -1.224141
     20          1           0        3.929111    0.329101    1.217498
     21          1           0        1.695828    0.437612    2.304094
 ---------------------------------------------------------------------

 SCF Done:  E(UB3LYP) =  -574.599636442     A.U. after    2 cycles

 Alpha  occ. eigenvalues --  -19.13915 -19.13554 -10.28686 -10.28429 -10.22274
 Alpha  occ. eigenvalues --  -10.21061 -10.20969 -10.20509 -10.20050 -10.20036
 Alpha  occ. eigenvalues --  -10.19991 -10.19952 -10.17921  -1.07057  -1.06492
 Alpha  occ. eigenvalues --   -0.89280  -0.84953  -0.78832  -0.78057  -0.73186
 Alpha  occ. eigenvalues --   -0.68730  -0.65043  -0.62584  -0.59035  -0.54783
 Alpha  occ. eigenvalues --   -0.53155  -0.50288  -0.48120  -0.46452  -0.46192
 Alpha  occ. eigenvalues --   -0.45773  -0.45362  -0.43159  -0.42832  -0.41732
 Alpha  occ. eigenvalues --   -0.41206  -0.39984  -0.38230  -0.37997  -0.37121
 Alpha  occ. eigenvalues --   -0.30075  -0.29085  -0.28115  -0.28051  -0.27910
 Alpha virt. eigenvalues --   -0.12826  -0.05910  -0.03404  -0.00701   0.00313
 Alpha virt. eigenvalues --    0.01155   0.02127   0.02366   0.02447   0.03413
 Alpha virt. eigenvalues --    0.04235   0.04899   0.05228   0.05375   0.05564

  Beta  occ. eigenvalues --  -19.13915 -19.13554 -10.28686 -10.28429 -10.22274
  Beta  occ. eigenvalues --  -10.21061 -10.20969 -10.20509 -10.20050 -10.20036
  Beta  occ. eigenvalues --  -10.19991 -10.19952 -10.17921  -1.07057  -1.06492
  Beta  occ. eigenvalues --   -0.89280  -0.84953  -0.78832  -0.78057  -0.73186
  Beta  occ. eigenvalues --   -0.68730  -0.65043  -0.62584  -0.59035  -0.54783
  Beta  occ. eigenvalues --   -0.53155  -0.50288  -0.48120  -0.46452  -0.46192
  Beta  occ. eigenvalues --   -0.45773  -0.45362  -0.43159  -0.42832  -0.41732
  Beta  occ. eigenvalues --   -0.41206  -0.39984  -0.38230  -0.37997  -0.37121
  Beta  occ. eigenvalues --   -0.30075  -0.29085  -0.28115  -0.28051  -0.27910
  Beta virt. eigenvalues --   -0.12826  -0.05910  -0.03404  -0.00701   0.00313
  Beta virt. eigenvalues --    0.01155   0.02127   0.02366   0.02447   0.03413
  Beta virt. eigenvalues --    0.04235   0.04899   0.05228   0.05375   0.05564

 Mulliken charges and spin densities:
               1          2
     1  C   -0.305941  -0.000000
     2  C    0.875028   0.000000
     3  C   -0.411728  -0.000000
     4  C   -0.850690   0.000000
     5  O   -0.299384  -0.000000
     6  C    0.486126  -0.000000
     7  C    0.070384  -0.000000
     8  C   -0.334893   0.000000
     9  C   -0.439127  -0.000000
    10  C    0.105448   0.000000
    11  C    0.311397   0.000000
    12  C   -0.483829   0.000000
    13  O   -0.268322  -0.000000
    14  H    0.174137  -0.000000
    15  H    0.191079  -0.000000
    16  H    0.190971  -0.000000
    17  H    0.202339   0.000000
    18  H    0.183443   0.000000
    19  H    0.211193   0.000000
    20  H    0.212958  -0.000000
    21  H    0.179411   0.000000
 Sum of Mulliken charges =  -0.00000  -0.00000

 Dipole moment (field-independent basis, Debye):
    X=              1.1991    Y=              0.1916    Z=              0.9474  Tot=              1.5401
 Quadrupole moment (field-independent basis, Debye-Ang):
   XX=            -54.5752   YY=            -76.8141   ZZ=            -92.5466
   XY=              0.6934   XZ=             -0.0947   YZ=             -2.6718

  Exact polarizability: 224.992   2.554  96.546 -10.359  23.873 238.651
 Approx polarizability: 242.792   2.239 114.571 -12.522  34.115 317.081

                      1                      2                      3
                      A                      A                      A
 Frequencies --     52.1501               112.9803               133.9687
 Red. masses --      5.9986                 4.5910                 1.6460
 Frc consts  --      0.0096                 0.0345                 0.0174
 IR Inten    --     15.3875                 0.0023                 0.1785

                      4                      5                      6
                      A                      A                      A
 Frequencies --    162.7319               202.9174               253.7754
 Red. masses --      1.9807                 3.5362                 4.0224
 Frc consts  --      0.0309                 0.0858                 0.1526
 IR Inten    --      2.4896                 0.5477                 1.4956

                      7                      8                      9
                      A                      A                      A
 Frequencies --    301.3968               354.9824               379.1076
 Red. masses --      4.0004                 3.7268                10.1292
 Frc consts  --      0.2141                 0.2767                 0.8577
 IR Inten    --      0.2145                 0.4759                23.2812

                     10                     11                     12
                      A                      A                      A
 Frequencies --    406.1188               423.3517               461.5522
 Red. masses --      6.7988                 3.2700                 9.1488
 Frc consts  --      0.6607                 0.3453                 1.1483
 IR Inten    --     16.4773                 0.5128                 9.6374

                     13                     14                     15
                      A                      A                      A
 Frequencies --    479.2438               518.9334               651.4268
 Red. masses --      3.8675                 7.8472                 4.4774
 Frc consts  --      0.5234                 1.2451                 1.1195
 IR Inten    --      0.0026                 7.4979                 5.1195

                     16                     17                     18
                      A                      A                      A
 Frequencies --    658.7210               679.7263               702.6065
 Red. masses --      5.8313                 3.0379                 3.5278
 Frc consts  --      1.4908                 0.8270                 1.0261
 IR Inten    --      3.3484                28.8826                30.0554

                     19                     20                     21
                      A                      A                      A
 Frequencies --    718.6972               790.1635               798.2153
 Red. masses --      6.2154                 1.4056                 4.6585
 Frc consts  --      1.8915                 0.5171                 1.7488
 IR Inten    --      5.0985                72.0445                 2.2647

                     22                     23                     24
                      A                      A                      A
 Frequencies --    801.2872               913.2920               914.2352
 Red. masses --      4.5880                 1.4263                 1.4753
 Frc consts  --      1.7356                 0.7009                 0.7265
 IR Inten    --      3.1388                 5.5843                21.1376

                     25                     26                     27
                      A                      A                      A
 Frequencies --    948.0473              1000.3017              1024.3105
 Red. masses --      4.9090                 1.3897                 1.3344
 Frc consts  --      2.5996                 0.8193                 0.8249
 IR Inten    --     77.5044                 1.0695                 0.0134

                     28                     29                     30
                      A                      A                      A
 Frequencies --   1028.0168              1049.5010              1055.6072
 Red. masses --      1.7802                 2.3594                 1.5468
 Frc consts  --      1.1084                 1.5312                 1.0155
 IR Inten    --     35.9118                 4.7732                 5.8426

                     31                     32                     33
                      A                      A                      A
 Frequencies --   1103.7073              1125.2611              1177.3978
 Red. masses --      2.4967                 2.3263                 1.4938
 Frc consts  --      1.7920                 1.7355                 1.2201
 IR Inten    --      2.4588                 6.4557                31.6920

                     34                     35                     36
                      A                      A                      A
 Frequencies --   1183.4015              1250.8365              1275.9796
 Red. masses --      1.4441                 1.9343                 2.5864
 Frc consts  --      1.1915                 1.7831                 2.4811
 IR Inten    --     10.8279                38.8907               334.2912

                     37                     38                     39
                      A                      A                      A
 Frequencies --   1312.6947              1357.4628              1367.4348
 Red. masses --      2.7448                 5.4771                 2.5893
 Frc consts  --      2.7867                 5.9464                 2.8526
 IR Inten    --    254.7588                 7.4120                68.0169

                     40                     41                     42
                      A                      A                      A
 Frequencies --   1407.3530              1458.4018              1468.9712
 Red. masses --      1.3014                 1.0434                 1.0769
 Frc consts  --      1.5187                 1.3076                 1.3692
 IR Inten    --     19.2714                14.0956                24.8431

                     43                     44                     45
                      A                      A                      A
 Frequencies --   1481.8198              1503.8866              1610.3198
 Red. masses --      2.3611                 2.6404                 6.5630
 Frc consts  --      3.0546                 3.5184                10.0272
 IR Inten    --      0.5735                 6.9236                 3.8962

                     46                     47                     48
                      A                      A                      A
 Frequencies --   1620.4705              1668.2290              1689.4734
 Red. masses --      5.9355                 8.9960                10.2581
 Frc consts  --      9.1831                14.7506                17.2513
 IR Inten    --    278.8085               129.0483               859.6896

                     49                     50                     51
                      A                      A                      A
 Frequencies --   1702.1067              3036.0920              3085.9980
 Red. masses --     10.4469                 1.0368                 1.0991
 Frc consts  --     17.8324                 5.6306                 6.1669
 IR Inten    --    138.6206                10.9562                10.6998

                     52                     53                     54
                      A                      A                      A
 Frequencies --   3127.8896              3172.7970              3179.2023
 Red. masses --      1.1024                 1.0919                 1.0873
 Frc consts  --      6.3546                 6.4764                 6.4752
 IR Inten    --     18.2126                10.8892                 2.7170

                     55                     56                     57
                      A                      A                      A
 Frequencies --   3190.8097              3201.1385              3204.7183
 Red. masses --      1.0908                 1.0928                 1.0962
 Frc consts  --      6.5432                 6.5977                 6.6331
 IR Inten    --      7.8180                 4.1302                17.1796

 - Thermochemistry -
 -------------------
 Temperature   298.150 Kelvin.  Pressure   1.00000 Atm.
 Atom     1 has atomic number  6 and mass  12.00000

 Molecular mass:   172.05243 amu.
 Principal axes and moments of inertia in atomic units:
                           1         2         3
     Eigenvalues --  1400.402082351.196953740.53029
           X            0.97605   0.21520  -0.03180
           Y           -0.00456   0.16637   0.98605
           Z           -0.21749   0.96229  -0.16336
 This molecule is an asymmetric top.
 Rotational symmetry number  1.
 Warning -- assumption of classical behavior for rotation
           may cause significant error
 Rotational temperatures (Kelvin)      0.06185     0.03684     0.02316
 Rotational constants (GHZ):           1.28873     0.76758     0.48248
 Zero-point vibrational energy     418341.4 (Joules/Mol)
                                   99.98599 (Kcal/Mol)
 Warning -- explicit consideration of  14 degrees of freedom as
           vibrations may cause significant error
 Vibrational temperatures:     75.03   162.55   192.75   234.13   291.95
          (Kelvin)            365.13   433.64   510.74   545.45   584.31
                              609.11   664.07   689.52   746.63   937.26
                              947.75   977.97  1010.89  1034.04  1136.87
                             1148.45  1152.87  1314.02  1315.38  1364.03
                             1439.21  1473.75  1479.09  1510.00  1518.78
                             1587.99  1619.00  1694.01  1702.65  1799.67
                             1835.85  1888.67  1953.09  1967.43  2024.87
                             2098.31  2113.52  2132.01  2163.76  2316.89
                             2331.50  2400.21  2430.78  2448.95  4368.26
                             4440.06  4500.34  4564.95  4574.16  4590.86
                             4605.72  4610.87

 Zero-point correction=                           0.159338 (Hartree/Particle)
 Thermal correction to Energy=                    0.169771
 Thermal correction to Enthalpy=                  0.170716
 Thermal correction to Gibbs Free Energy=         0.123011
 Sum of electronic and zero-point Energies=           -574.440299
 Sum of electronic and thermal Energies=              -574.429865
 Sum of electronic and thermal Enthalpies=            -574.428921
 Sum of electronic and thermal Free Energies=         -574.476626

                     E (Thermal)             CV                S
                      KCal/Mol        Cal/Mol-Kelvin    Cal/Mol-Kelvin
 Total                  106.533             40.489            100.403
 Electronic               0.000              0.000              0.000
 Translational            0.889              2.981             41.335
 Rotational               0.889              2.981             30.888
 Vibrational            104.756             34.527             28.180
 Vibration     1          0.596              1.977              4.734
 Vibration     2          0.607              1.939              3.217
 Vibration     3          0.613              1.919              2.888
 Vibration     4          0.623              1.888              2.518
 Vibration     5          0.639              1.836              2.106
 Vibration     6          0.665              1.756              1.704
 Vibration     7          0.693              1.671              1.409
 Vibration     8          0.731              1.565              1.144
 Vibration     9          0.749              1.515              1.043
 Vibration    10          0.771              1.457              0.940
 Vibration    11          0.786              1.419              0.881
 Vibration    12          0.819              1.335              0.762
 Vibration    13          0.836              1.296              0.712
 Vibration    14          0.874              1.208              0.612

 Optimization completed.
    -- Stationary point found.
 Normal termination of Gaussian 16 at Sun Feb 11 00:00:16 2024.
