 Q-Chem 5.4, Q-Chem, Inc., Pleasanton, CA (2021)
 Q-Chem 5.4.0 for Intel X86 EM64T Linux

User input:
--------------------------------------------------------------
$molecule
-1 2
C                  4.9885520000     -2.4957580000      0.2066480000
C                  5.6799570000     -1.6602160000     -0.6501530000
C                  4.9704230000     -0.8059750000     -1.5188900000
C                  3.5793920000     -2.5107440000      0.2291800000
C                  2.8631550000     -1.6501750000     -0.6459810000
C                  3.5889710000     -0.8051230000     -1.5126940000
C                  2.8894930000     -3.4192300000      1.1605730000
C                  1.4215040000     -3.3803120000      1.1284740000
C                  0.7099640000     -2.5102660000      0.2435290000
C                  1.3940960000     -1.6133890000     -0.6759670000
C                  0.7003220000     -4.2193070000      1.9892710000
C                 -0.7059190000     -2.5311540000      0.2721860000
C                 -1.3975690000     -3.3600280000      1.1224760000
O                  3.5215300000     -4.1735560000      1.9275450000
O                  0.7720270000     -0.8476720000     -1.4551970000
H                  5.5052410000     -3.1636910000      0.8861330000
H                 -2.4798970000     -3.3613380000      1.1294510000
H                  3.0189380000     -0.1587900000     -2.1698370000
H                  1.2538730000     -4.8718630000      2.6529830000
H                 -1.2253190000     -1.8644830000     -0.4061270000
C                 -0.6914200000     -4.2272770000      2.0047450000
H                  5.5115170000     -0.1485310000     -2.1930540000
C                 -1.3795750000     -5.1342740000      2.9351460000
O                 -0.8582570000     -5.9041980000      3.7192240000
O                 -2.7471630000     -5.0392810000      2.8453070000
C                 -3.4795680000     -5.8942390000      3.7230530000
H                 -4.5313460000     -5.6921380000      3.5210260000
H                 -3.2455890000     -5.6765600000      4.7678800000
H                 -3.2510750000     -6.9447370000      3.5280900000
H                  6.7657020000     -1.6606340000     -0.6552620000
$end

$rem
BASIS  =  6-311++G(d,p)
GUI  =  2
JOB_TYPE  =  SP
METHOD  =  B3LYP
SCF_CONVERGENCE  = 8
SOLVENT_METHOD = sm12
$end

$smx
solvent dimethylformamide
charges CM5
$end

--------------------------------------------------------------

             Standard Nuclear Orientation (Angstroms)
    I     Atom           X                Y                Z
 ----------------------------------------------------------------
    1      C       4.9885520000    -2.4957580000     0.2066480000
    2      C       5.6799570000    -1.6602160000    -0.6501530000
    3      C       4.9704230000    -0.8059750000    -1.5188900000
    4      C       3.5793920000    -2.5107440000     0.2291800000
    5      C       2.8631550000    -1.6501750000    -0.6459810000
    6      C       3.5889710000    -0.8051230000    -1.5126940000
    7      C       2.8894930000    -3.4192300000     1.1605730000
    8      C       1.4215040000    -3.3803120000     1.1284740000
    9      C       0.7099640000    -2.5102660000     0.2435290000
   10      C       1.3940960000    -1.6133890000    -0.6759670000
   11      C       0.7003220000    -4.2193070000     1.9892710000
   12      C      -0.7059190000    -2.5311540000     0.2721860000
   13      C      -1.3975690000    -3.3600280000     1.1224760000
   14      O       3.5215300000    -4.1735560000     1.9275450000
   15      O       0.7720270000    -0.8476720000    -1.4551970000
   16      H       5.5052410000    -3.1636910000     0.8861330000
   17      H      -2.4798970000    -3.3613380000     1.1294510000
   18      H       3.0189380000    -0.1587900000    -2.1698370000
   19      H       1.2538730000    -4.8718630000     2.6529830000
   20      H      -1.2253190000    -1.8644830000    -0.4061270000
   21      C      -0.6914200000    -4.2272770000     2.0047450000
   22      H       5.5115170000    -0.1485310000    -2.1930540000
   23      C      -1.3795750000    -5.1342740000     2.9351460000
   24      O      -0.8582570000    -5.9041980000     3.7192240000
   25      O      -2.7471630000    -5.0392810000     2.8453070000
   26      C      -3.4795680000    -5.8942390000     3.7230530000
   27      H      -4.5313460000    -5.6921380000     3.5210260000
   28      H      -3.2455890000    -5.6765600000     4.7678800000
   29      H      -3.2510750000    -6.9447370000     3.5280900000
   30      H       6.7657020000    -1.6606340000    -0.6552620000
 ----------------------------------------------------------------

   18    -916.9684071129      9.22e-09  Convergence criterion met
 Total energy in the final basis set =     -917.0551547318

                    Orbital Energies (a.u.)
 --------------------------------------------------------------

 Alpha MOs
 -- Occupied --
-19.1662 -19.1131 -19.0863 -19.0809 -10.3042 -10.2373 -10.2293 -10.2181
-10.1943 -10.1883 -10.1865 -10.1859 -10.1852 -10.1849 -10.1849 -10.1846
-10.1844 -10.1822 -10.1811 -10.1810  -1.1056  -1.0197  -1.0152  -1.0063
 -0.8739  -0.8649  -0.8027  -0.7699  -0.7613  -0.7589  -0.7233  -0.6795
 -0.6536  -0.6343  -0.6024  -0.5809  -0.5684  -0.5461  -0.5394  -0.5022
 -0.4864  -0.4826  -0.4779  -0.4680  -0.4611  -0.4410  -0.4363  -0.4346
 -0.4325  -0.4186  -0.4153  -0.4117  -0.4068  -0.3936  -0.3875  -0.3737
 -0.3669  -0.3608  -0.3537  -0.3461  -0.3430  -0.3094  -0.2877  -0.2770
 -0.2710  -0.2658  -0.2619  -0.2526  -0.2433  -0.1510

 Beta MOs
 -- Occupied --
-19.1662 -19.1125 -19.0812 -19.0745 -10.3041 -10.2363 -10.2279 -10.2181
-10.1935 -10.1888 -10.1858 -10.1857 -10.1847 -10.1844 -10.1839 -10.1837
-10.1833 -10.1823 -10.1810 -10.1810  -1.1052  -1.0190  -1.0064  -0.9953
 -0.8713  -0.8637  -0.7988  -0.7679  -0.7596  -0.7573  -0.7222  -0.6727
 -0.6522  -0.6318  -0.6019  -0.5798  -0.5663  -0.5444  -0.5383  -0.5005
 -0.4856  -0.4818  -0.4753  -0.4669  -0.4603  -0.4403  -0.4359  -0.4342
 -0.4215  -0.4142  -0.4131  -0.4090  -0.4037  -0.3916  -0.3703  -0.3664
 -0.3653  -0.3597  -0.3532  -0.3414  -0.3343  -0.3080  -0.2871  -0.2674
 -0.2580  -0.2560  -0.2538  -0.2475  -0.2378

          Ground-State Mulliken Net Atomic Charges

     Atom                 Charge (a.u.)    Spin (a.u.)
  --------------------------------------------------------
      1 C                     0.035985       0.009917
      2 C                     1.052287       0.041202
      3 C                     1.124993       0.015453
      4 C                    -0.272679       0.038498
      5 C                    -0.768719       0.013376
      6 C                     0.085468       0.037248
      7 C                    -1.683543       0.047837
      8 C                    -0.557937       0.078461
      9 C                    -1.676116       0.091649
     10 C                    -2.395145       0.064863
     11 C                    -1.092120      -0.023656
     12 C                     0.046564       0.030331
     13 C                     0.704994       0.063992
     14 O                    -0.294255       0.190130
     15 O                    -0.295336       0.239639
     16 H                     0.159574      -0.000789
     17 H                     0.273768      -0.004625
     18 H                     0.165087      -0.002740
     19 H                     0.132183       0.001250
     20 H                     0.210131      -0.001541
     21 C                     0.658658       0.060982
     22 H                     0.367174      -0.001451
     23 C                     2.145672      -0.009255
     24 O                    -0.326499       0.020851
     25 O                    -0.056142       0.001514
     26 C                     0.213361      -0.000237
     27 H                     0.270078      -0.000038
     28 H                     0.202820       0.000127
     29 H                     0.202825       0.000126
     30 H                     0.366867      -0.003115
  --------------------------------------------------------
  Sum of atomic charges =    -1.000000

                    Cartesian Multipole Moments
 -----------------------------------------------------------------
    Charge (ESU x 10^10)
                -4.8032
    Dipole Moment (Debye)
         X      -9.4156      Y      14.0000      Z      -3.1219
       Tot      17.1580
    Quadrupole Moments (Debye-Ang)
        XX    -135.4205     XY      37.0545     YY    -177.8625
        XZ     -15.9609     YZ      25.3460     ZZ    -139.6783

 Total job time:  918.99s(wall), 6931.46s(cpu)
        *  Thank you very much for using Q-Chem.  Have a nice day.  *
