 Gaussian 16, Revision A.03,
 Gaussian 16:  ES64L-G16RevA.03 25-Dec-2016

 --------------------------------------
 #P UB3LYP/6-311++G(d,p) nosym opt freq
 --------------------------------------

 -------
 Radical
 -------
 Symbolic Z-matrix:
 Charge = -1 Multiplicity = 2

 SCF Done:  E(UB3LYP) =  -1432.01492155     A.U. after   25 cycles
 SCF Done:  E(UB3LYP) =  -1432.02631545     A.U. after   23 cycles
 SCF Done:  E(UB3LYP) =  -1431.99389506     A.U. after   23 cycles
 SCF Done:  E(UB3LYP) =  -1432.01162207     A.U. after   23 cycles
 SCF Done:  E(UB3LYP) =  -1432.02811336     A.U. after   17 cycles
 SCF Done:  E(UB3LYP) =  -1432.02989348     A.U. after   23 cycles
 SCF Done:  E(UB3LYP) =  -1432.03105318     A.U. after   19 cycles
 SCF Done:  E(UB3LYP) =  -1432.03116354     A.U. after   20 cycles
 SCF Done:  E(UB3LYP) =  -1432.03125252     A.U. after   20 cycles
 SCF Done:  E(UB3LYP) =  -1432.03293974     A.U. after   23 cycles
 SCF Done:  E(UB3LYP) =  -1432.05570691     A.U. after   23 cycles
 SCF Done:  E(UB3LYP) =  -1432.05649980     A.U. after   23 cycles
 SCF Done:  E(UB3LYP) =  -1432.05659451     A.U. after   20 cycles
 SCF Done:  E(UB3LYP) =  -1432.05660902     A.U. after   16 cycles
 SCF Done:  E(UB3LYP) =  -1432.05661273     A.U. after   15 cycles
 SCF Done:  E(UB3LYP) =  -1432.05661491     A.U. after   16 cycles
 SCF Done:  E(UB3LYP) =  -1432.05661628     A.U. after   15 cycles
 SCF Done:  E(UB3LYP) =  -1432.05661717     A.U. after   14 cycles
 SCF Done:  E(UB3LYP) =  -1432.05661753     A.U. after   14 cycles
 Optimization completed.
    -- Stationary point found.
 Normal termination of Gaussian 16 at Wed Dec 20 19:16:32 2023.

 ----------------------------------------------------------------------
 #P Geom=AllCheck Guess=TCheck SCRF=Check GenChk UB3LYP/6-311++G(d,p) F
 req
 ----------------------------------------------------------------------

 Structure from the checkpoint file:  "068-rad.chk"
 -------
 Radical
 -------
 Charge = -1 Multiplicity = 2

                          Input orientation:
 ---------------------------------------------------------------------
 Center     Atomic      Atomic             Coordinates (Angstroms)
 Number     Number       Type             X           Y           Z
 ---------------------------------------------------------------------
      1          6           0        0.855555    1.171765   -1.498451
      2          6           0       -0.339310    0.392144   -1.763064
      3          6           0       -0.613451   -0.761767   -1.101867
      4          6           0        0.265738   -1.312672   -0.090344
      5          6           0        1.468654   -0.547216    0.223016
      6          6           0        1.701346    0.656408   -0.425167
      7          8           0        1.140893    2.191240   -2.167574
      8          8           0        0.002151   -2.402744    0.485472
      9         16           0        3.093383    1.699506    0.032438
     10          6           0        4.228251    1.638609   -1.377070
     11          6           0        5.147891    0.594219   -1.448670
     12          6           0        4.169909    2.633762   -2.348480
     13          6           0        5.068137    2.584263   -3.413018
     14          6           0        6.036012    0.553603   -2.521800
     15          6           0        5.998846    1.548505   -3.499607
     16          8           0        3.787020    1.029662    1.151164
     17          8           0        2.673044    3.093483    0.219433
     18          1           0       -0.995221    0.778320   -2.537123
     19          1           0       -1.505594   -1.341942   -1.318015
     20          1           0        5.156567   -0.168640   -0.679422
     21          1           0        3.418761    3.407423   -2.266910
     22          1           0        5.034789    3.351547   -4.178987
     23          1           0        6.755912   -0.254534   -2.592370
     24          1           0        6.692436    1.512828   -4.333501
     25          6           0        2.436694   -1.264630    1.167607
     26          8           0        3.336112   -1.913337    0.675974
     27          6           0        2.197589   -1.287577    2.701732
     28          6           0        1.144473   -0.258550    3.140688
     29          6           0        1.731066   -2.715172    3.077310
     30          6           0        3.537009   -1.010646    3.416595
     31          1           0        0.172982   -0.459049    2.683200
     32          1           0        1.449599    0.757468    2.879873
     33          1           0        1.018620   -0.303809    4.228048
     34          1           0        0.798562   -2.969130    2.574420
     35          1           0        1.592416   -2.772194    4.163065
     36          1           0        2.488248   -3.447800    2.786400
     37          1           0        3.880422    0.006348    3.231073
     38          1           0        4.305396   -1.702752    3.065719
     39          1           0        3.406305   -1.154933    4.495000
 ---------------------------------------------------------------------

 SCF Done:  E(UB3LYP) =  -1432.05661753     A.U. after    2 cycles

 Alpha  occ. eigenvalues --  -88.93686 -19.00364 -19.00001 -18.99923 -18.97199
 Alpha  occ. eigenvalues --  -18.97093 -10.15774 -10.12517 -10.12044 -10.11043
 Alpha  occ. eigenvalues --  -10.10095 -10.09716 -10.09648 -10.09633 -10.09405
 Alpha  occ. eigenvalues --  -10.09350 -10.08815 -10.08321 -10.06636 -10.06507
 Alpha  occ. eigenvalues --  -10.05257 -10.04861 -10.04834  -8.00053  -5.96327
 Alpha  occ. eigenvalues --   -5.96229  -5.96159  -0.99443  -0.93944  -0.89971
 Alpha  occ. eigenvalues --   -0.89563  -0.88779  -0.78119  -0.73198  -0.70900
 Alpha  occ. eigenvalues --   -0.68509  -0.66959  -0.66263  -0.60944  -0.58049
 Alpha  occ. eigenvalues --   -0.57654  -0.56569  -0.53430  -0.52880  -0.51318
 Alpha  occ. eigenvalues --   -0.48122  -0.47011  -0.43785  -0.41058  -0.39488
 Alpha  occ. eigenvalues --   -0.38410  -0.37796  -0.37400  -0.37232  -0.36200
 Alpha  occ. eigenvalues --   -0.35141  -0.34542  -0.34426  -0.33895  -0.32711
 Alpha  occ. eigenvalues --   -0.31508  -0.30925  -0.30401  -0.29749  -0.29281
 Alpha  occ. eigenvalues --   -0.28698  -0.28311  -0.27784  -0.27433  -0.26949
 Alpha  occ. eigenvalues --   -0.26746  -0.26478  -0.25784  -0.25498  -0.22607
 Alpha  occ. eigenvalues --   -0.22240  -0.21740  -0.20994  -0.19434  -0.19096
 Alpha  occ. eigenvalues --   -0.18335  -0.17779  -0.17412  -0.16180  -0.14872
 Alpha  occ. eigenvalues --   -0.13685  -0.12470  -0.06065
 Alpha virt. eigenvalues --    0.04973   0.06422   0.06872   0.07755   0.08118
 Alpha virt. eigenvalues --    0.08509   0.08738   0.09219   0.09892   0.10432
 Alpha virt. eigenvalues --    0.10785   0.11517   0.12007   0.12280   0.12757

  Beta  occ. eigenvalues --  -88.93688 -19.00339 -19.00003 -18.99913 -18.96441
  Beta  occ. eigenvalues --  -18.96403 -10.15789 -10.12459 -10.11956 -10.11042
  Beta  occ. eigenvalues --  -10.10089 -10.09716 -10.09650 -10.09630 -10.09400
  Beta  occ. eigenvalues --  -10.09238 -10.08549 -10.08318 -10.06583 -10.06412
  Beta  occ. eigenvalues --  -10.05255 -10.04860 -10.04833  -8.00055  -5.96329
  Beta  occ. eigenvalues --   -5.96229  -5.96164  -0.99424  -0.93877  -0.89074
  Beta  occ. eigenvalues --   -0.88567  -0.88192  -0.78112  -0.72579  -0.70866
  Beta  occ. eigenvalues --   -0.68457  -0.66953  -0.66014  -0.60346  -0.58019
  Beta  occ. eigenvalues --   -0.57650  -0.56126  -0.53185  -0.52874  -0.51198
  Beta  occ. eigenvalues --   -0.47928  -0.46819  -0.43684  -0.40884  -0.39330
  Beta  occ. eigenvalues --   -0.38252  -0.37730  -0.37277  -0.37133  -0.36180
  Beta  occ. eigenvalues --   -0.34966  -0.34458  -0.34396  -0.33844  -0.32665
  Beta  occ. eigenvalues --   -0.31464  -0.30180  -0.29660  -0.29383  -0.29079
  Beta  occ. eigenvalues --   -0.28469  -0.28080  -0.27355  -0.27200  -0.26704
  Beta  occ. eigenvalues --   -0.26446  -0.25786  -0.25618  -0.24013  -0.22523
  Beta  occ. eigenvalues --   -0.22165  -0.21718  -0.20955  -0.19356  -0.18874
  Beta  occ. eigenvalues --   -0.17995  -0.17568  -0.15570  -0.14633  -0.14289
  Beta  occ. eigenvalues --   -0.12982  -0.11985
  Beta virt. eigenvalues --    0.01150   0.05296   0.06422   0.06909   0.08077
  Beta virt. eigenvalues --    0.08372   0.08561   0.09129   0.09531   0.09930
  Beta virt. eigenvalues --    0.10441   0.10795   0.11538   0.12050   0.12506

 Mulliken charges and spin densities:
               1          2
     1  C   -0.429664   0.012964
     2  C   -0.004600   0.065230
     3  C   -0.085154   0.049351
     4  C   -0.712029   0.062313
     5  C    0.721534   0.185105
     6  C    0.159185   0.130158
     7  O   -0.295057   0.241851
     8  O   -0.307176   0.294295
     9  S    0.031130  -0.041361
    10  C    0.775969   0.003964
    11  C   -0.398824   0.003562
    12  C    0.095877   0.020656
    13  C   -0.480423  -0.002430
    14  C   -0.558296  -0.001533
    15  C   -0.315110   0.004230
    16  O   -0.108239  -0.003591
    17  O   -0.044210   0.008865
    18  H    0.173190  -0.006882
    19  H    0.166942  -0.004857
    20  H    0.231363   0.001231
    21  H    0.289017  -0.000388
    22  H    0.164133   0.000199
    23  H    0.172695   0.000035
    24  H    0.136275  -0.000291
    25  C   -0.242653  -0.029708
    26  O   -0.193737   0.002333
    27  C    0.325269  -0.001405
    28  C   -0.546003  -0.001782
    29  C   -0.552059   0.008023
    30  C   -0.579723  -0.000022
    31  H    0.152008   0.000435
    32  H    0.196815   0.000023
    33  H    0.135036   0.000107
    34  H    0.202234  -0.002297
    35  H    0.114858   0.000146
    36  H    0.155404   0.000574
    37  H    0.168261   0.000137
    38  H    0.155575   0.000119
    39  H    0.130186   0.000643
 Sum of Mulliken charges =  -1.00000   1.00000

 Dipole moment (field-independent basis, Debye):
    X=             -8.8262    Y=             -1.1546    Z=             -0.7530  Tot=              8.9332
 Quadrupole moment (field-independent basis, Debye-Ang):
   XX=           -174.1916   YY=           -183.3704   ZZ=           -156.7089
   XY=             -8.7090   XZ=             -8.9299   YZ=              6.1836

  Exact polarizability: 259.581  22.501 247.938 -19.327 -58.392 256.857
 Approx polarizability: 373.893   9.994 445.136 -20.326 -94.151 378.498

                      1                      2                      3
                      A                      A                      A
 Frequencies --     21.5606                30.0568                37.0925
 Red. masses --      4.6794                 3.7429                 5.0607
 Frc consts  --      0.0013                 0.0020                 0.0041
 IR Inten    --      2.2742                 0.9901                 0.3651

                      4                      5                      6
                      A                      A                      A
 Frequencies --     40.9302                71.2505                96.4358
 Red. masses --      5.0623                 5.7541                 4.8929
 Frc consts  --      0.0050                 0.0172                 0.0268
 IR Inten    --      1.0257                 1.1214                 2.9050

                      7                      8                      9
                      A                      A                      A
 Frequencies --    116.8321               140.5056               148.6500
 Red. masses --      5.4581                 8.2090                 6.6933
 Frc consts  --      0.0439                 0.0955                 0.0871
 IR Inten    --      3.9064                 3.2435                 3.6024

                     10                     11                     12
                      A                      A                      A
 Frequencies --    176.5982               180.4827               200.1611
 Red. masses --      6.5883                 8.2080                 5.7570
 Frc consts  --      0.1211                 0.1575                 0.1359
 IR Inten    --      1.1208                 0.8716                 5.3740

                     13                     14                     15
                      A                      A                      A
 Frequencies --    215.8389               224.0072               244.1581
 Red. masses --      1.1194                 5.2155                 2.1620
 Frc consts  --      0.0307                 0.1542                 0.0759
 IR Inten    --      0.1158                 0.3561                 1.7782

                     16                     17                     18
                      A                      A                      A
 Frequencies --    249.2918               266.9376               279.4578
 Red. masses --      2.1723                 2.1819                 1.4415
 Frc consts  --      0.0795                 0.0916                 0.0663
 IR Inten    --      0.0682                 2.2599                 0.5667

                     19                     20                     21
                      A                      A                      A
 Frequencies --    283.4886               304.0929               306.9678
 Red. masses --      4.9232                 4.6094                 3.3454
 Frc consts  --      0.2331                 0.2511                 0.1857
 IR Inten    --      0.1156                 5.1505                 8.9415

                     22                     23                     24
                      A                      A                      A
 Frequencies --    316.0266               355.5930               365.9991
 Red. masses --      5.7493                 3.5609                 3.0915
 Frc consts  --      0.3383                 0.2653                 0.2440
 IR Inten    --      0.3668                 1.1755                 0.5126

                     25                     26                     27
                      A                      A                      A
 Frequencies --    375.0334               403.3527               411.2410
 Red. masses --      2.7155                 6.0023                 2.8911
 Frc consts  --      0.2250                 0.5754                 0.2881
 IR Inten    --      2.2919                 4.5243                 0.0641

                     28                     29                     30
                      A                      A                      A
 Frequencies --    433.1160               446.9305               461.9499
 Red. masses --      4.3129                 5.9171                 5.5390
 Frc consts  --      0.4767                 0.6964                 0.6964
 IR Inten    --      2.6877                 9.8664                 5.4839

                     31                     32                     33
                      A                      A                      A
 Frequencies --    492.7491               511.8169               553.5572
 Red. masses --      7.4714                 5.9683                 5.0507
 Frc consts  --      1.0688                 0.9212                 0.9119
 IR Inten    --      2.4277                30.0844                37.2863

                     34                     35                     36
                      A                      A                      A
 Frequencies --    574.0649               592.1797               601.1584
 Red. masses --      6.7961                 5.9870                 4.0398
 Frc consts  --      1.3196                 1.2370                 0.8602
 IR Inten    --     30.5117               103.8502                49.0620

                     37                     38                     39
                      A                      A                      A
 Frequencies --    627.4499               650.3308               698.2170
 Red. masses --      6.4265                 3.5956                 2.7602
 Frc consts  --      1.4907                 0.8960                 0.7928
 IR Inten    --      0.0292                 5.3009                16.3760

                     40                     41                     42
                      A                      A                      A
 Frequencies --    700.6760               723.1741               726.8275
 Red. masses --      3.1543                 6.7237                 6.1557
 Frc consts  --      0.9124                 2.0718                 1.9160
 IR Inten    --     32.1092                78.6359                 3.1139

                     43                     44                     45
                      A                      A                      A
 Frequencies --    761.5205               775.1822               810.1229
 Red. masses --      1.7909                 7.9322                 3.5146
 Frc consts  --      0.6119                 2.8083                 1.3590
 IR Inten    --     12.0911                18.4340                 7.5127

                     46                     47                     48
                      A                      A                      A
 Frequencies --    839.3155               849.4587               878.7193
 Red. masses --      2.0112                 1.2479                 4.9882
 Frc consts  --      0.8347                 0.5305                 2.2693
 IR Inten    --     35.4480                 0.7047                68.2836

                     49                     50                     51
                      A                      A                      A
 Frequencies --    891.9570               933.7894               935.0460
 Red. masses --      8.6420                 1.8466                 1.3865
 Frc consts  --      4.0509                 0.9487                 0.7143
 IR Inten    --     20.6265                 1.8434                 0.4995

                     52                     53                     54
                      A                      A                      A
 Frequencies --    948.0732               971.6591               973.4457
 Red. masses --      1.6168                 1.2091                 1.2890
 Frc consts  --      0.8562                 0.6726                 0.7197
 IR Inten    --      1.4906                 0.3930                 0.4658

                     55                     56                     57
                      A                      A                      A
 Frequencies --    986.4397               993.2253              1010.5195
 Red. masses --      1.3782                 1.3034                 3.4413
 Frc consts  --      0.7901                 0.7576                 2.0705
 IR Inten    --      0.3456                 0.0533                55.8799

                     58                     59                     60
                      A                      A                      A
 Frequencies --   1014.1504              1039.0156              1042.3233
 Red. masses --      5.5378                 2.0553                 2.1913
 Frc consts  --      3.3558                 1.3073                 1.4027
 IR Inten    --     10.8964                25.6445                 6.6826

                     61                     62                     63
                      A                      A                      A
 Frequencies --   1056.9545              1067.6165              1096.7347
 Red. masses --      1.7342                 3.2103                 1.6408
 Frc consts  --      1.1415                 2.1559                 1.1628
 IR Inten    --     16.0499               114.8049                 9.7520

                     64                     65                     66
                      A                      A                      A
 Frequencies --   1098.0059              1112.3684              1132.0155
 Red. masses --      2.1076                 4.3803                 2.4140
 Frc consts  --      1.4971                 3.1934                 1.8226
 IR Inten    --      8.5368               120.3350                57.5434

                     67                     68                     69
                      A                      A                      A
 Frequencies --   1177.6113              1198.9659              1205.8904
 Red. masses --      1.1161                 1.1551                 2.6507
 Frc consts  --      0.9119                 0.9784                 2.2711
 IR Inten    --      0.1068                 6.0013                11.8267

                     70                     71                     72
                      A                      A                      A
 Frequencies --   1214.8032              1242.2057              1248.9078
 Red. masses --      2.5880                16.4268                 2.9406
 Frc consts  --      2.2502                14.9345                 2.7024
 IR Inten    --      7.9675               153.5517                12.1640

                     73                     74                     75
                      A                      A                      A
 Frequencies --   1263.0988              1311.5698              1330.7657
 Red. masses --      2.6535                 2.5007                 3.2194
 Frc consts  --      2.4943                 2.5345                 3.3591
 IR Inten    --      4.7625                 7.3360                 0.0361

                     76                     77                     78
                      A                      A                      A
 Frequencies --   1347.8206              1383.1628              1390.2253
 Red. masses --      1.6702                 1.2050                 1.2232
 Frc consts  --      1.7876                 1.3583                 1.3929
 IR Inten    --      3.0195                15.9764                12.4975

                     79                     80                     81
                      A                      A                      A
 Frequencies --   1406.1924              1418.3914              1447.9354
 Red. masses --      3.3923                 1.2443                 7.2776
 Frc consts  --      3.9522                 1.4749                 8.9895
 IR Inten    --     45.4341                26.4779               159.9086

                     82                     83                     84
                      A                      A                      A
 Frequencies --   1471.1086              1472.8491              1489.8980
 Red. masses --      1.0583                 2.1727                 1.0513
 Frc consts  --      1.3494                 2.7770                 1.3749
 IR Inten    --      1.8603                13.9275                 8.1662

                     85                     86                     87
                      A                      A                      A
 Frequencies --   1496.8963              1501.0765              1504.3295
 Red. masses --      1.1093                 1.0725                 1.0613
 Frc consts  --      1.4645                 1.4238                 1.4151
 IR Inten    --      3.9501                 4.3120                15.1919

                     88                     89                     90
                      A                      A                      A
 Frequencies --   1507.1574              1516.9759              1529.4865
 Red. masses --      2.0172                 5.2088                 1.0641
 Frc consts  --      2.6997                 7.0623                 1.4666
 IR Inten    --      8.5508                61.3995                31.0464

                     91                     92                     93
                      A                      A                      A
 Frequencies --   1550.8934              1621.5588              1623.3078
 Red. masses --      8.5250                 5.3418                 5.8372
 Frc consts  --     12.0811                 8.2756                 9.0626
 IR Inten    --    274.9157                 2.4901                 0.0690

                     94                     95                     96
                      A                      A                      A
 Frequencies --   1633.7174              1741.1990              3009.2749
 Red. masses --      7.1685                12.5861                 1.0425
 Frc consts  --     11.2728                22.4822                 5.5623
 IR Inten    --     15.8298               128.1253                32.1944

                     97                     98                     99
                      A                      A                      A
 Frequencies --   3014.5096              3022.1645              3077.8759
 Red. masses --      1.0422                 1.0417                 1.0947
 Frc consts  --      5.5798                 5.6056                 6.1098
 IR Inten    --     31.1939               141.7597                24.5018

                    100                    101                    102
                      A                      A                      A
 Frequencies --   3079.3333              3088.5300              3105.4968
 Red. masses --      1.0949                 1.0927                 1.1029
 Frc consts  --      6.1170                 6.1414                 6.2669
 IR Inten    --     28.3412                40.3879                12.9922

                    103                    104                    105
                      A                      A                      A
 Frequencies --   3130.5141              3132.3330              3147.8533
 Red. masses --      1.0992                 1.0996                 1.0856
 Frc consts  --      6.3468                 6.3566                 6.3380
 IR Inten    --      4.8205                 9.1467                10.4669

                    106                    107                    108
                      A                      A                      A
 Frequencies --   3150.5484              3166.5849              3168.9935
 Red. masses --      1.0852                 1.0899                 1.0959
 Frc consts  --      6.3465                 6.4387                 6.4841
 IR Inten    --      2.3877                26.2125                31.8566

                    109                    110                    111
                      A                      A                      A
 Frequencies --   3176.5979              3196.4128              3219.9706
 Red. masses --      1.0951                 1.0940                 1.0928
 Frc consts  --      6.5107                 6.5854                 6.6758
 IR Inten    --     35.8936                10.2020                 6.1161

 - Thermochemistry -
 -------------------
 Temperature   298.150 Kelvin.  Pressure   1.00000 Atm.
 Atom     1 has atomic number  6 and mass  12.00000

 Molecular mass:   332.07185 amu.
 Principal axes and moments of inertia in atomic units:
                           1         2         3
     Eigenvalues --  4584.788829051.11380**********
           X           -0.50048   0.84291  -0.19754
           Y           -0.55267  -0.13543   0.82232
           Z            0.66640   0.52073   0.53363
 This molecule is an asymmetric top.
 Rotational symmetry number  1.
 Warning -- assumption of classical behavior for rotation
           may cause significant error
 Rotational temperatures (Kelvin)      0.01889     0.00957     0.00807
 Rotational constants (GHZ):           0.39364     0.19939     0.16814
 Zero-point vibrational energy     771644.5 (Joules/Mol)
                                  184.42747 (Kcal/Mol)
 Warning -- explicit consideration of  36 degrees of freedom as
           vibrations may cause significant error
 Vibrational temperatures:     31.02    43.25    53.37    58.89   102.51
          (Kelvin)            138.75   168.10   202.16   213.87   254.09
                              259.67   287.99   310.54   322.30   351.29
                              358.68   384.06   402.08   407.88   437.52
                              441.66   454.69   511.62   526.59   539.59
                              580.33   591.68   623.16   643.03   664.64
                              708.96   736.39   796.45   825.95   852.01
                              864.93   902.76   935.68  1004.58  1008.12
                             1040.49  1045.74  1095.66  1115.31  1165.59
                             1207.59  1222.18  1264.28  1283.33  1343.51
                             1345.32  1364.07  1398.00  1400.57  1419.27
                             1429.03  1453.91  1459.14  1494.91  1499.67
                             1520.72  1536.06  1577.96  1579.79  1600.45
                             1628.72  1694.32  1725.04  1735.01  1747.83
                             1787.26  1796.90  1817.32  1887.06  1914.68
                             1939.21  1990.06  2000.22  2023.20  2040.75
                             2083.26  2116.60  2119.10  2143.63  2153.70
                             2159.71  2164.39  2168.46  2182.59  2200.59
                             2231.39  2333.06  2335.58  2350.55  2505.20
                             4329.68  4337.21  4348.22  4428.38  4430.47
                             4443.71  4468.12  4504.11  4506.73  4529.06
                             4532.94  4556.01  4559.47  4570.42  4598.93
                             4632.82

 Zero-point correction=                           0.293904 (Hartree/Particle)
 Thermal correction to Energy=                    0.315735
 Thermal correction to Enthalpy=                  0.316679
 Thermal correction to Gibbs Free Energy=         0.241846
 Sum of electronic and zero-point Energies=          -1431.762714
 Sum of electronic and thermal Energies=             -1431.740882
 Sum of electronic and thermal Enthalpies=           -1431.739938
 Sum of electronic and thermal Free Energies=        -1431.814772

                     E (Thermal)             CV                S
                      KCal/Mol        Cal/Mol-Kelvin    Cal/Mol-Kelvin
 Total                  198.127             83.446            157.501
 Electronic               0.000              0.000              1.377
 Translational            0.889              2.981             43.296
 Rotational               0.889              2.981             34.454
 Vibrational            196.349             77.484             78.374
 Vibration     1          0.593              1.985              6.485
 Vibration     2          0.594              1.984              5.826
 Vibration     3          0.594              1.982              5.409
 Vibration     4          0.594              1.981              5.214
 Vibration     5          0.598              1.968              4.119
 Vibration     6          0.603              1.952              3.525
 Vibration     7          0.608              1.935              3.152
 Vibration     8          0.615              1.913              2.797
 Vibration     9          0.618              1.904              2.689
 Vibration    10          0.628              1.871              2.364
 Vibration    11          0.629              1.866              2.323
 Vibration    12          0.638              1.840              2.132
 Vibration    13          0.645              1.817              1.994
 Vibration    14          0.649              1.804              1.926
 Vibration    15          0.659              1.772              1.772
 Vibration    16          0.662              1.764              1.736
 Vibration    17          0.672              1.734              1.616
 Vibration    18          0.680              1.712              1.537
 Vibration    19          0.682              1.704              1.513
 Vibration    20          0.695              1.666              1.394
 Vibration    21          0.697              1.660              1.379
 Vibration    22          0.703              1.643              1.331
 Vibration    23          0.731              1.564              1.141
 Vibration    24          0.739              1.542              1.097
 Vibration    25          0.746              1.523              1.059
 Vibration    26          0.769              1.463              0.950
 Vibration    27          0.775              1.446              0.922
 Vibration    28          0.794              1.398              0.849
 Vibration    29          0.806              1.368              0.805
 Vibration    30          0.820              1.334              0.760
 Vibration    31          0.848              1.266              0.677
 Vibration    32          0.867              1.224              0.629
 Vibration    33          0.909              1.132              0.537
 Vibration    34          0.930              1.087              0.496
 Vibration    35          0.950              1.048              0.463
 Vibration    36          0.959              1.029              0.448

                           ! Non-Optimized Parameters !
 Normal termination of Gaussian 16 at Wed Dec 20 23:57:38 2023.
