 Gaussian 16, Revision A.03,
 Gaussian 16:  ES64L-G16RevA.03 25-Dec-2016

 ----------------------------------------------------------------
 #P UB3LYP/6-311++G(d,p) SCRF=(PCM,Solvent=n,n-DiMethylFormamide)
 ----------------------------------------------------------------

 ------------------
 Radical PCM in DMF
 ------------------
 Symbolic Z-matrix:
 Charge = -1 Multiplicity = 2

                         Standard orientation:
 ---------------------------------------------------------------------
 Center     Atomic      Atomic             Coordinates (Angstroms)
 Number     Number       Type             X           Y           Z
 ---------------------------------------------------------------------
      1          7           0        3.763010   -2.332635    0.122820
      2          6           0        3.593402   -0.964278    0.027755
      3          6           0        4.710099   -0.125101   -0.019850
      4          6           0        4.565167    1.266938   -0.048711
      5          6           0        3.309783    1.843381   -0.026760
      6          6           0        2.156519    1.035323    0.005048
      7          6           0        0.852915    1.710531    0.010069
      8          8           0        0.749083    2.960702    0.009799
      9          6           0       -0.322377    0.845579    0.010640
     10          6           0       -1.606162    1.427246    0.014495
     11          6           0       -2.739004    0.647058    0.006434
     12         17           0       -4.321897    1.427895    0.012050
     13          6           0       -2.623299   -0.764404   -0.007490
     14         17           0       -4.057875   -1.792924   -0.017521
     15          6           0       -1.378685   -1.351164   -0.012222
     16          6           0       -0.205492   -0.570113   -0.001448
     17          6           0        1.090858   -1.243867   -0.004272
     18          8           0        1.141539   -2.510877   -0.038407
     19          6           0        2.274547   -0.392151    0.020992
     20          1           0        2.907395   -2.867208   -0.030961
     21          1           0        4.635014   -2.704655   -0.218062
     22          1           0        5.700617   -0.572339   -0.015263
     23          1           0        5.451979    1.893331   -0.081920
     24          1           0        3.171333    2.916762   -0.039527
     25          1           0       -1.673410    2.507719    0.022515
     26          1           0       -1.272485   -2.428148   -0.022755
 ---------------------------------------------------------------------

 SCF Done:  E(UB3LYP) =  -1663.72005819     A.U. after   22 cycles

 The electronic state is 2-A.
 Alpha  occ. eigenvalues -- -101.56241-101.56226 -19.08369 -19.07847 -14.30728
 Alpha  occ. eigenvalues --  -10.24841 -10.24775 -10.23415 -10.22759 -10.21941
 Alpha  occ. eigenvalues --  -10.18896 -10.18877 -10.18403 -10.18285 -10.17736
 Alpha  occ. eigenvalues --  -10.17582 -10.17327 -10.16461 -10.15932  -9.47689
 Alpha  occ. eigenvalues --   -9.47674  -7.24147  -7.24131  -7.23185  -7.23170
 Alpha  occ. eigenvalues --   -7.23133  -7.23118  -1.01088  -1.00608  -0.91590
 Alpha  occ. eigenvalues --   -0.91487  -0.86149  -0.85234  -0.83495  -0.77959
 Alpha  occ. eigenvalues --   -0.75960  -0.73526  -0.73156  -0.66975  -0.64422
 Alpha  occ. eigenvalues --   -0.62432  -0.60039  -0.56460  -0.54650  -0.53094
 Alpha  occ. eigenvalues --   -0.50195  -0.49035  -0.48038  -0.47276  -0.45271
 Alpha  occ. eigenvalues --   -0.44748  -0.44229  -0.43526  -0.42166  -0.41738
 Alpha  occ. eigenvalues --   -0.40964  -0.40633  -0.39820  -0.38771  -0.37203
 Alpha  occ. eigenvalues --   -0.36907  -0.35686  -0.35359  -0.35049  -0.33555
 Alpha  occ. eigenvalues --   -0.32582  -0.31612  -0.31168  -0.26840  -0.26463
 Alpha  occ. eigenvalues --   -0.25313  -0.24949  -0.24245  -0.21406  -0.14442
 Alpha virt. eigenvalues --   -0.05826  -0.02965  -0.01381  -0.00308  -0.00281
 Alpha virt. eigenvalues --    0.00686   0.01029   0.02134   0.02691   0.03193
 Alpha virt. eigenvalues --    0.03936   0.04111   0.04658   0.05117   0.05170

  Beta  occ. eigenvalues -- -101.56239-101.56223 -19.07873 -19.07303 -14.30705
  Beta  occ. eigenvalues --  -10.24786 -10.24700 -10.23240 -10.22582 -10.21943
  Beta  occ. eigenvalues --  -10.18913 -10.18875 -10.18294 -10.18190 -10.17734
  Beta  occ. eigenvalues --  -10.17519 -10.17298 -10.16361 -10.15882  -9.47687
  Beta  occ. eigenvalues --   -9.47671  -7.24148  -7.24133  -7.23174  -7.23156
  Beta  occ. eigenvalues --   -7.23132  -7.23117  -1.00227  -0.99649  -0.91513
  Beta  occ. eigenvalues --   -0.91373  -0.86092  -0.84955  -0.83385  -0.77633
  Beta  occ. eigenvalues --   -0.75755  -0.73331  -0.72940  -0.66275  -0.64292
  Beta  occ. eigenvalues --   -0.62188  -0.59930  -0.56237  -0.54446  -0.52963
  Beta  occ. eigenvalues --   -0.50101  -0.48902  -0.47836  -0.47110  -0.45159
  Beta  occ. eigenvalues --   -0.44635  -0.44183  -0.42693  -0.41991  -0.41316
  Beta  occ. eigenvalues --   -0.40454  -0.40328  -0.39662  -0.37092  -0.36845
  Beta  occ. eigenvalues --   -0.36135  -0.35542  -0.35090  -0.34870  -0.33534
  Beta  occ. eigenvalues --   -0.31845  -0.31593  -0.30479  -0.25830  -0.25108
  Beta  occ. eigenvalues --   -0.24852  -0.24446  -0.23757  -0.20615
  Beta virt. eigenvalues --   -0.08818  -0.04950  -0.01905  -0.01319  -0.00272
  Beta virt. eigenvalues --    0.00114   0.00696   0.01041   0.02147   0.02708
  Beta virt. eigenvalues --    0.03236   0.04079   0.04453   0.04915   0.05140

 Mulliken charges and spin densities:
               1          2
     1  N   -0.405263   0.009507
     2  C    0.142568   0.027099
     3  C   -0.252767   0.086591
     4  C   -0.501922   0.023073
     5  C   -0.032304   0.065060
     6  C    0.433165   0.018685
     7  C   -0.757142   0.090103
     8  O   -0.444501   0.203933
     9  C   -0.486145   0.051001
    10  C   -0.464748   0.026449
    11  C    0.472062   0.030623
    12  Cl   0.535429   0.002560
    13  C    0.373934   0.050530
    14  Cl   0.535298   0.003423
    15  C   -0.241185   0.023437
    16  C   -0.237492   0.075013
    17  C   -0.967130   0.076033
    18  O   -0.433716   0.182127
    19  C    0.216044  -0.027874
    20  H    0.314004  -0.002990
    21  H    0.266737  -0.000587
    22  H    0.164489  -0.006067
    23  H    0.186273  -0.002051
    24  H    0.155993  -0.004157
    25  H    0.208919  -0.001552
    26  H    0.219399   0.000028
 Sum of Mulliken charges =  -1.00000   1.00000

 Dipole moment (field-independent basis, Debye):
    X=              0.7095    Y=             -2.6972    Z=             -0.8255  Tot=              2.9086
 Quadrupole moment (field-independent basis, Debye-Ang):
   XX=           -139.8303   YY=           -155.0425   ZZ=           -130.3074
   XY=             -5.7212   XZ=             -3.7853   YZ=              2.1327

 Normal termination of Gaussian 16 at Sun Jan 14 01:16:55 2024.
