 Q-Chem 5.4, Q-Chem, Inc., Pleasanton, CA (2021)
 Q-Chem 5.4.0 for Intel X86 EM64T Linux

User input:
--------------------------------------------------------------
$molecule
-2 1
C                 -2.0289050000      4.8045230000      5.4312490000
C                 -3.3115750000      4.2946730000      5.4704160000
C                 -3.7624570000      3.4373860000      4.4392160000
C                 -1.1422040000      4.4826330000      4.3744110000
C                 -1.5959050000      3.6111830000      3.3278050000
C                 -2.9116640000      3.1149670000      3.3939070000
C                  0.1834070000      5.0270290000      4.3276890000
C                  0.9914260000      4.6082290000      3.2246050000
C                  0.6157150000      3.7156010000      2.2150230000
C                 -0.7433320000      3.2317380000      2.1889390000
O                  0.6989590000      5.8519650000      5.1781820000
O                 -1.2338880000      2.5251350000      1.2430960000
O                  2.2331240000      5.1866860000      3.2296590000
H                 -1.6607630000      5.4681080000      6.2066730000
H                 -3.9760190000      4.5527580000      6.2917360000
H                 -4.7716720000      3.0349570000      4.4669840000
H                 -3.2314560000      2.4652490000      2.5864760000
H                  2.1710060000      5.7347350000      4.0502380000
C                  2.9687310000      2.8442050000      1.5994630000
C                  3.0664090000      2.0902600000      2.7701760000
C                  4.1213280000      3.0117360000      0.8236160000
C                  5.3350220000      2.4402040000      1.1994050000
C                  5.4189460000      1.6846170000      2.3702420000
C                  4.2779210000      1.5149760000      3.1533340000
H                  2.1840960000      1.9718580000      3.3886370000
H                  4.0540920000      3.5940150000     -0.0901000000
H                  6.2170150000      2.5868420000      0.5822450000
H                  4.3310010000      0.9374230000      4.0714120000
H                  6.3633670000      1.2409650000      2.6711460000
C                  1.6502290000      3.4529150000      1.1087860000
H                  1.9279690000      4.4439220000      0.7233740000
N                  1.1805900000      2.6949660000     -0.0849520000
C                  1.1705260000      1.2317770000      0.0475040000
C                  0.5247300000      0.6068930000     -1.1902830000
C                  0.5405140000     -0.9258290000     -1.1747100000
C                 -0.0850620000     -1.5588180000     -2.4239150000
C                 -0.0476660000     -3.0920460000     -2.4315300000
C                 -0.6523290000     -3.7202350000     -3.6932980000
H                  0.1954620000      2.9443620000     -0.1727770000
H                  0.6148570000      0.9029260000      0.9375630000
H                  2.2012050000      0.8729110000      0.1369820000
H                  1.0464020000      0.9744140000     -2.0836250000
H                 -0.5111890000      0.9602950000     -1.2568910000
H                  0.0101020000     -1.2843460000     -0.2835010000
H                  1.5766890000     -1.2780190000     -1.0759300000
H                  0.4344390000     -1.1831170000     -3.3159790000
H                 -1.1257280000     -1.2214950000     -2.5155080000
H                 -0.5779850000     -3.4712180000     -1.5481300000
H                  0.9929420000     -3.4273360000     -2.3262460000
H                 -0.1288660000     -3.3288140000     -4.5759000000
H                 -1.6965590000     -3.3960310000     -3.7934900000
C                 -0.5949590000     -5.2526640000     -3.7149050000
C                 -1.1834590000     -5.8763240000     -4.9864450000
C                 -1.1116410000     -7.4079340000     -5.0177690000
C                 -1.6883400000     -8.0282150000     -6.2963140000
C                 -1.6079090000     -9.5592460000     -6.3332610000
C                 -2.1775220000    -10.1775640000     -7.6159040000
C                 -2.0917910000    -11.7084370000     -7.6537330000
C                 -2.6577340000    -12.3259030000     -8.9382360000
C                 -2.5684560000    -13.8568490000     -8.9753010000
C                 -3.1325740000    -14.4725870000    -10.2589280000
H                 -1.1263490000     -5.6471650000     -2.8388340000
H                  0.4489620000     -5.5754660000     -3.6055770000
H                 -0.6566730000     -5.4736140000     -5.8617840000
H                 -2.2299230000     -5.5613390000     -5.0926520000
H                 -1.6442420000     -7.8129840000     -4.1472150000
H                 -0.0654800000     -7.7220640000     -4.9051570000
H                 -1.1581340000     -7.6187860000     -7.1663870000
H                 -2.7359960000     -7.7188990000     -6.4074900000
H                 -2.1416000000     -9.9703940000     -5.4661740000
H                 -0.5604440000     -9.8683000000     -6.2186720000
H                 -1.6451770000     -9.7650850000     -8.4831870000
H                 -3.2257230000     -9.8714790000     -7.7308520000
H                 -2.6259610000    -12.1219810000     -6.7880870000
H                 -1.0435710000    -12.0142740000     -7.5377000000
H                 -2.1250210000    -11.9134540000     -9.8050230000
H                 -3.7064670000    -12.0234090000     -9.0558700000
H                 -3.1009150000    -14.2700440000     -8.1091980000
H                 -1.5201780000    -14.1594880000     -8.8572320000
H                 -4.1917850000    -14.2234260000    -10.3894500000
H                 -3.0521880000    -15.5650970000    -10.2503470000
H                 -2.5958940000    -14.1121860000    -11.1438860000
$end
$rem
MAX_SCF_CYCLES=200
BASIS  =  6-311++G(d,p)
GUI  =  2
JOB_TYPE  =  SP
METHOD  =  B3LYP
SCF_ALGORITHM = RCA_DIIS
THRESH = 14
SOLVENT_METHOD = PCM
$end
$pcm
theory = CPCM
$end
$solvent
dielectric 37.219
opticaldielectric 1.43
$end

--------------------------------------------------------------

             Standard Nuclear Orientation (Angstroms)
    I     Atom           X                Y                Z
 ----------------------------------------------------------------
    1      C      -2.0289050000     4.8045230000     5.4312490000
    2      C      -3.3115750000     4.2946730000     5.4704160000
    3      C      -3.7624570000     3.4373860000     4.4392160000
    4      C      -1.1422040000     4.4826330000     4.3744110000
    5      C      -1.5959050000     3.6111830000     3.3278050000
    6      C      -2.9116640000     3.1149670000     3.3939070000
    7      C       0.1834070000     5.0270290000     4.3276890000
    8      C       0.9914260000     4.6082290000     3.2246050000
    9      C       0.6157150000     3.7156010000     2.2150230000
   10      C      -0.7433320000     3.2317380000     2.1889390000
   11      O       0.6989590000     5.8519650000     5.1781820000
   12      O      -1.2338880000     2.5251350000     1.2430960000
   13      O       2.2331240000     5.1866860000     3.2296590000
   14      H      -1.6607630000     5.4681080000     6.2066730000
   15      H      -3.9760190000     4.5527580000     6.2917360000
   16      H      -4.7716720000     3.0349570000     4.4669840000
   17      H      -3.2314560000     2.4652490000     2.5864760000
   18      H       2.1710060000     5.7347350000     4.0502380000
   19      C       2.9687310000     2.8442050000     1.5994630000
   20      C       3.0664090000     2.0902600000     2.7701760000
   21      C       4.1213280000     3.0117360000     0.8236160000
   22      C       5.3350220000     2.4402040000     1.1994050000
   23      C       5.4189460000     1.6846170000     2.3702420000
   24      C       4.2779210000     1.5149760000     3.1533340000
   25      H       2.1840960000     1.9718580000     3.3886370000
   26      H       4.0540920000     3.5940150000    -0.0901000000
   27      H       6.2170150000     2.5868420000     0.5822450000
   28      H       4.3310010000     0.9374230000     4.0714120000
   29      H       6.3633670000     1.2409650000     2.6711460000
   30      C       1.6502290000     3.4529150000     1.1087860000
   31      H       1.9279690000     4.4439220000     0.7233740000
   32      N       1.1805900000     2.6949660000    -0.0849520000
   33      C       1.1705260000     1.2317770000     0.0475040000
   34      C       0.5247300000     0.6068930000    -1.1902830000
   35      C       0.5405140000    -0.9258290000    -1.1747100000
   36      C      -0.0850620000    -1.5588180000    -2.4239150000
   37      C      -0.0476660000    -3.0920460000    -2.4315300000
   38      C      -0.6523290000    -3.7202350000    -3.6932980000
   39      H       0.1954620000     2.9443620000    -0.1727770000
   40      H       0.6148570000     0.9029260000     0.9375630000
   41      H       2.2012050000     0.8729110000     0.1369820000
   42      H       1.0464020000     0.9744140000    -2.0836250000
   43      H      -0.5111890000     0.9602950000    -1.2568910000
   44      H       0.0101020000    -1.2843460000    -0.2835010000
   45      H       1.5766890000    -1.2780190000    -1.0759300000
   46      H       0.4344390000    -1.1831170000    -3.3159790000
   47      H      -1.1257280000    -1.2214950000    -2.5155080000
   48      H      -0.5779850000    -3.4712180000    -1.5481300000
   49      H       0.9929420000    -3.4273360000    -2.3262460000
   50      H      -0.1288660000    -3.3288140000    -4.5759000000
   51      H      -1.6965590000    -3.3960310000    -3.7934900000
   52      C      -0.5949590000    -5.2526640000    -3.7149050000
   53      C      -1.1834590000    -5.8763240000    -4.9864450000
   54      C      -1.1116410000    -7.4079340000    -5.0177690000
   55      C      -1.6883400000    -8.0282150000    -6.2963140000
   56      C      -1.6079090000    -9.5592460000    -6.3332610000
   57      C      -2.1775220000   -10.1775640000    -7.6159040000
   58      C      -2.0917910000   -11.7084370000    -7.6537330000
   59      C      -2.6577340000   -12.3259030000    -8.9382360000
   60      C      -2.5684560000   -13.8568490000    -8.9753010000
   61      C      -3.1325740000   -14.4725870000   -10.2589280000
   62      H      -1.1263490000    -5.6471650000    -2.8388340000
   63      H       0.4489620000    -5.5754660000    -3.6055770000
   64      H      -0.6566730000    -5.4736140000    -5.8617840000
   65      H      -2.2299230000    -5.5613390000    -5.0926520000
   66      H      -1.6442420000    -7.8129840000    -4.1472150000
   67      H      -0.0654800000    -7.7220640000    -4.9051570000
   68      H      -1.1581340000    -7.6187860000    -7.1663870000
   69      H      -2.7359960000    -7.7188990000    -6.4074900000
   70      H      -2.1416000000    -9.9703940000    -5.4661740000
   71      H      -0.5604440000    -9.8683000000    -6.2186720000
   72      H      -1.6451770000    -9.7650850000    -8.4831870000
   73      H      -3.2257230000    -9.8714790000    -7.7308520000
   74      H      -2.6259610000   -12.1219810000    -6.7880870000
   75      H      -1.0435710000   -12.0142740000    -7.5377000000
   76      H      -2.1250210000   -11.9134540000    -9.8050230000
   77      H      -3.7064670000   -12.0234090000    -9.0558700000
   78      H      -3.1009150000   -14.2700440000    -8.1091980000
   79      H      -1.5201780000   -14.1594880000    -8.8572320000
   80      H      -4.1917850000   -14.2234260000   -10.3894500000
   81      H      -3.0521880000   -15.5650970000   -10.2503470000
   82      H      -2.5958940000   -14.1121860000   -11.1438860000
 ----------------------------------------------------------------

   82   -1565.7456109193      6.28E-06 Convergence criterion met
 Total energy in the final basis set = -1565.74561092

                    Orbital Energies (a.u.)
 --------------------------------------------------------------

 Alpha MOs
 -- Occupied --
-19.1116 -19.0282 -19.0180 -14.2732 -10.1871 -10.1785 -10.1763 -10.1693
-10.1675 -10.1668 -10.1661 -10.1642 -10.1627 -10.1620 -10.1605 -10.1573
-10.1546 -10.1544 -10.1542 -10.1541 -10.1539 -10.1538 -10.1536 -10.1533
-10.1529 -10.1524 -10.1520 -10.1515 -10.1513 -10.1482 -10.1476 -10.1442
-10.1442 -10.1432 -10.1364 -10.1324 -10.1293  -1.0288  -0.9451  -0.9369
 -0.8850  -0.8464  -0.8254  -0.8086  -0.8013  -0.7901  -0.7775  -0.7686
 -0.7537  -0.7464  -0.7385  -0.7279  -0.7218  -0.7111  -0.6992  -0.6743
 -0.6532  -0.6355  -0.6262  -0.6083  -0.5996  -0.5902  -0.5850  -0.5749
 -0.5726  -0.5691  -0.5686  -0.5640  -0.5629  -0.5538  -0.5355  -0.5059
 -0.5009  -0.4826  -0.4807  -0.4746  -0.4659  -0.4566  -0.4554  -0.4499
 -0.4434  -0.4406  -0.4339  -0.4296  -0.4274  -0.4225  -0.4207  -0.4184
 -0.4166  -0.4122  -0.4092  -0.4027  -0.3999  -0.3991  -0.3934  -0.3868
 -0.3812  -0.3788  -0.3765  -0.3713  -0.3670  -0.3643  -0.3595  -0.3587
 -0.3551  -0.3518  -0.3494  -0.3440  -0.3399  -0.3373  -0.3341  -0.3324
 -0.3293  -0.3266  -0.3228  -0.3210  -0.3198  -0.3177  -0.3168  -0.3150
 -0.3146  -0.3142  -0.3136  -0.3126  -0.3112  -0.3044  -0.3033  -0.3002
 -0.2848  -0.2500  -0.2411  -0.2309  -0.2269  -0.2229  -0.2163  -0.1946
 -0.1879  -0.1083

          Ground-State Mulliken Net Atomic Charges

     Atom                 Charge (a.u.)
  ----------------------------------------
      1 C                    -0.144371
      2 C                    -0.474719
      3 C                    -0.616283
      4 C                     0.082857
      5 C                     0.440517
      6 C                    -0.072971
      7 C                    -0.788291
      8 C                    -0.481432
      9 C                     0.947670
     10 C                    -0.550048
     11 O                    -0.743843
     12 O                    -0.626924
     13 O                    -0.311474
     14 H                     0.159292
     15 H                     0.167228
     16 H                     0.167981
     17 H                     0.156431
     18 H                     0.297943
     19 C                     0.064161
     20 C                    -0.199128
     21 C                     0.135813
     22 C                    -0.311224
     23 C                    -0.458070
     24 C                    -0.291552
     25 H                     0.167521
     26 H                     0.183197
     27 H                     0.214513
     28 H                     0.216077
     29 H                     0.183894
     30 C                     0.281424
     31 H                     0.215741
     32 N                     0.023586
     33 C                    -0.861673
     34 C                    -0.272518
     35 C                    -0.053116
     36 C                    -0.085507
     37 C                    -0.201280
     38 C                    -0.279929
     39 H                     0.270541
     40 H                     0.199421
     41 H                     0.085651
     42 H                     0.144758
     43 H                     0.146065
     44 H                     0.122997
     45 H                     0.135129
     46 H                     0.119831
     47 H                     0.133357
     48 H                     0.137414
     49 H                     0.135184
     50 H                     0.135398
     51 H                     0.136996
     52 C                    -0.415287
     53 C                    -0.410028
     54 C                    -0.346516
     55 C                    -0.194396
     56 C                    -0.044308
     57 C                    -0.026482
     58 C                    -0.192144
     59 C                    -0.399980
     60 C                    -0.274260
     61 C                    -0.714853
     62 H                     0.135515
     63 H                     0.132914
     64 H                     0.132398
     65 H                     0.134357
     66 H                     0.134983
     67 H                     0.133533
     68 H                     0.133651
     69 H                     0.135015
     70 H                     0.133300
     71 H                     0.132557
     72 H                     0.133046
     73 H                     0.133291
     74 H                     0.131026
     75 H                     0.130813
     76 H                     0.127931
     77 H                     0.128321
     78 H                     0.135552
     79 H                     0.135430
     80 H                     0.144788
     81 H                     0.150722
     82 H                     0.144879
  ----------------------------------------
  Sum of atomic charges =    -2.000000

                    Cartesian Multipole Moments
 -----------------------------------------------------------------
    Charge (ESU x 10^10)
                -9.6064
    Dipole Moment (Debye)
         X       1.1648      Y     -39.5079      Z     -29.5691
       Tot      49.3615
    Quadrupole Moments (Debye-Ang)
        XX    -263.7280     XY      -4.7767     YY    -426.8382
        XZ       1.4988     YZ    -149.1419     ZZ    -372.9422

 Total job time:  8188.45s(wall), 48408.31s(cpu)
        *  Thank you very much for using Q-Chem.  Have a nice day.  *
