 Q-Chem 5.4, Q-Chem, Inc., Pleasanton, CA (2021)
 Q-Chem 5.4.0 for Intel X86 EM64T Linux

User input:
--------------------------------------------------------------
$molecule
0 1
C                  2.4483340000      3.3347450000      2.8821370000
C                  3.5690640000      3.2826170000      1.9959670000
C                  3.4597660000      2.6962610000      0.7599860000
C                  2.1439640000      2.0772750000      0.2797760000
C                  1.0232130000      2.1294650000      1.1659200000
C                  1.1325180000      2.7157970000      2.4019120000
O                  2.4655250000      3.8421310000      4.0047220000
O                  2.1267780000      1.5698880000     -0.8428120000
N                  0.1543530000      2.8208990000      3.3085550000
C                 -1.2030340000      2.3290530000      3.1429380000
C                 -2.0433870000      2.6213050000      4.3804960000
N                  4.4379250000      2.5911670000     -0.1466620000
C                  5.7953280000      3.0829520000      0.0189790000
C                  6.6357760000      2.7903880000     -1.2184430000
H                  4.4919180000      3.7239710000      2.3496490000
H                  0.1003400000      1.6881620000      0.8122210000
H                  0.4330600000      3.2895360000      4.1658490000
H                 -1.1744090000      1.2496730000      2.9489910000
H                 -1.6517730000      2.7988590000      2.2589550000
H                 -1.6237510000      2.1363800000      5.2659980000
H                 -3.0593260000      2.2463260000      4.2414750000
H                 -2.1043590000      3.6961230000      4.5712480000
H                  4.1592320000      2.1224780000     -1.0039320000
H                  6.2439400000      2.6132950000      0.9031040000
H                  5.7667660000      4.1623750000      0.2126960000
H                  6.6966710000      1.7155270000     -1.4089780000
H                  7.6517340000      3.1653080000     -1.0793980000
H                  6.2162650000      3.2751740000     -2.1040790000
$end
$rem
MAX_SCF_CYCLES=200
BASIS  =  6-311++G(d,p)
GUI  =  2
JOB_TYPE  =  SP
METHOD  =  B3LYP
SOLVENT_METHOD = COSMO
$end
$solvent
dielectric 37.219
opticaldielectric 1.43
$end

--------------------------------------------------------------

             Standard Nuclear Orientation (Angstroms)
    I     Atom           X                Y                Z
 ----------------------------------------------------------------
    1      C       0.5883846970    -1.3286626845    -0.0001739312
    2      C      -0.8350446350    -1.1948757003     0.0003827627
    3      C      -1.4234015933     0.0449809525     0.0005016720
    4      C      -0.5883872699     1.3286597118     0.0001298182
    5      C       0.8350446218     1.1948723977    -0.0004972629
    6      C       1.4234020473    -0.0449842686    -0.0005888632
    7      O       1.1913221598    -2.4030925578    -0.0003445861
    8      O      -1.1913305486     2.4030898478     0.0003015248
    9      N       2.7390059221    -0.2879675796    -0.0011201220
   10      C       3.7817537545     0.7242171045    -0.0008564910
   11      C       5.1642383805     0.0824341977     0.0014148579
   12      N      -2.7390033090     0.2879670190     0.0010223127
   13      C      -3.7817506537    -0.7242139273     0.0008260522
   14      C      -5.1642364121    -0.0824279894    -0.0010919490
   15      H      -1.4114068835    -2.1110362069     0.0009308229
   16      H       1.4114128421     2.1110302463    -0.0011019647
   17      H       2.9776247324    -1.2755465303    -0.0007861318
   18      H       3.6597515915     1.3675185718     0.8793563856
   19      H       3.6619175695     1.3660310403    -0.8824598444
   20      H       5.3092779004    -0.5392190181     0.8890359691
   21      H       5.9364022068     0.8543351460     0.0017181133
   22      H       5.3114446405    -0.5407124430    -0.8847884058
   23      H      -2.9776200432     1.2755463821     0.0007472421
   24      H      -3.6617313665    -1.3661417899     0.8823199147
   25      H      -3.6599286696    -1.3673974937    -0.8794979682
   26      H      -5.3112580342     0.5406170607     0.8852135653
   27      H      -5.9364022659    -0.8543276037    -0.0013287807
   28      H      -5.3094530247     0.5393294777    -0.8886097556
 ----------------------------------------------------------------

    9    -649.6418596987      5.64e-06  Convergence criterion met
 Total energy in the final basis set =     -649.6418596987
    5    -649.6618667440      7.16e-06  Convergence criterion met
 Total energy in the final basis set =     -649.6618667440

                    Orbital Energies (a.u.)
 --------------------------------------------------------------

 Alpha MOs
 -- Occupied --
-19.1174 -19.1174 -14.3576 -14.3576 -10.2703 -10.2703 -10.2463 -10.2463
-10.2145 -10.2145 -10.1712 -10.1712 -10.1669 -10.1669  -1.0551  -1.0525
 -0.9658  -0.9653  -0.8343  -0.7875  -0.7637  -0.7434  -0.6841  -0.6600
 -0.6389  -0.6125  -0.5927  -0.5467  -0.5234  -0.5225  -0.4880  -0.4816
 -0.4778  -0.4636  -0.4461  -0.4420  -0.4410  -0.4396  -0.4104  -0.3989
 -0.3904  -0.3897  -0.3845  -0.3774  -0.3765  -0.3699  -0.3352  -0.3266
 -0.2844  -0.2739  -0.2491  -0.2227

          Ground-State Mulliken Net Atomic Charges

     Atom                 Charge (a.u.)
  ----------------------------------------
      1 C                    -0.039407
      2 C                    -0.099695
      3 C                    -0.059746
      4 C                    -0.040679
      5 C                    -0.099935
      6 C                    -0.060783
      7 O                    -0.418332
      8 O                    -0.418139
      9 N                    -0.094917
     10 C                    -0.037536
     11 C                    -0.762749
     12 N                    -0.095089
     13 C                    -0.037218
     14 C                    -0.763066
     15 H                     0.237346
     16 H                     0.237379
     17 H                     0.385893
     18 H                     0.193472
     19 H                     0.193793
     20 H                     0.165073
     21 H                     0.172990
     22 H                     0.165097
     23 H                     0.385882
     24 H                     0.193832
     25 H                     0.193390
     26 H                     0.165040
     27 H                     0.172994
     28 H                     0.165108
  ----------------------------------------
  Sum of atomic charges =    -0.000004

                    Cartesian Multipole Moments
 -----------------------------------------------------------------
    Charge (ESU x 10^10)
                -0.0000
    Dipole Moment (Debye)
         X       0.0007      Y      -0.0000      Z       0.0004
       Tot       0.0009
    Quadrupole Moments (Debye-Ang)
        XX     -45.6177     XY      13.2645     YY    -104.1704
        XZ      -0.0026     YZ      -0.0054     ZZ     -85.6329

 Total job time:  90.89s(wall), 367.09s(cpu)
        *  Thank you very much for using Q-Chem.  Have a nice day.  *
