 Gaussian 16, Revision A.03,
 Gaussian 16:  ES64L-G16RevA.03 25-Dec-2016

 ----------------------------------------------
 #P UB3LYP/6-311++G(d,p) nosym opt freq SCF=YQC
 ----------------------------------------------

 -------
 Reduced
 -------
 Symbolic Z-matrix:
 Charge = -2 Multiplicity = 1

 SCF Done:  E(UB3LYP) =  -1243.16716380     a.u. after    8 cycles
 SCF Done:  E(UB3LYP) =  -1243.17292836     A.U. after   33 cycles
 SCF Done:  E(UB3LYP) =  -1243.17315713     a.u. after    7 cycles
 SCF Done:  E(UB3LYP) =  -1243.20719084     a.u. after   85 cycles
 SCF Done:  E(UB3LYP) =  -1243.20769428     A.U. after   33 cycles
 SCF Done:  E(UB3LYP) =  -1243.20769428     a.u. after    1 cycles
 SCF Done:  E(UB3LYP) =  -1243.22770103     a.u. after  126 cycles
 SCF Done:  E(UB3LYP) =  -1243.22814123     A.U. after   33 cycles
 SCF Done:  E(UB3LYP) =  -1243.22814123     a.u. after    1 cycles
 SCF Done:  E(UB3LYP) =  -1243.24338521     a.u. after  190 cycles
 SCF Done:  E(UB3LYP) =  -1243.25406587     a.u. after    1 cycles
 SCF Done:  E(UB3LYP) =  -1243.25407495     A.U. after   21 cycles
 SCF Done:  E(UB3LYP) =  -1243.25406296     a.u. after    1 cycles
 SCF Done:  E(UB3LYP) =  -1243.25407509     A.U. after   24 cycles
 SCF Done:  E(UB3LYP) =  -1243.25407366     a.u. after    1 cycles
 SCF Done:  E(UB3LYP) =  -1243.25407515     A.U. after   21 cycles
 SCF Done:  E(UB3LYP) =  -1243.25407464     a.u. after    1 cycles
 SCF Done:  E(UB3LYP) =  -1243.25407516     A.U. after   24 cycles
 Optimization completed.
    -- Stationary point found.
 Normal termination of Gaussian 16 at Tue Dec 26 08:13:55 2023.

 ----------------------------------------------------------------------
 #P Geom=AllCheck Guess=TCheck SCRF=Check GenChk UB3LYP/6-311++G(d,p) F
 req
 ----------------------------------------------------------------------

 Structure from the checkpoint file:  "162-an.chk"
 -------
 Reduced
 -------
 Charge = -2 Multiplicity = 1

                          Input orientation:
 ---------------------------------------------------------------------
 Center     Atomic      Atomic             Coordinates (Angstroms)
 Number     Number       Type             X           Y           Z
 ---------------------------------------------------------------------
      1          6           0       -4.377706   -0.454103   -0.066905
      2          6           0       -2.893377   -0.701051   -0.079606
      3          6           0       -2.386428   -1.999218   -0.330272
      4          6           0       -1.036549   -2.246139   -0.324545
      5         17           0       -0.623009   -3.960228   -0.691843
      6          6           0       -0.050335   -1.241632   -0.084734
      7          6           0        1.375496   -1.532554   -0.018996
      8          8           0        1.870889   -2.705613   -0.060548
      9          6           0        2.240482   -0.369921    0.102270
     10          6           0        3.643225   -0.563356    0.118554
     11          6           0        4.530006    0.489219    0.227063
     12          6           0        4.028968    1.816659    0.333393
     13          6           0        2.668256    2.036428    0.322601
     14          6           0        1.734250    0.970812    0.207658
     15          6           0        0.326589    1.259539    0.213508
     16          8           0       -0.078353    2.499852    0.318119
     17          6           0       -0.563544    0.129216    0.091750
     18          6           0       -1.996596    0.344132    0.118329
     19          7           0       -2.491555    1.624298    0.385050
     20          1           0       -4.711920    0.000849    0.874523
     21          1           0       -4.713750    0.230695   -0.871547
     22          1           0       -4.930365   -1.388733   -0.207377
     23          1           0       -3.075852   -2.816473   -0.513935
     24          1           0        3.986757   -1.589823    0.038516
     25          1           0        5.603243    0.307104    0.231888
     26          1           0        4.718548    2.654567    0.424008
     27          1           0        2.254234    3.035861    0.404238
     28          1           0       -1.709614    2.311458    0.333536
     29          1           0       -3.341990    1.858155   -0.111631
 ---------------------------------------------------------------------

 SCF Done:  E(UB3LYP) =  -1243.25407516     a.u. after    1 cycles
 SCF Done:  E(UB3LYP) =  -1243.25407516     A.U. after    2 cycles

 Alpha  occ. eigenvalues -- -101.30120 -18.79482 -18.78479 -14.06141  -9.97964
 Alpha  occ. eigenvalues --   -9.96723  -9.96369  -9.95287  -9.95089  -9.93764
 Alpha  occ. eigenvalues --   -9.93569  -9.93178  -9.93122  -9.92770  -9.92717
 Alpha  occ. eigenvalues --   -9.92454  -9.92275  -9.91289  -9.91135  -9.21569
 Alpha  occ. eigenvalues --   -6.97997  -6.97099  -6.97016  -0.71461  -0.70891
 Alpha  occ. eigenvalues --   -0.66573  -0.62401  -0.60503  -0.57240  -0.54547
 Alpha  occ. eigenvalues --   -0.50925  -0.50260  -0.47620  -0.45728  -0.40972
 Alpha  occ. eigenvalues --   -0.38449  -0.37081  -0.33153  -0.30679  -0.30039
 Alpha  occ. eigenvalues --   -0.27099  -0.26198  -0.23070  -0.21810  -0.21445
 Alpha  occ. eigenvalues --   -0.20986  -0.19791  -0.19472  -0.18551  -0.17830
 Alpha  occ. eigenvalues --   -0.15827  -0.15559  -0.14661  -0.13735  -0.12976
 Alpha  occ. eigenvalues --   -0.12825  -0.12109  -0.11007  -0.10147  -0.08649
 Alpha  occ. eigenvalues --   -0.08249  -0.07795  -0.06476  -0.04832  -0.00663
 Alpha  occ. eigenvalues --    0.00450   0.00704   0.02321   0.03666   0.04361
 Alpha  occ. eigenvalues --    0.12555
 Alpha virt. eigenvalues --    0.14257   0.15741   0.16964   0.17542   0.18668
 Alpha virt. eigenvalues --    0.19129   0.19929   0.20226   0.20733   0.21834
 Alpha virt. eigenvalues --    0.21982   0.22223   0.23836   0.23944   0.24839

  Beta  occ. eigenvalues -- -101.30120 -18.79482 -18.78479 -14.06141  -9.97964
  Beta  occ. eigenvalues --   -9.96723  -9.96369  -9.95287  -9.95089  -9.93764
  Beta  occ. eigenvalues --   -9.93569  -9.93178  -9.93122  -9.92770  -9.92717
  Beta  occ. eigenvalues --   -9.92454  -9.92275  -9.91289  -9.91135  -9.21569
  Beta  occ. eigenvalues --   -6.97997  -6.97099  -6.97016  -0.71461  -0.70891
  Beta  occ. eigenvalues --   -0.66573  -0.62401  -0.60503  -0.57240  -0.54547
  Beta  occ. eigenvalues --   -0.50925  -0.50260  -0.47620  -0.45728  -0.40972
  Beta  occ. eigenvalues --   -0.38449  -0.37081  -0.33153  -0.30679  -0.30039
  Beta  occ. eigenvalues --   -0.27099  -0.26198  -0.23070  -0.21810  -0.21445
  Beta  occ. eigenvalues --   -0.20986  -0.19791  -0.19472  -0.18551  -0.17830
  Beta  occ. eigenvalues --   -0.15827  -0.15559  -0.14661  -0.13735  -0.12976
  Beta  occ. eigenvalues --   -0.12825  -0.12109  -0.11007  -0.10147  -0.08649
  Beta  occ. eigenvalues --   -0.08249  -0.07795  -0.06476  -0.04832  -0.00663
  Beta  occ. eigenvalues --    0.00450   0.00704   0.02321   0.03666   0.04361
  Beta  occ. eigenvalues --    0.12555
  Beta virt. eigenvalues --    0.14257   0.15741   0.16964   0.17542   0.18668
  Beta virt. eigenvalues --    0.19129   0.19929   0.20226   0.20733   0.21834
  Beta virt. eigenvalues --    0.21982   0.22223   0.23836   0.23944   0.24839

 Mulliken charges and spin densities:
               1          2
     1  C    0.444533   0.000000
     2  C   -0.528640  -0.000000
     3  C   -0.588006  -0.000000
     4  C    1.169229  -0.000000
     5  Cl   0.290944  -0.000000
     6  C    0.368534   0.000000
     7  C   -1.708661  -0.000000
     8  O   -0.368123   0.000000
     9  C    0.198540   0.000000
    10  C    0.099335   0.000000
    11  C   -0.391527   0.000000
    12  C   -0.541089   0.000000
    13  C    0.063302  -0.000000
    14  C    0.012460   0.000000
    15  C   -0.678926  -0.000000
    16  O   -0.493347   0.000000
    17  C    0.240356  -0.000000
    18  C   -0.007413   0.000000
    19  N   -0.409330  -0.000000
    20  H    0.115220  -0.000000
    21  H   -0.188925  -0.000000
    22  H   -0.107465  -0.000000
    23  H    0.095235  -0.000000
    24  H    0.131991  -0.000000
    25  H    0.078628   0.000000
    26  H    0.076472  -0.000000
    27  H    0.132844   0.000000
    28  H    0.314590   0.000000
    29  H    0.179239  -0.000000
 Sum of Mulliken charges =  -2.00000   0.00000

 Dipole moment (field-independent basis, Debye):
    X=             -2.7475    Y=              4.2417    Z=             -0.0729  Tot=              5.0543
 Quadrupole moment (field-independent basis, Debye-Ang):
   XX=           -198.6796   YY=           -187.7278   ZZ=           -135.8605
   XY=              1.0722   XZ=             -4.9381   YZ=             -7.8241

  Exact polarizability:2537.210  97.615 429.505 350.404   2.912 246.225
 Approx polarizability:2986.781  37.328 624.990 464.027  28.337 337.224

                      1                      2                      3
                      A                      A                      A
 Frequencies --     27.1287                45.4750                91.8195
 Red. masses --     12.1965                 5.5964                 3.3120
 Frc consts  --      0.0053                 0.0068                 0.0165
 IR Inten    --      3.0106                 1.7223                 5.2626

                      4                      5                      6
                      A                      A                      A
 Frequencies --    128.6041               147.8063               170.8598
 Red. masses --      4.0069                 5.1656                 1.2869
 Frc consts  --      0.0390                 0.0665                 0.0221
 IR Inten    --      4.9689                 9.4170               461.1259

                      7                      8                      9
                      A                      A                      A
 Frequencies --    178.7190               182.1579               238.2149
 Red. masses --      6.5737                 5.1500                 4.5613
 Frc consts  --      0.1237                 0.1007                 0.1525
 IR Inten    --      7.6161                 2.2239                 3.8579

                     10                     11                     12
                      A                      A                      A
 Frequencies --    276.9779               289.4894               319.2109
 Red. masses --      4.5577                 4.8907                 5.8718
 Frc consts  --      0.2060                 0.2415                 0.3525
 IR Inten    --     30.3021                96.4704               318.4953

                     13                     14                     15
                      A                      A                      A
 Frequencies --    325.2506               352.4424               369.6005
 Red. masses --      7.3255                 6.1451                 5.6842
 Frc consts  --      0.4566                 0.4497                 0.4575
 IR Inten    --      5.0796                17.2860               216.5909

                     16                     17                     18
                      A                      A                      A
 Frequencies --    383.8922               391.9616               419.6469
 Red. masses --      5.3341                 6.6835                 4.2439
 Frc consts  --      0.4632                 0.6050                 0.4403
 IR Inten    --    108.0869                33.2564                43.7979

                     19                     20                     21
                      A                      A                      A
 Frequencies --    439.7272               454.4955               483.4946
 Red. masses --      2.7485                 1.9796                10.5090
 Frc consts  --      0.3131                 0.2409                 1.4474
 IR Inten    --     87.6570               147.1574              1296.4063

                     22                     23                     24
                      A                      A                      A
 Frequencies --    497.4412               503.8989               573.8243
 Red. masses --      4.9185                 3.9562                 5.9858
 Frc consts  --      0.7171                 0.5919                 1.1613
 IR Inten    --      9.2805               104.1313               151.9741

                     25                     26                     27
                      A                      A                      A
 Frequencies --    578.0230               626.4279               643.9896
 Red. masses --      4.9942                 4.7782                 4.8419
 Frc consts  --      0.9831                 1.1047                 1.1831
 IR Inten    --     44.2506                 0.8575                 3.5378

                     28                     29                     30
                      A                      A                      A
 Frequencies --    667.4479               697.5184               716.8790
 Red. masses --      5.1779                 2.1490                 6.4295
 Frc consts  --      1.3591                 0.6160                 1.9468
 IR Inten    --     74.2606                59.7092                62.1894

                     31                     32                     33
                      A                      A                      A
 Frequencies --    725.2683               759.8602               780.5060
 Red. masses --      3.3675                 3.2305                 1.9227
 Frc consts  --      1.0437                 1.0990                 0.6901
 IR Inten    --     23.6473                37.2224                 4.1566

                     34                     35                     36
                      A                      A                      A
 Frequencies --    787.9948               790.8183               820.0293
 Red. masses --      5.0227                 1.5096                 4.4719
 Frc consts  --      1.8375                 0.5562                 1.7718
 IR Inten    --    179.9234               108.0336                68.0090

                     37                     38                     39
                      A                      A                      A
 Frequencies --    822.4718               901.6553               915.1597
 Red. masses --      3.6876                 3.8896                 1.7255
 Frc consts  --      1.4697                 1.8631                 0.8515
 IR Inten    --     22.4175                86.6863                60.0278

                     40                     41                     42
                      A                      A                      A
 Frequencies --    956.0041               964.5028               978.2342
 Red. masses --      1.2462                 1.3382                 1.9303
 Frc consts  --      0.6711                 0.7335                 1.0883
 IR Inten    --      0.7382                 5.9913               263.5254

                     43                     44                     45
                      A                      A                      A
 Frequencies --   1005.0750              1021.1714              1037.8434
 Red. masses --      3.2261                 2.1422                 1.9452
 Frc consts  --      1.9201                 1.3161                 1.2345
 IR Inten    --    302.5040               364.3007               678.9716

                     46                     47                     48
                      A                      A                      A
 Frequencies --   1040.3390              1097.5059              1123.8682
 Red. masses --      1.8817                 1.9912                 1.4252
 Frc consts  --      1.1999                 1.4131                 1.0606
 IR Inten    --    322.2727                39.7187               110.6879

                     49                     50                     51
                      A                      A                      A
 Frequencies --   1165.6435              1187.8905              1203.2147
 Red. masses --      3.3374                 1.9453                 2.5895
 Frc consts  --      2.6717                 1.6173                 2.2088
 IR Inten    --    915.6757               767.5227               119.1944

                     52                     53                     54
                      A                      A                      A
 Frequencies --   1221.8573              1243.5847              1255.7663
 Red. masses --      2.9086                 2.0270                 5.0889
 Frc consts  --      2.5584                 1.8469                 4.7281
 IR Inten    --   1191.6886               173.1963                42.9302

                     55                     56                     57
                      A                      A                      A
 Frequencies --   1266.3684              1341.9919              1351.2247
 Red. masses --      3.0580                 2.3696                 4.3853
 Frc consts  --      2.8894                 2.5143                 4.7174
 IR Inten    --   1803.9342               146.3255               845.4317

                     58                     59                     60
                      A                      A                      A
 Frequencies --   1371.8827              1389.3334              1414.5029
 Red. masses --      2.9731                 1.5903                 3.1264
 Frc consts  --      3.2968                 1.8085                 3.6855
 IR Inten    --    373.1328               517.2049               921.7933

                     61                     62                     63
                      A                      A                      A
 Frequencies --   1430.6700              1462.5609              1467.5385
 Red. masses --      4.5622                 2.4811                 5.1940
 Frc consts  --      5.5017                 3.1270                 6.5907
 IR Inten    --   1574.0905               487.6086               152.7945

                     64                     65                     66
                      A                      A                      A
 Frequencies --   1469.1846              1485.6556              1492.4412
 Red. masses --      1.1167                 1.3433                 4.6373
 Frc consts  --      1.4201                 1.7469                 6.0857
 IR Inten    --    828.4155               666.2256              1397.2125

                     67                     68                     69
                      A                      A                      A
 Frequencies --   1523.2569              1553.5981              1577.9053
 Red. masses --      3.2194                 4.3732                 3.1919
 Frc consts  --      4.4013                 6.2191                 4.6823
 IR Inten    --    474.5664              4214.7945               435.5663

                     70                     71                     72
                      A                      A                      A
 Frequencies --   1590.9705              1610.3575              2865.5856
 Red. masses --      5.4234                 1.6931                 1.0694
 Frc consts  --      8.0882                 2.5869                 5.1738
 IR Inten    --    504.6456               106.1710               674.4733

                     73                     74                     75
                      A                      A                      A
 Frequencies --   2983.0419              3016.2601              3052.9447
 Red. masses --      1.0673                 1.0766                 1.0946
 Frc consts  --      5.5958                 5.7711                 6.0110
 IR Inten    --   2969.2792               698.2836                53.4773

                     76                     77                     78
                      A                      A                      A
 Frequencies --   3091.9307              3115.9516              3151.7133
 Red. masses --      1.0828                 1.0909                 1.0893
 Frc consts  --      6.0990                 6.2404                 6.3752
 IR Inten    --     41.9665               404.9602                90.9908

                     79                     80                     81
                      A                      A                      A
 Frequencies --   3162.3250              3167.9896              3549.0726
 Red. masses --      1.0905                 1.0908                 1.0784
 Frc consts  --      6.4251                 6.4501                 8.0030
 IR Inten    --    110.4504               166.5114               507.6575

 - Thermochemistry -
 -------------------
 Temperature   298.150 Kelvin.  Pressure   1.00000 Atm.
 Atom     1 has atomic number  6 and mass  12.00000

 Molecular mass:   271.04001 amu.
 Principal axes and moments of inertia in atomic units:
                           1         2         3
     Eigenvalues --  3475.858036097.754739541.65024
           X            0.91561  -0.40144  -0.02260
           Y            0.39414   0.90723  -0.14692
           Z            0.07948   0.12562   0.98889
 This molecule is an asymmetric top.
 Rotational symmetry number  1.
 Warning -- assumption of classical behavior for rotation
           may cause significant error
 Rotational temperatures (Kelvin)      0.02492     0.01420     0.00908
 Rotational constants (GHZ):           0.51922     0.29597     0.18914
 Zero-point vibrational energy     544210.8 (Joules/Mol)
                                  130.06951 (Kcal/Mol)
 Warning -- explicit consideration of  25 degrees of freedom as
           vibrations may cause significant error
 Vibrational temperatures:     39.03    65.43   132.11   185.03   212.66
          (Kelvin)            245.83   257.14   262.08   342.74   398.51
                              416.51   459.27   467.96   507.09   531.77
                              552.34   563.95   603.78   632.67   653.92
                              695.64   715.71   725.00   825.61   831.65
                              901.29   926.56   960.31  1003.57  1031.43
                             1043.50  1093.27  1122.97  1133.75  1137.81
                             1179.84  1183.35  1297.28  1316.71  1375.48
                             1387.70  1407.46  1446.08  1469.24  1493.23
                             1496.82  1579.07  1617.00  1677.10  1709.11
                             1731.16  1757.98  1789.24  1806.77  1822.02
                             1930.83  1944.11  1973.83  1998.94  2035.15
                             2058.42  2104.30  2111.46  2113.83  2137.53
                             2147.29  2191.63  2235.28  2270.25  2289.05
                             2316.95  4122.94  4291.93  4339.73  4392.51
                             4448.60  4483.16  4534.61  4549.88  4558.03
                             5106.32

 Zero-point correction=                           0.207279 (Hartree/Particle)
 Thermal correction to Energy=                    0.222909
 Thermal correction to Enthalpy=                  0.223853
 Thermal correction to Gibbs Free Energy=         0.164089
 Sum of electronic and zero-point Energies=          -1243.046796
 Sum of electronic and thermal Energies=             -1243.031166
 Sum of electronic and thermal Enthalpies=           -1243.030222
 Sum of electronic and thermal Free Energies=        -1243.089986

                     E (Thermal)             CV                S
                      KCal/Mol        Cal/Mol-Kelvin    Cal/Mol-Kelvin
 Total                  139.878             62.072            125.784
 Electronic               0.000              0.000              0.000
 Translational            0.889              2.981             42.690
 Rotational               0.889              2.981             33.669
 Vibrational            138.100             56.110             49.424
 Vibration     1          0.593              1.984              6.029
 Vibration     2          0.595              1.979              5.005
 Vibration     3          0.602              1.955              3.621
 Vibration     4          0.611              1.925              2.967
 Vibration     5          0.617              1.905              2.700
 Vibration     6          0.626              1.878              2.426
 Vibration     7          0.629              1.868              2.342
 Vibration     8          0.630              1.864              2.306
 Vibration     9          0.656              1.782              1.816
 Vibration    10          0.678              1.716              1.552
 Vibration    11          0.686              1.693              1.477
 Vibration    12          0.705              1.637              1.314
 Vibration    13          0.709              1.625              1.284
 Vibration    14          0.729              1.570              1.155
 Vibration    15          0.742              1.535              1.081
 Vibration    16          0.753              1.505              1.024
 Vibration    17          0.759              1.487              0.993
 Vibration    18          0.782              1.428              0.893
 Vibration    19          0.800              1.384              0.827
 Vibration    20          0.813              1.351              0.782
 Vibration    21          0.840              1.287              0.701
 Vibration    22          0.853              1.256              0.665
 Vibration    23          0.859              1.241              0.648
 Vibration    24          0.930              1.088              0.497
 Vibration    25          0.935              1.079              0.489

 Optimization completed.
    -- Stationary point found.
 Normal termination of Gaussian 16 at Tue Dec 26 09:42:06 2023.
