 Q-Chem 5.4, Q-Chem, Inc., Pleasanton, CA (2021)
 Q-Chem 5.4.0 for Intel X86 EM64T Linux

User input:
--------------------------------------------------------------
$molecule
-2 2
C                 -5.0387930000     -0.0931450000     -3.9542600000
C                 -4.4824440000     -0.0681670000     -5.2224950000
C                 -3.0803140000      0.0018760000     -5.3709760000
C                 -4.2364120000     -0.0501970000     -2.7970930000
C                 -2.8232980000      0.0203240000     -2.9486870000
C                 -2.2733180000      0.0449630000     -4.2476830000
C                 -4.8948320000     -0.0800570000     -1.4653540000
C                 -3.9842070000     -0.0318260000     -0.3319050000
C                 -2.6180270000      0.0361820000     -0.5000110000
C                 -1.9480950000      0.0668200000     -1.7718800000
O                 -6.1410680000     -0.1423170000     -1.3878230000
O                 -0.6856950000      0.1298700000     -1.8854360000
S                 -4.6257680000     -0.0596440000      1.3973980000
O                 -5.4808660000      1.1509990000      1.5383350000
O                 -5.3566950000     -1.3483750000      1.5444010000
O                 -3.3971290000      0.0034420000      2.2489370000
H                 -6.1120720000     -0.1466410000     -3.8055070000
H                 -5.1225920000     -0.1023410000     -6.1012280000
H                 -2.6376810000      0.0218140000     -6.3645800000
H                 -1.1923390000      0.0990260000     -4.3255180000
H                 -1.9962640000      0.0693630000      0.3873150000
$end

$rem
BASIS  =  6-311++G(d,p)
GUI  =  2
JOB_TYPE  =  SP
METHOD  =  B3LYP
SCF_CONVERGENCE  = 8
SOLVENT_METHOD = sm12
$end

$smx
solvent dimethylformamide
charges CM5
$end

--------------------------------------------------------------

             Standard Nuclear Orientation (Angstroms)
    I     Atom           X                Y                Z
 ----------------------------------------------------------------
    1      C      -5.0387930000    -0.0931450000    -3.9542600000
    2      C      -4.4824440000    -0.0681670000    -5.2224950000
    3      C      -3.0803140000     0.0018760000    -5.3709760000
    4      C      -4.2364120000    -0.0501970000    -2.7970930000
    5      C      -2.8232980000     0.0203240000    -2.9486870000
    6      C      -2.2733180000     0.0449630000    -4.2476830000
    7      C      -4.8948320000    -0.0800570000    -1.4653540000
    8      C      -3.9842070000    -0.0318260000    -0.3319050000
    9      C      -2.6180270000     0.0361820000    -0.5000110000
   10      C      -1.9480950000     0.0668200000    -1.7718800000
   11      O      -6.1410680000    -0.1423170000    -1.3878230000
   12      O      -0.6856950000     0.1298700000    -1.8854360000
   13      S      -4.6257680000    -0.0596440000     1.3973980000
   14      O      -5.4808660000     1.1509990000     1.5383350000
   15      O      -5.3566950000    -1.3483750000     1.5444010000
   16      O      -3.3971290000     0.0034420000     2.2489370000
   17      H      -6.1120720000    -0.1466410000    -3.8055070000
   18      H      -5.1225920000    -0.1023410000    -6.1012280000
   19      H      -2.6376810000     0.0218140000    -6.3645800000
   20      H      -1.1923390000     0.0990260000    -4.3255180000
   21      H      -1.9962640000     0.0693630000     0.3873150000
 ----------------------------------------------------------------

   19   -1158.5993192391      6.75e-09  Convergence criterion met
 Total energy in the final basis set =    -1158.8735681363

                    Orbital Energies (a.u.)
 --------------------------------------------------------------

 Alpha MOs
 -- Occupied --
-89.0193 -19.0785 -19.0762 -19.0624 -19.0623 -19.0621 -10.2296 -10.2236
-10.1875 -10.1867 -10.1836 -10.1830 -10.1829 -10.1824 -10.1817 -10.1664
 -8.0777  -6.0404  -6.0403  -6.0396  -1.0777  -1.0036  -0.9967  -0.9425
 -0.9401  -0.8671  -0.8108  -0.7602  -0.7511  -0.6824  -0.6360  -0.6225
 -0.5781  -0.5539  -0.5127  -0.5000  -0.4756  -0.4642  -0.4405  -0.4351
 -0.4273  -0.4199  -0.4187  -0.4162  -0.4063  -0.3914  -0.3778  -0.3623
 -0.3602  -0.3468  -0.3050  -0.3032  -0.2916  -0.2769  -0.2701  -0.2661
 -0.2651  -0.2503  -0.2429  -0.2307  -0.2246  -0.1568

 Beta MOs
 -- Occupied --
-89.0193 -19.0715 -19.0698 -19.0622 -19.0622 -19.0621 -10.2287 -10.2222
-10.1872 -10.1863 -10.1829 -10.1826 -10.1820 -10.1818 -10.1812 -10.1650
 -8.0777  -6.0404  -6.0403  -6.0397  -1.0776  -0.9926  -0.9843  -0.9422
 -0.9401  -0.8653  -0.8054  -0.7586  -0.7490  -0.6732  -0.6342  -0.6199
 -0.5764  -0.5519  -0.5106  -0.4979  -0.4728  -0.4634  -0.4395  -0.4346
 -0.4237  -0.4185  -0.4163  -0.4066  -0.4002  -0.3885  -0.3611  -0.3536
 -0.3494  -0.3451  -0.3049  -0.3028  -0.2803  -0.2745  -0.2647  -0.2598
 -0.2518  -0.2407  -0.2366  -0.2254  -0.2244

          Ground-State Mulliken Net Atomic Charges

     Atom                 Charge (a.u.)    Spin (a.u.)
  --------------------------------------------------------
      1 C                     0.523499       0.018089
      2 C                     2.036828       0.033385
      3 C                     2.158579       0.014130
      4 C                    -0.407072       0.032489
      5 C                    -1.068365       0.053311
      6 C                     1.412032       0.027080
      7 C                    -2.229569       0.049960
      8 C                    -3.217188       0.119865
      9 C                    -1.078679       0.093987
     10 C                    -0.310420       0.066207
     11 O                    -0.250888       0.242996
     12 O                    -0.250216       0.258626
     13 S                     0.320522      -0.003366
     14 O                    -0.324606       0.007550
     15 O                    -0.324510       0.007555
     16 O                    -0.362928      -0.001347
     17 H                     0.146604      -0.002027
     18 H                     0.444005      -0.002482
     19 H                     0.461645      -0.001194
     20 H                     0.203041      -0.003411
     21 H                     0.117686      -0.011405
  --------------------------------------------------------
  Sum of atomic charges =    -2.000000

                    Cartesian Multipole Moments
 -----------------------------------------------------------------
    Charge (ESU x 10^10)
                -9.6064
    Dipole Moment (Debye)
         X      39.0412      Y       0.3304      Z      -1.5305
       Tot      39.0725
    Quadrupole Moments (Debye-Ang)
        XX    -309.7282     XY      -3.0779     YY    -115.7078
        XZ      21.1472     YZ       0.7333     ZZ    -143.5909

 Total job time:  461.81s(wall), 3431.45s(cpu)
        *  Thank you very much for using Q-Chem.  Have a nice day.  *
