 Gaussian 16, Revision A.03,
 Gaussian 16:  ES64L-G16RevA.03 25-Dec-2016

 --------------------------------------
 #P UB3LYP/6-311++G(d,p) nosym opt freq
 --------------------------------------

 --------
 Oxidized
 --------
 Symbolic Z-matrix:
 Charge =  0 Multiplicity = 1

 SCF Done:  E(UB3LYP) =  -5643.21310192     A.U. after   17 cycles
 SCF Done:  E(UB3LYP) =  -5643.22494857     A.U. after   14 cycles
 SCF Done:  E(UB3LYP) =  -5643.22579802     A.U. after   13 cycles
 SCF Done:  E(UB3LYP) =  -5643.22588120     A.U. after   12 cycles
 SCF Done:  E(UB3LYP) =  -5643.22589063     A.U. after   12 cycles
 Optimization completed.
    -- Stationary point found.
 Normal termination of Gaussian 16 at Wed Dec 20 01:35:25 2023.

 ----------------------------------------------------------------------
 #P Geom=AllCheck Guess=TCheck SCRF=Check GenChk UB3LYP/6-311++G(d,p) F
 req
 ----------------------------------------------------------------------

 Structure from the checkpoint file:  "109.chk"
 --------
 Oxidized
 --------
 Charge =  0 Multiplicity = 1

                          Input orientation:
 ---------------------------------------------------------------------
 Center     Atomic      Atomic             Coordinates (Angstroms)
 Number     Number       Type             X           Y           Z
 ---------------------------------------------------------------------
      1          6           0       -1.845913   -3.683247    1.237425
      2          6           0       -0.391612   -3.933593    1.080857
      3          6           0        0.418989   -2.927970    0.696976
      4          6           0       -0.119477   -1.531593    0.417059
      5          6           0       -1.566236   -1.285733    0.573817
      6          6           0       -2.356366   -2.309596    0.959309
      7          8           0       -2.646931   -4.534917    1.580079
      8          8           0        0.644654   -0.652496    0.072720
      9          8           0       -3.679578   -2.169299    1.124520
     10          6           0       -2.108302    0.086536    0.301015
     11         35           0        0.176735   -5.696256    1.450893
     12         35           0        2.275678   -3.130819    0.466953
     13          1           0       -1.304962    0.758372    0.004701
     14          1           0       -2.602621    0.489900    1.189460
     15          1           0       -2.858989    0.054047   -0.493843
     16          1           0       -4.023721   -3.038709    1.402209
 ---------------------------------------------------------------------

 SCF Done:  E(UB3LYP) =  -5643.22589063     A.U. after    1 cycles

 Alpha  occ. eigenvalues -- -482.86110-482.86095 -62.51374 -62.51359 -56.33428
 Alpha  occ. eigenvalues --  -56.33419 -56.33042 -56.33017 -56.32975 -56.32966
 Alpha  occ. eigenvalues --  -19.19540 -19.17179 -19.15091 -10.31900 -10.30576
 Alpha  occ. eigenvalues --  -10.28497 -10.28463 -10.28151 -10.22348 -10.18635
 Alpha  occ. eigenvalues --   -8.72344  -8.72328  -6.55543  -6.55542  -6.54245
 Alpha  occ. eigenvalues --   -6.54197  -6.54047  -6.54047  -2.66634  -2.66626
 Alpha  occ. eigenvalues --   -2.66295  -2.66266  -2.66152  -2.66143  -2.65109
 Alpha  occ. eigenvalues --   -2.65104  -2.65080  -2.65078  -1.12840  -1.08996
 Alpha  occ. eigenvalues --   -1.08660  -0.90997  -0.85227  -0.83078  -0.78166
 Alpha  occ. eigenvalues --   -0.73310  -0.70091  -0.64777  -0.62029  -0.58791
 Alpha  occ. eigenvalues --   -0.54958  -0.50308  -0.49637  -0.48339  -0.46077
 Alpha  occ. eigenvalues --   -0.44968  -0.44820  -0.44181  -0.43784  -0.41007
 Alpha  occ. eigenvalues --   -0.40754  -0.40142  -0.38011  -0.33288  -0.33118
 Alpha  occ. eigenvalues --   -0.32471  -0.30928  -0.29581  -0.29376  -0.26943
 Alpha virt. eigenvalues --   -0.15162  -0.05814  -0.04219  -0.01723  -0.01676
 Alpha virt. eigenvalues --   -0.00912   0.00604   0.00788   0.02530   0.03189
 Alpha virt. eigenvalues --    0.03647   0.04129   0.04273   0.05893   0.05939

  Beta  occ. eigenvalues -- -482.86110-482.86095 -62.51374 -62.51359 -56.33428
  Beta  occ. eigenvalues --  -56.33419 -56.33042 -56.33017 -56.32975 -56.32966
  Beta  occ. eigenvalues --  -19.19540 -19.17179 -19.15091 -10.31900 -10.30576
  Beta  occ. eigenvalues --  -10.28497 -10.28463 -10.28151 -10.22348 -10.18635
  Beta  occ. eigenvalues --   -8.72344  -8.72328  -6.55543  -6.55542  -6.54245
  Beta  occ. eigenvalues --   -6.54197  -6.54047  -6.54047  -2.66634  -2.66626
  Beta  occ. eigenvalues --   -2.66295  -2.66266  -2.66152  -2.66143  -2.65109
  Beta  occ. eigenvalues --   -2.65104  -2.65080  -2.65078  -1.12840  -1.08996
  Beta  occ. eigenvalues --   -1.08660  -0.90997  -0.85227  -0.83078  -0.78166
  Beta  occ. eigenvalues --   -0.73310  -0.70091  -0.64777  -0.62029  -0.58791
  Beta  occ. eigenvalues --   -0.54958  -0.50308  -0.49637  -0.48339  -0.46077
  Beta  occ. eigenvalues --   -0.44968  -0.44820  -0.44181  -0.43784  -0.41007
  Beta  occ. eigenvalues --   -0.40754  -0.40142  -0.38011  -0.33288  -0.33118
  Beta  occ. eigenvalues --   -0.32471  -0.30928  -0.29581  -0.29376  -0.26943
  Beta virt. eigenvalues --   -0.15162  -0.05814  -0.04219  -0.01723  -0.01676
  Beta virt. eigenvalues --   -0.00912   0.00604   0.00788   0.02530   0.03189
  Beta virt. eigenvalues --    0.03647   0.04129   0.04273   0.05893   0.05939

 Mulliken charges and spin densities:
               1          2
     1  C   -0.555825   0.000000
     2  C    0.612822  -0.000000
     3  C    0.016064   0.000000
     4  C   -1.388125  -0.000000
     5  C    1.397354  -0.000000
     6  C   -0.103347   0.000000
     7  O   -0.218233  -0.000000
     8  O   -0.164861   0.000000
     9  O   -0.200298  -0.000000
    10  C   -0.241064  -0.000000
    11  Br  -0.005854  -0.000000
    12  Br  -0.010236   0.000000
    13  H    0.206144  -0.000000
    14  H    0.183540  -0.000000
    15  H    0.183545  -0.000000
    16  H    0.288375   0.000000
 Sum of Mulliken charges =  -0.00000   0.00000

 Dipole moment (field-independent basis, Debye):
    X=             -1.0748    Y=             -0.0792    Z=              0.1847  Tot=              1.0934
 Quadrupole moment (field-independent basis, Debye-Ang):
   XX=            -91.8417   YY=            -96.5889   ZZ=            -92.9802
   XY=             -3.4246   XZ=              0.7929   YZ=              1.5945

  Exact polarizability: 162.634   8.429 161.669 -15.882 -24.339  81.393
 Approx polarizability: 282.877  71.225 278.987 -44.039 -53.371 135.374

 ******    1 imaginary frequencies (negative Signs) ******

                      1                      2                      3
                      A                      A                      A
 Frequencies --    -68.9101                50.1798                61.9372
 Red. masses --      1.0172                17.5558                 7.4918
 Frc consts  --      0.0028                 0.0260                 0.0169
 IR Inten    --      0.0060                 0.7835                 2.1970

                      4                      5                      6
                      A                      A                      A
 Frequencies --    117.0758               131.0281               176.7246
 Red. masses --      6.4197                54.9581                 8.1749
 Frc consts  --      0.0518                 0.5559                 0.1504
 IR Inten    --      0.1341                 0.1372                 1.1184

                      7                      8                      9
                      A                      A                      A
 Frequencies --    179.1365               255.3733               270.3851
 Red. masses --     12.8741                 7.0072                 7.6026
 Frc consts  --      0.2434                 0.2692                 0.3275
 IR Inten    --      0.2906                 0.0045                 3.2525

                     10                     11                     12
                      A                      A                      A
 Frequencies --    296.7180               302.2791               359.2028
 Red. masses --      5.2308                 5.9092                 7.0235
 Frc consts  --      0.2713                 0.3181                 0.5339
 IR Inten    --      3.8928                 0.1483                 9.4799

                     13                     14                     15
                      A                      A                      A
 Frequencies --    422.5536               426.3520               498.0389
 Red. masses --      9.5777                11.0766                11.4673
 Frc consts  --      1.0076                 1.1863                 1.6759
 IR Inten    --     24.4089                 1.0632                10.7879

                     16                     17                     18
                      A                      A                      A
 Frequencies --    531.6546               553.5729               631.1794
 Red. masses --      9.3402                 6.7311                 1.1131
 Frc consts  --      1.5555                 1.2153                 0.2613
 IR Inten    --      3.8103                12.8193                81.7153

                     19                     20                     21
                      A                      A                      A
 Frequencies --    721.0877               726.7759               737.7949
 Red. masses --      9.8093                 6.3371                 8.8522
 Frc consts  --      3.0051                 1.9721                 2.8390
 IR Inten    --      4.4434                16.9375                20.5038

                     22                     23                     24
                      A                      A                      A
 Frequencies --    772.4795               831.0994               935.6903
 Red. masses --      8.8673                 8.8023                 2.9732
 Frc consts  --      3.1176                 3.5822                 1.5337
 IR Inten    --     55.8223                35.3854                22.6404

                     25                     26                     27
                      A                      A                      A
 Frequencies --   1036.4820              1047.6625              1103.4700
 Red. masses --      3.6287                 1.4300                 3.0412
 Frc consts  --      2.2968                 0.9247                 2.1818
 IR Inten    --     13.9015                 0.0112               150.0530

                     28                     29                     30
                      A                      A                      A
 Frequencies --   1203.6802              1280.6523              1303.0501
 Red. masses --      9.2250                 3.0344                 4.2172
 Frc consts  --      7.8748                 2.9321                 4.2189
 IR Inten    --    309.9902                 1.8246               111.0516

                     31                     32                     33
                      A                      A                      A
 Frequencies --   1377.3744              1412.4420              1485.8113
 Red. masses --      2.0955                 1.3045                 1.0891
 Frc consts  --      2.3423                 1.5334                 1.4166
 IR Inten    --    307.6847                31.9054                36.4982

                     34                     35                     36
                      A                      A                      A
 Frequencies --   1488.0320              1586.7986              1703.9097
 Red. masses --      1.0426                11.5748                10.1645
 Frc consts  --      1.3601                17.1714                17.3872
 IR Inten    --     10.0563               158.2663                10.6843

                     37                     38                     39
                      A                      A                      A
 Frequencies --   1716.4700              1726.8392              3034.5585
 Red. masses --     12.3707                 9.6401                 1.0386
 Frc consts  --     21.4743                16.9369                 5.6349
 IR Inten    --    484.9708                13.9715                11.8057

                     40                     41                     42
                      A                      A                      A
 Frequencies --   3081.0725              3143.9465              3635.8213
 Red. masses --      1.0999                 1.0989                 1.0644
 Frc consts  --      6.1517                 6.3998                 8.2899
 IR Inten    --      8.8998                 2.6901               125.2403

 - Thermochemistry -
 -------------------
 Temperature   298.150 Kelvin.  Pressure   1.00000 Atm.
 Atom     1 has atomic number  6 and mass  12.00000

 Molecular mass:   293.85272 amu.
 Principal axes and moments of inertia in atomic units:
                           1         2         3
     Eigenvalues --  3006.289013928.735206923.90611
           X            0.76566   0.62650   0.14581
           Y           -0.64133   0.72605   0.24809
           Z            0.04956  -0.28346   0.95770
 This molecule is an asymmetric top.
 Rotational symmetry number  1.
 Warning -- assumption of classical behavior for rotation
           may cause significant error
 Rotational temperatures (Kelvin)      0.02881     0.02205     0.01251
 Rotational constants (GHZ):           0.60032     0.45937     0.26065
    1 imaginary frequencies ignored.
 Zero-point vibrational energy     253347.5 (Joules/Mol)
                                   60.55150 (Kcal/Mol)
 Warning -- explicit consideration of  16 degrees of freedom as
           vibrations may cause significant error
 Vibrational temperatures:     72.20    89.11   168.45   188.52   254.27
          (Kelvin)            257.74   367.43   389.02   426.91   434.91
                              516.81   607.96   613.43   716.57   764.93
                              796.47   908.13  1037.48  1045.67  1061.52
                             1111.43  1195.77  1346.25  1491.27  1507.35
                             1587.65  1731.83  1842.57  1874.80  1981.73
                             2032.19  2137.75  2140.95  2283.05  2451.55
                             2469.62  2484.54  4366.05  4432.98  4523.44
                             5231.14

 Zero-point correction=                           0.096495 (Hartree/Particle)
 Thermal correction to Energy=                    0.107676
 Thermal correction to Enthalpy=                  0.108620
 Thermal correction to Gibbs Free Energy=         0.057006
 Sum of electronic and zero-point Energies=          -5643.129396
 Sum of electronic and thermal Energies=             -5643.118215
 Sum of electronic and thermal Enthalpies=           -5643.117271
 Sum of electronic and thermal Free Energies=        -5643.168885

                     E (Thermal)             CV                S
                      KCal/Mol        Cal/Mol-Kelvin    Cal/Mol-Kelvin
 Total                   67.568             39.322            108.631
 Electronic               0.000              0.000              0.000
 Translational            0.889              2.981             42.931
 Rotational               0.889              2.981             32.769
 Vibrational             65.790             33.361             32.931
 Vibration     1          0.595              1.978              4.810
 Vibration     2          0.597              1.972              4.394
 Vibration     3          0.608              1.935              3.148
 Vibration     4          0.612              1.922              2.931
 Vibration     5          0.628              1.871              2.363
 Vibration     6          0.629              1.868              2.337
 Vibration     7          0.666              1.754              1.693
 Vibration     8          0.674              1.728              1.594
 Vibration     9          0.690              1.680              1.435
 Vibration    10          0.694              1.669              1.404
 Vibration    11          0.734              1.556              1.126
 Vibration    12          0.785              1.421              0.883
 Vibration    13          0.788              1.413              0.871
 Vibration    14          0.854              1.254              0.663
 Vibration    15          0.887              1.180              0.584
 Vibration    16          0.909              1.132              0.537

 Optimization completed.
    -- Stationary point found.
 Normal termination of Gaussian 16 at Wed Dec 20 01:51:33 2023.
