 Q-Chem 5.4, Q-Chem, Inc., Pleasanton, CA (2021)
 Q-Chem 5.4.0 for Intel X86 EM64T Linux

User input:
--------------------------------------------------------------
$molecule
-2 1
C                  3.2747680000     -0.2589260000     -0.0971430000
C                  1.7747490000     -0.3856300000     -0.1446260000
C                  0.9824080000      0.7772110000      0.1175080000
O                  1.5133120000      1.9282830000      0.3769920000
C                 -0.4607950000      0.5728020000      0.0715690000
C                 -1.3304280000      1.6541820000      0.3196480000
C                 -2.7118780000      1.5289050000      0.2904290000
C                 -3.2871480000      0.2593910000     -0.0031280000
C                 -2.4725350000     -0.8259650000     -0.2538010000
C                 -1.0512130000     -0.7289730000     -0.2303950000
C                 -0.2288430000     -1.8570700000     -0.4913850000
O                 -0.6257600000     -3.0889240000     -0.7747880000
C                  1.1653670000     -1.6147480000     -0.4341840000
O                  1.9095080000     -2.7559310000     -0.6975720000
H                  3.7503960000     -1.2323220000      0.0608660000
H                  3.5604870000      0.4371010000      0.6999290000
H                  3.6885580000      0.1647710000     -1.0288090000
H                 -0.8576910000      2.6079350000      0.5391610000
H                 -3.3499620000      2.3889980000      0.4888900000
H                 -4.3711410000      0.1457190000     -0.0302380000
H                 -2.8931730000     -1.8020070000     -0.4800190000
H                  1.1485730000     -3.3848760000     -0.8383270000
$end

$rem
BASIS  =  6-311++G(d,p)
GUI  =  2
JOB_TYPE  =  SP
METHOD  =  B3LYP
SCF_CONVERGENCE  = 8
SOLVENT_METHOD = sm12
$end

$smx
solvent dimethylformamide
charges CM5
$end

--------------------------------------------------------------

             Standard Nuclear Orientation (Angstroms)
    I     Atom           X                Y                Z
 ----------------------------------------------------------------
    1      C       3.2747680000    -0.2589260000    -0.0971430000
    2      C       1.7747490000    -0.3856300000    -0.1446260000
    3      C       0.9824080000     0.7772110000     0.1175080000
    4      O       1.5133120000     1.9282830000     0.3769920000
    5      C      -0.4607950000     0.5728020000     0.0715690000
    6      C      -1.3304280000     1.6541820000     0.3196480000
    7      C      -2.7118780000     1.5289050000     0.2904290000
    8      C      -3.2871480000     0.2593910000    -0.0031280000
    9      C      -2.4725350000    -0.8259650000    -0.2538010000
   10      C      -1.0512130000    -0.7289730000    -0.2303950000
   11      C      -0.2288430000    -1.8570700000    -0.4913850000
   12      O      -0.6257600000    -3.0889240000    -0.7747880000
   13      C       1.1653670000    -1.6147480000    -0.4341840000
   14      O       1.9095080000    -2.7559310000    -0.6975720000
   15      H       3.7503960000    -1.2323220000     0.0608660000
   16      H       3.5604870000     0.4371010000     0.6999290000
   17      H       3.6885580000     0.1647710000    -1.0288090000
   18      H      -0.8576910000     2.6079350000     0.5391610000
   19      H      -3.3499620000     2.3889980000     0.4888900000
   20      H      -4.3711410000     0.1457190000    -0.0302380000
   21      H      -2.8931730000    -1.8020070000    -0.4800190000
   22      H       1.1485730000    -3.3848760000    -0.8383270000
 ----------------------------------------------------------------

   17    -649.8196809185      9.27e-09  Convergence criterion met
 Total energy in the final basis set =     -650.1067995002

                    Orbital Energies (a.u.)
 --------------------------------------------------------------

 Alpha MOs
 -- Occupied --
-19.1194 -19.0334 -19.0284 -10.1931 -10.1880 -10.1747 -10.1746 -10.1696
-10.1687 -10.1687 -10.1644 -10.1555 -10.1518 -10.1447  -1.0297  -0.9413
 -0.9273  -0.8416  -0.7872  -0.7423  -0.7418  -0.6828  -0.6473  -0.6006
 -0.5821  -0.5501  -0.5179  -0.4877  -0.4592  -0.4454  -0.4401  -0.4216
 -0.4193  -0.3965  -0.3864  -0.3849  -0.3714  -0.3632  -0.3603  -0.3541
 -0.3286  -0.3232  -0.3144  -0.3029  -0.2478  -0.2346  -0.2194  -0.2062
 -0.2031  -0.1233

          Ground-State Mulliken Net Atomic Charges

     Atom                 Charge (a.u.)
  ----------------------------------------
      1 C                     1.042337
      2 C                     1.126480
      3 C                    -1.927057
      4 O                    -0.341144
      5 C                    -1.800357
      6 C                    -0.352611
      7 C                     1.319344
      8 C                     1.476406
      9 C                    -0.176518
     10 C                    -0.963598
     11 C                    -2.018293
     12 O                    -0.416755
     13 C                    -0.701659
     14 O                    -0.112497
     15 H                     0.223113
     16 H                     0.180356
     17 H                     0.130885
     18 H                     0.088481
     19 H                     0.382906
     20 H                     0.405611
     21 H                     0.115937
     22 H                     0.318633
  ----------------------------------------
  Sum of atomic charges =    -2.000000

                    Cartesian Multipole Moments
 -----------------------------------------------------------------
    Charge (ESU x 10^10)
                -9.6064
    Dipole Moment (Debye)
         X      -1.6613      Y       4.0124      Z       1.5741
       Tot       4.6192
    Quadrupole Moments (Debye-Ang)
        XX    -124.5370     XY      -6.6442     YY    -139.4966
        XZ      -1.1868     YZ     -10.6110     ZZ     -97.1443

 Total job time:  434.69s(wall), 2653.11s(cpu)
        *  Thank you very much for using Q-Chem.  Have a nice day.  *
