 Q-Chem 5.4, Q-Chem, Inc., Pleasanton, CA (2021)
 Q-Chem 5.4.0 for Intel X86 EM64T Linux

User input:
--------------------------------------------------------------
$molecule
-2 1
C                  4.8792300000     -2.8690370000     -0.3502620000
C                  5.6030330000     -1.9804810000     -1.1144070000
C                  4.9994740000     -0.7586480000     -1.5411480000
C                  3.5349210000     -2.6147490000      0.0364930000
C                  2.9207680000     -1.3714430000     -0.3977320000
C                  3.6986090000     -0.4789280000     -1.1850300000
C                  2.8218730000     -3.5639400000      0.8292780000
C                  1.4713040000     -3.2307260000      1.1765360000
C                  0.8609100000     -1.9950210000      0.7449150000
C                  1.5757950000     -1.0412020000     -0.0517600000
C                  0.6984860000     -4.1488040000      1.9766550000
C                 -0.6014200000     -3.8442120000      2.3197190000
C                 -0.5019610000     -1.7184880000      1.1277740000
C                 -1.2038960000     -2.6245400000      1.8937030000
O                  3.3709750000     -4.6952820000      1.2288150000
O                  1.0097020000      0.0856710000     -0.4404660000
O                  1.2750710000     -5.3162890000      2.3843390000
H                  5.3133360000     -3.8048540000     -0.0124250000
H                  6.6309070000     -2.2063340000     -1.3931460000
H                  5.5672030000     -0.0529310000     -2.1452040000
H                  3.2155000000      0.4421830000     -1.4956550000
H                  2.2313580000     -5.2596320000      1.9794850000
O                 -1.0783780000     -0.5511130000      0.7199340000
H                 -2.2295510000     -2.3908880000      2.1680260000
H                 -1.1610020000     -4.5541910000      2.9235500000
H                 -0.3199570000     -0.0931110000      0.1745750000
$end
$rem
MAX_SCF_CYCLES=200
BASIS  =  6-311++G(d,p)
GUI  =  2
JOB_TYPE  =  SP
METHOD  =  B3LYP
SOLVENT_METHOD = PCM
$end
$pcm
theory = CPCM
$end
$solvent
dielectric 37.219
opticaldielectric 1.43
$end

--------------------------------------------------------------

             Standard Nuclear Orientation (Angstroms)
    I     Atom           X                Y                Z
 ----------------------------------------------------------------
    1      C       4.8792300000    -2.8690370000    -0.3502620000
    2      C       5.6030330000    -1.9804810000    -1.1144070000
    3      C       4.9994740000    -0.7586480000    -1.5411480000
    4      C       3.5349210000    -2.6147490000     0.0364930000
    5      C       2.9207680000    -1.3714430000    -0.3977320000
    6      C       3.6986090000    -0.4789280000    -1.1850300000
    7      C       2.8218730000    -3.5639400000     0.8292780000
    8      C       1.4713040000    -3.2307260000     1.1765360000
    9      C       0.8609100000    -1.9950210000     0.7449150000
   10      C       1.5757950000    -1.0412020000    -0.0517600000
   11      C       0.6984860000    -4.1488040000     1.9766550000
   12      C      -0.6014200000    -3.8442120000     2.3197190000
   13      C      -0.5019610000    -1.7184880000     1.1277740000
   14      C      -1.2038960000    -2.6245400000     1.8937030000
   15      O       3.3709750000    -4.6952820000     1.2288150000
   16      O       1.0097020000     0.0856710000    -0.4404660000
   17      O       1.2750710000    -5.3162890000     2.3843390000
   18      H       5.3133360000    -3.8048540000    -0.0124250000
   19      H       6.6309070000    -2.2063340000    -1.3931460000
   20      H       5.5672030000    -0.0529310000    -2.1452040000
   21      H       3.2155000000     0.4421830000    -1.4956550000
   22      H       2.2313580000    -5.2596320000     1.9794850000
   23      O      -1.0783780000    -0.5511130000     0.7199340000
   24      H      -2.2295510000    -2.3908880000     2.1680260000
   25      H      -1.1610020000    -4.5541910000     2.9235500000
   26      H      -0.3199570000    -0.0931110000     0.1745750000
 ----------------------------------------------------------------

    9    -839.7301380218      2.04e-06  Convergence criterion met
 Total energy in the final basis set =     -839.7301380218

                    Orbital Energies (a.u.)
 --------------------------------------------------------------

 Alpha MOs
 -- Occupied --
-19.0992 -19.0992 -19.0485 -19.0485 -10.2014 -10.2014 -10.1906 -10.1905
-10.1556 -10.1552 -10.1538 -10.1538 -10.1511 -10.1507 -10.1483 -10.1480
-10.1412 -10.1407  -1.0179  -1.0163  -0.9543  -0.9519  -0.8362  -0.8159
 -0.7616  -0.7337  -0.7148  -0.7054  -0.6509  -0.6127  -0.6079  -0.5631
 -0.5486  -0.5183  -0.4991  -0.4908  -0.4771  -0.4467  -0.4413  -0.4328
 -0.4070  -0.4069  -0.3951  -0.3915  -0.3883  -0.3780  -0.3733  -0.3703
 -0.3672  -0.3452  -0.3302  -0.3290  -0.3286  -0.3202  -0.3110  -0.2785
 -0.2394  -0.2393  -0.2316  -0.2233  -0.2198  -0.1889  -0.1207

          Ground-State Mulliken Net Atomic Charges

     Atom                 Charge (a.u.)
  ----------------------------------------
      1 C                    -0.116350
      2 C                    -0.505331
      3 C                    -0.508445
      4 C                     0.056128
      5 C                     0.057498
      6 C                    -0.115065
      7 C                    -0.153489
      8 C                     0.547426
      9 C                     0.547666
     10 C                    -0.151273
     11 C                    -0.322803
     12 C                    -0.229002
     13 C                    -0.318178
     14 C                    -0.224766
     15 O                    -0.680570
     16 O                    -0.680496
     17 O                    -0.499046
     18 H                     0.159786
     19 H                     0.179328
     20 H                     0.179332
     21 H                     0.159742
     22 H                     0.380900
     23 O                    -0.499389
     24 H                     0.177495
     25 H                     0.177598
     26 H                     0.381303
  ----------------------------------------
  Sum of atomic charges =    -2.000000

                    Cartesian Multipole Moments
 -----------------------------------------------------------------
    Charge (ESU x 10^10)
                -9.6064
    Dipole Moment (Debye)
         X     -15.0509      Y      23.9421      Z      -7.1039
       Tot      29.1585
    Quadrupole Moments (Debye-Ang)
        XX    -166.0818     XY      53.1740     YY    -218.6724
        XZ      -9.1615     YZ      35.0403     ZZ    -131.1882

 Total job time:  52.54s(wall), 357.08s(cpu)
        *  Thank you very much for using Q-Chem.  Have a nice day.  *
