 Gaussian 16, Revision A.03,
 Gaussian 16:  ES64L-G16RevA.03 25-Dec-2016

 ----------------------------------------------------------------
 #P UB3LYP/6-311++G(d,p) SCRF=(PCM,Solvent=n,n-DiMethylFormamide)
 ----------------------------------------------------------------

 ------------------
 Radical PCM in DMF
 ------------------
 Symbolic Z-matrix:
 Charge = -1 Multiplicity = 2

                         Standard orientation:
 ---------------------------------------------------------------------
 Center     Atomic      Atomic             Coordinates (Angstroms)
 Number     Number       Type             X           Y           Z
 ---------------------------------------------------------------------
      1          8           0        0.000002    2.923950    0.496999
      2          6           0       -0.000001    1.675843    0.280705
      3          6           0        1.257405    0.955831    0.081490
      4          6           0        2.458300    1.699413   -0.048943
      5          6           0        3.659752    1.091258   -0.357955
      6          6           0        3.734462   -0.300158   -0.559874
      7          6           0        2.583336   -1.065356   -0.414594
      8          6           0        1.376512   -0.450019   -0.084881
      9         16           0        0.000000   -1.501290    0.307674
     10          8           0        0.000006   -1.772206    1.761289
     11          6           0       -1.376515   -0.450019   -0.084873
     12          6           0       -2.583340   -1.065358   -0.414577
     13          6           0       -3.734467   -0.300160   -0.559862
     14          6           0       -3.659751    1.091259   -0.357965
     15          6           0       -2.458299    1.699415   -0.048960
     16          6           0       -1.257406    0.955832    0.081486
     17          1           0        2.383615    2.771507    0.086767
     18          1           0        4.556127    1.696824   -0.456004
     19          1           0        4.675914   -0.773049   -0.816823
     20          1           0        2.605710   -2.140988   -0.548305
     21          1           0       -2.605715   -2.140991   -0.548277
     22          1           0       -4.675919   -0.773051   -0.816805
     23          1           0       -4.556125    1.696827   -0.456020
     24          1           0       -2.383613    2.771511    0.086737
     25          8           0        0.000002   -2.691075   -0.573442
 ---------------------------------------------------------------------

 SCF Done:  E(UB3LYP) =  -1124.35120017     A.U. after   20 cycles

 The electronic state is 2-A.
 Alpha  occ. eigenvalues --  -89.04827 -19.11643 -19.11499 -19.06954 -10.21901
 Alpha  occ. eigenvalues --  -10.20495 -10.20495 -10.18843 -10.18843 -10.18809
 Alpha  occ. eigenvalues --  -10.18809 -10.17980 -10.17980 -10.17755 -10.17754
 Alpha  occ. eigenvalues --  -10.17459 -10.17459  -8.11259  -6.07538  -6.07413
 Alpha  occ. eigenvalues --   -6.07364  -1.10766  -1.00000  -0.99488  -0.87578
 Alpha  occ. eigenvalues --   -0.86474  -0.79689  -0.76780  -0.76336  -0.75290
 Alpha  occ. eigenvalues --   -0.69480  -0.65392  -0.63092  -0.60221  -0.58441
 Alpha  occ. eigenvalues --   -0.55329  -0.54862  -0.50619  -0.48339  -0.47468
 Alpha  occ. eigenvalues --   -0.46803  -0.46794  -0.45692  -0.44279  -0.43488
 Alpha  occ. eigenvalues --   -0.42729  -0.41477  -0.40505  -0.38740  -0.38239
 Alpha  occ. eigenvalues --   -0.36642  -0.35967  -0.35864  -0.35691  -0.33294
 Alpha  occ. eigenvalues --   -0.32931  -0.31659  -0.29682  -0.27323  -0.26632
 Alpha  occ. eigenvalues --   -0.26474  -0.25917  -0.24186  -0.13654
 Alpha virt. eigenvalues --   -0.04125  -0.03434  -0.01703  -0.00430   0.00479
 Alpha virt. eigenvalues --    0.01222   0.01938   0.02361   0.03556   0.03649
 Alpha virt. eigenvalues --    0.04207   0.04320   0.04528   0.05800   0.05945

  Beta  occ. eigenvalues --  -89.04830 -19.11606 -19.11450 -19.06264 -10.21569
  Beta  occ. eigenvalues --  -10.20331 -10.20330 -10.18916 -10.18916 -10.18793
  Beta  occ. eigenvalues --  -10.18792 -10.18015 -10.18015 -10.17579 -10.17579
  Beta  occ. eigenvalues --  -10.17353 -10.17353  -8.11260  -6.07537  -6.07416
  Beta  occ. eigenvalues --   -6.07369  -1.10665  -0.99889  -0.98241  -0.87302
  Beta  occ. eigenvalues --   -0.86299  -0.79387  -0.76416  -0.76157  -0.75036
  Beta  occ. eigenvalues --   -0.69164  -0.64914  -0.62830  -0.60115  -0.58207
  Beta  occ. eigenvalues --   -0.55048  -0.54699  -0.50437  -0.48207  -0.47312
  Beta  occ. eigenvalues --   -0.46674  -0.46632  -0.45499  -0.44190  -0.43433
  Beta  occ. eigenvalues --   -0.42584  -0.40372  -0.39753  -0.38608  -0.37833
  Beta  occ. eigenvalues --   -0.36504  -0.35869  -0.35629  -0.33768  -0.33030
  Beta  occ. eigenvalues --   -0.32819  -0.31377  -0.29556  -0.26613  -0.26161
  Beta  occ. eigenvalues --   -0.25216  -0.24656  -0.23561
  Beta virt. eigenvalues --   -0.07564  -0.03845  -0.02282  -0.01289  -0.00410
  Beta virt. eigenvalues --    0.00479   0.01226   0.01959   0.02356   0.03670
  Beta virt. eigenvalues --    0.03801   0.04249   0.04316   0.05692   0.05835

 Mulliken charges and spin densities:
               1          2
     1  O   -0.483022   0.260552
     2  C   -0.059917   0.206823
     3  C    1.533333  -0.013661
     4  C    0.175056   0.120534
     5  C   -0.620804  -0.028360
     6  C   -0.195972   0.137532
     7  C   -0.168313  -0.051374
     8  C   -1.701947   0.082340
     9  S    0.398188   0.046314
    10  O   -0.143379   0.003552
    11  C   -1.701962   0.082342
    12  C   -0.168320  -0.051375
    13  C   -0.195971   0.137534
    14  C   -0.620802  -0.028359
    15  C    0.175056   0.120534
    16  C    1.533355  -0.013663
    17  H    0.190356  -0.007492
    18  H    0.181703   0.001229
    19  H    0.192515  -0.009695
    20  H    0.211424   0.003613
    21  H    0.211425   0.003613
    22  H    0.192515  -0.009696
    23  H    0.181704   0.001229
    24  H    0.190355  -0.007492
    25  O   -0.306575   0.013430
 Sum of Mulliken charges =  -1.00000   1.00000

 Dipole moment (field-independent basis, Debye):
    X=             -0.0000    Y=             -0.8419    Z=             -3.7034  Tot=              3.7979
 Quadrupole moment (field-independent basis, Debye-Ang):
   XX=            -95.9785   YY=           -141.9558   ZZ=           -121.6638
   XY=              0.0000   XZ=             -0.0000   YZ=             -0.2194

 Normal termination of Gaussian 16 at Sat Jan 13 19:19:57 2024.
