 Q-Chem 5.4, Q-Chem, Inc., Pleasanton, CA (2021)
 Q-Chem 5.4.0 for Intel X86 EM64T Linux

User input:
--------------------------------------------------------------
$molecule
0 1
C                 -1.3550040000     -2.0310740000      1.1258560000
C                 -1.4205820000     -1.9980520000     -0.3553350000
C                 -0.7926880000     -1.0490490000     -1.0599480000
C                 -0.0029990000      0.0114680000     -0.3811510000
C                  0.0630520000     -0.0204280000      1.0975050000
C                 -0.5628820000     -0.9678910000      1.8145850000
O                 -1.9302300000     -2.8995130000      1.7635390000
O                  0.5690660000      0.8761970000     -1.0250620000
C                 -0.5326280000     -1.0524730000      3.3130530000
O                  0.2474040000      0.0111570000      3.8253370000
C                  0.4028940000      0.1158610000      5.1849390000
C                 -0.1597230000     -0.7628290000      6.1126810000
C                  1.1855530000      1.1904690000      5.6206540000
C                  1.4023380000      1.3821570000      6.9783970000
C                  0.0683320000     -0.5556140000      7.4759320000
C                  0.8448160000      0.5097440000      7.9167760000
H                 -2.0048560000     -2.7861370000     -0.8174120000
H                 -0.8245070000     -1.0021090000     -2.1428180000
H                  0.6428520000      0.7604370000      1.5734260000
H                 -0.1196090000     -2.0241670000      3.6124520000
H                 -1.5591820000     -1.0100740000      3.6987550000
H                 -0.7679600000     -1.5999980000      5.7976270000
H                  1.6114690000      1.8587630000      4.8819740000
H                  2.0102610000      2.2176380000      7.3069090000
H                 -0.3710600000     -1.2411440000      8.1918900000
H                  1.0158020000      0.6619470000      8.9757100000
$end

$rem
BASIS  =  6-311++G(d,p)
GUI  =  2
JOB_TYPE  =  SP
METHOD  =  B3LYP
SCF_CONVERGENCE  = 8
SOLVENT_METHOD = sm12
$end

$smx
solvent dimethylformamide
charges CM5
$end

--------------------------------------------------------------

             Standard Nuclear Orientation (Angstroms)
    I     Atom           X                Y                Z
 ----------------------------------------------------------------
    1      C      -1.3550040000    -2.0310740000     1.1258560000
    2      C      -1.4205820000    -1.9980520000    -0.3553350000
    3      C      -0.7926880000    -1.0490490000    -1.0599480000
    4      C      -0.0029990000     0.0114680000    -0.3811510000
    5      C       0.0630520000    -0.0204280000     1.0975050000
    6      C      -0.5628820000    -0.9678910000     1.8145850000
    7      O      -1.9302300000    -2.8995130000     1.7635390000
    8      O       0.5690660000     0.8761970000    -1.0250620000
    9      C      -0.5326280000    -1.0524730000     3.3130530000
   10      O       0.2474040000     0.0111570000     3.8253370000
   11      C       0.4028940000     0.1158610000     5.1849390000
   12      C      -0.1597230000    -0.7628290000     6.1126810000
   13      C       1.1855530000     1.1904690000     5.6206540000
   14      C       1.4023380000     1.3821570000     6.9783970000
   15      C       0.0683320000    -0.5556140000     7.4759320000
   16      C       0.8448160000     0.5097440000     7.9167760000
   17      H      -2.0048560000    -2.7861370000    -0.8174120000
   18      H      -0.8245070000    -1.0021090000    -2.1428180000
   19      H       0.6428520000     0.7604370000     1.5734260000
   20      H      -0.1196090000    -2.0241670000     3.6124520000
   21      H      -1.5591820000    -1.0100740000     3.6987550000
   22      H      -0.7679600000    -1.5999980000     5.7976270000
   23      H       1.6114690000     1.8587630000     4.8819740000
   24      H       2.0102610000     2.2176380000     7.3069090000
   25      H      -0.3710600000    -1.2411440000     8.1918900000
   26      H       1.0158020000     0.6619470000     8.9757100000
 ----------------------------------------------------------------

   15    -727.2292130591      5.57e-09  Convergence criterion met
 Total energy in the final basis set =     -727.2506115864

                    Orbital Energies (a.u.)
 --------------------------------------------------------------

 Alpha MOs
 -- Occupied --
-19.1671 -19.1433 -19.1388 -10.2888 -10.2843 -10.2476 -10.2464 -10.2234
-10.2112 -10.2104 -10.2066 -10.1847 -10.1842 -10.1824 -10.1798 -10.1764
 -1.0850  -1.0737  -1.0681  -0.8728  -0.8613  -0.8126  -0.7637  -0.7569
 -0.7267  -0.6955  -0.6410  -0.6241  -0.6021  -0.5942  -0.5550  -0.5195
 -0.5120  -0.4975  -0.4945  -0.4892  -0.4763  -0.4586  -0.4497  -0.4473
 -0.4405  -0.4329  -0.4251  -0.4214  -0.4043  -0.3934  -0.3808  -0.3715
 -0.3435  -0.3385  -0.3118  -0.2959  -0.2912  -0.2791  -0.2668  -0.2381

          Ground-State Mulliken Net Atomic Charges

     Atom                 Charge (a.u.)
  ----------------------------------------
      1 C                    -1.458658
      2 C                     0.855072
      3 C                     0.473442
      4 C                    -1.066256
      5 C                    -0.661681
      6 C                     0.970671
      7 O                    -0.267470
      8 O                    -0.340303
      9 C                     0.402948
     10 O                    -0.102163
     11 C                     0.327256
     12 C                     0.445920
     13 C                    -0.690049
     14 C                    -0.400211
     15 C                    -0.494245
     16 C                    -0.581706
     17 H                     0.324923
     18 H                     0.323460
     19 H                     0.189551
     20 H                     0.281678
     21 H                     0.281238
     22 H                     0.271142
     23 H                     0.186523
     24 H                     0.253193
     25 H                     0.267070
     26 H                     0.208655
  ----------------------------------------
  Sum of atomic charges =     0.000000

                    Cartesian Multipole Moments
 -----------------------------------------------------------------
    Charge (ESU x 10^10)
                -0.0000
    Dipole Moment (Debye)
         X      -0.9831      Y      -1.4433      Z       0.5806
       Tot       1.8403
    Quadrupole Moments (Debye-Ang)
        XX     -95.5700     XY      -0.4752     YY     -96.5555
        XZ       4.4670     YZ       5.2321     ZZ     -82.9386

 Total job time:  498.76s(wall), 3708.94s(cpu)
        *  Thank you very much for using Q-Chem.  Have a nice day.  *
