 Gaussian 16, Revision A.03,
 Gaussian 16:  ES64L-G16RevA.03 25-Dec-2016

 --------------------------------------
 #P UB3LYP/6-311++G(d,p) nosym opt freq
 --------------------------------------

 --------
 Oxidized
 --------
 Symbolic Z-matrix:
 Charge =  0 Multiplicity = 1

 SCF Done:  E(UB3LYP) =  -727.230379924     A.U. after   15 cycles
 SCF Done:  E(UB3LYP) =  -727.230380092     A.U. after    9 cycles
 Optimization completed.
    -- Stationary point found.
 Normal termination of Gaussian 16 at Wed Jan 10 04:52:43 2024.

 ----------------------------------------------------------------------
 #P Geom=AllCheck Guess=TCheck SCRF=Check GenChk UB3LYP/6-311++G(d,p) F
 req
 ----------------------------------------------------------------------

 Structure from the checkpoint file:  "065.chk"
 --------
 Oxidized
 --------
 Charge =  0 Multiplicity = 1

                          Input orientation:
 ---------------------------------------------------------------------
 Center     Atomic      Atomic             Coordinates (Angstroms)
 Number     Number       Type             X           Y           Z
 ---------------------------------------------------------------------
      1          6           0       -1.355004   -2.031074    1.125856
      2          6           0       -1.420582   -1.998052   -0.355335
      3          6           0       -0.792688   -1.049049   -1.059948
      4          6           0       -0.002999    0.011468   -0.381151
      5          6           0        0.063052   -0.020428    1.097505
      6          6           0       -0.562882   -0.967891    1.814585
      7          8           0       -1.930230   -2.899513    1.763539
      8          8           0        0.569066    0.876197   -1.025062
      9          6           0       -0.532628   -1.052473    3.313053
     10          8           0        0.247404    0.011157    3.825337
     11          6           0        0.402894    0.115861    5.184939
     12          6           0       -0.159723   -0.762829    6.112681
     13          6           0        1.185553    1.190469    5.620654
     14          6           0        1.402338    1.382157    6.978397
     15          6           0        0.068332   -0.555614    7.475932
     16          6           0        0.844816    0.509744    7.916776
     17          1           0       -2.004856   -2.786137   -0.817412
     18          1           0       -0.824507   -1.002109   -2.142818
     19          1           0        0.642852    0.760437    1.573426
     20          1           0       -0.119609   -2.024167    3.612452
     21          1           0       -1.559182   -1.010074    3.698755
     22          1           0       -0.767960   -1.599998    5.797627
     23          1           0        1.611469    1.858763    4.881974
     24          1           0        2.010261    2.217638    7.306909
     25          1           0       -0.371060   -1.241144    8.191890
     26          1           0        1.015802    0.661947    8.975710
 ---------------------------------------------------------------------

 SCF Done:  E(UB3LYP) =  -727.230380092     A.U. after    1 cycles

 Alpha  occ. eigenvalues --  -19.17292 -19.15103 -19.14505 -10.29720 -10.29069
 Alpha  occ. eigenvalues --  -10.25772 -10.24898 -10.23162 -10.22402 -10.22320
 Alpha  occ. eigenvalues --  -10.21516 -10.18706 -10.18592 -10.18561 -10.18153
 Alpha  occ. eigenvalues --  -10.17834  -1.09094  -1.08130  -1.07378  -0.88063
 Alpha  occ. eigenvalues --   -0.86568  -0.82241  -0.76867  -0.76020  -0.73345
 Alpha  occ. eigenvalues --   -0.70446  -0.64920  -0.62858  -0.60863  -0.60174
 Alpha  occ. eigenvalues --   -0.56080  -0.52691  -0.52042  -0.50697  -0.50088
 Alpha  occ. eigenvalues --   -0.49559  -0.48465  -0.46522  -0.45600  -0.45455
 Alpha  occ. eigenvalues --   -0.44749  -0.43775  -0.43150  -0.42669  -0.41342
 Alpha  occ. eigenvalues --   -0.39784  -0.38551  -0.37507  -0.34804  -0.34248
 Alpha  occ. eigenvalues --   -0.32130  -0.30578  -0.29739  -0.28504  -0.26800
 Alpha  occ. eigenvalues --   -0.24051
 Alpha virt. eigenvalues --   -0.14334  -0.04175  -0.02487  -0.01383  -0.01227
 Alpha virt. eigenvalues --   -0.00805  -0.00562   0.00313   0.00676   0.01933
 Alpha virt. eigenvalues --    0.02438   0.02451   0.03084   0.03765   0.05002

  Beta  occ. eigenvalues --  -19.17292 -19.15103 -19.14505 -10.29720 -10.29069
  Beta  occ. eigenvalues --  -10.25772 -10.24898 -10.23162 -10.22402 -10.22320
  Beta  occ. eigenvalues --  -10.21516 -10.18706 -10.18592 -10.18561 -10.18153
  Beta  occ. eigenvalues --  -10.17834  -1.09094  -1.08130  -1.07378  -0.88063
  Beta  occ. eigenvalues --   -0.86568  -0.82241  -0.76867  -0.76020  -0.73345
  Beta  occ. eigenvalues --   -0.70446  -0.64920  -0.62858  -0.60863  -0.60174
  Beta  occ. eigenvalues --   -0.56080  -0.52691  -0.52042  -0.50697  -0.50088
  Beta  occ. eigenvalues --   -0.49559  -0.48465  -0.46522  -0.45600  -0.45455
  Beta  occ. eigenvalues --   -0.44749  -0.43775  -0.43150  -0.42669  -0.41342
  Beta  occ. eigenvalues --   -0.39784  -0.38551  -0.37507  -0.34804  -0.34248
  Beta  occ. eigenvalues --   -0.32130  -0.30578  -0.29739  -0.28504  -0.26800
  Beta  occ. eigenvalues --   -0.24051
  Beta virt. eigenvalues --   -0.14334  -0.04175  -0.02487  -0.01383  -0.01227
  Beta virt. eigenvalues --   -0.00805  -0.00562   0.00313   0.00676   0.01933
  Beta virt. eigenvalues --    0.02438   0.02451   0.03084   0.03765   0.05002

 Mulliken charges and spin densities:
               1          2
     1  C   -1.219334   0.000000
     2  C    0.288370  -0.000000
     3  C    0.151964   0.000000
     4  C   -0.479143  -0.000000
     5  C   -0.402478   0.000000
     6  C    0.770089  -0.000000
     7  O   -0.204471  -0.000000
     8  O   -0.213158   0.000000
     9  C   -0.111809   0.000000
    10  O   -0.094187  -0.000000
    11  C    0.523537   0.000000
    12  C   -0.004837   0.000000
    13  C   -0.095673   0.000000
    14  C   -0.207778   0.000000
    15  C   -0.325421  -0.000000
    16  C   -0.350289   0.000000
    17  H    0.222589  -0.000000
    18  H    0.229383   0.000000
    19  H    0.232807   0.000000
    20  H    0.237806   0.000000
    21  H    0.237765   0.000000
    22  H    0.142927  -0.000000
    23  H    0.158257  -0.000000
    24  H    0.178379  -0.000000
    25  H    0.187011   0.000000
    26  H    0.147696   0.000000
 Sum of Mulliken charges =  -0.00000  -0.00000

 Dipole moment (field-independent basis, Debye):
    X=             -0.6268    Y=             -0.9505    Z=              0.7094  Tot=              1.3415
 Quadrupole moment (field-independent basis, Debye-Ang):
   XX=            -95.6789   YY=            -96.9464   ZZ=            -82.2038
   XY=             -0.7692   XZ=              4.8276   YZ=              5.6904

  Exact polarizability: 118.137  45.499 151.387   0.455 -10.127 212.850
 Approx polarizability: 201.955  98.795 279.425 -32.917 -60.464 296.904

                      1                      2                      3
                      A                      A                      A
 Frequencies --     31.1235                32.5612                66.1227
 Red. masses --      4.2279                 5.6119                 6.3542
 Frc consts  --      0.0024                 0.0035                 0.0164
 IR Inten    --      0.0123                 0.2188                 0.0479

                      4                      5                      6
                      A                      A                      A
 Frequencies --     80.2392               110.7843               171.9271
 Red. masses --      7.0944                 4.2394                 3.3095
 Frc consts  --      0.0269                 0.0307                 0.0576
 IR Inten    --      6.5601                11.0825                 0.2910

                      7                      8                      9
                      A                      A                      A
 Frequencies --    184.2515               230.0031               235.9110
 Red. masses --      6.9517                 7.3519                 4.9575
 Frc consts  --      0.1390                 0.2291                 0.1626
 IR Inten    --      0.0741                 1.8352                 0.5955

                     10                     11                     12
                      A                      A                      A
 Frequencies --    260.1569               382.8840               421.7464
 Red. masses --      4.0030                 3.1306                 3.0057
 Frc consts  --      0.1596                 0.2704                 0.3150
 IR Inten    --      0.4324                 1.7136                 0.0127

                     13                     14                     15
                      A                      A                      A
 Frequencies --    423.5025               447.5909               459.8513
 Red. masses --      9.6827                 6.2371                 8.2063
 Frc consts  --      1.0232                 0.7362                 1.0224
 IR Inten    --     31.7635                 1.6413                 0.8030

                     16                     17                     18
                      A                      A                      A
 Frequencies --    497.3331               515.4921               580.7630
 Red. masses --      6.6496                 2.8025                 2.2233
 Frc consts  --      0.9690                 0.4388                 0.4418
 IR Inten    --      0.5917                 9.8365                 0.5358

                     19                     20                     21
                      A                      A                      A
 Frequencies --    589.6066               605.3863               629.5097
 Red. masses --      5.0274                 7.1238                 6.3885
 Frc consts  --      1.0297                 1.5382                 1.4916
 IR Inten    --      1.4019                 5.2460                 0.3734

                     22                     23                     24
                      A                      A                      A
 Frequencies --    701.2226               723.3158               764.2158
 Red. masses --      2.0944                 5.6313                 1.6775
 Frc consts  --      0.6068                 1.7358                 0.5772
 IR Inten    --     26.8244                 0.4875                66.2555

                     25                     26                     27
                      A                      A                      A
 Frequencies --    779.4457               784.7447               817.9670
 Red. masses --      7.5845                 5.5856                 1.4223
 Frc consts  --      2.7149                 2.0266                 0.5607
 IR Inten    --      0.0006                 8.3200                10.4521

                     28                     29                     30
                      A                      A                      A
 Frequencies --    827.2224               852.2600               894.4781
 Red. masses --      1.2797                 6.7737                 1.4589
 Frc consts  --      0.5159                 2.8988                 0.6877
 IR Inten    --      3.8699                20.7958                 3.8997

                     31                     32                     33
                      A                      A                      A
 Frequencies --    913.4002               933.5342               968.9980
 Red. masses --      2.9959                 1.5783                 1.3448
 Frc consts  --      1.4726                 0.8104                 0.7440
 IR Inten    --      5.3237                51.6823                 0.0316

                     34                     35                     36
                      A                      A                      A
 Frequencies --    989.1294              1009.9698              1010.8030
 Red. masses --      1.2755                 1.2498                 5.9095
 Frc consts  --      0.7352                 0.7511                 3.5574
 IR Inten    --      0.0729                 0.0037                 0.7477

                     37                     38                     39
                      A                      A                      A
 Frequencies --   1028.0475              1039.8594              1055.1079
 Red. masses --      1.6914                 3.0342                 2.9087
 Frc consts  --      1.0532                 1.9330                 1.9078
 IR Inten    --      0.0106                23.4701               117.2842

                     40                     41                     42
                      A                      A                      A
 Frequencies --   1101.8339              1113.8779              1144.5346
 Red. masses --      1.7229                 2.0156                 1.7561
 Frc consts  --      1.2324                 1.4734                 1.3554
 IR Inten    --      0.5273                17.0946                24.4617

                     43                     44                     45
                      A                      A                      A
 Frequencies --   1179.7120              1197.8444              1222.7873
 Red. masses --      1.1186                 1.1582                 1.6409
 Frc consts  --      0.9172                 0.9791                 1.4456
 IR Inten    --      4.9689                20.2900                 3.4532

                     46                     47                     48
                      A                      A                      A
 Frequencies --   1254.7355              1263.0130              1290.1581
 Red. masses --      1.0671                 4.7712                 3.3379
 Frc consts  --      0.9899                 4.4843                 3.2735
 IR Inten    --      0.8083               469.9125                29.3574

                     49                     50                     51
                      A                      A                      A
 Frequencies --   1328.8602              1343.5237              1357.1068
 Red. masses --      2.8804                 2.0593                 1.8309
 Frc consts  --      2.9969                 2.1901                 1.9868
 IR Inten    --     48.1008                 9.9585                 4.2839

                     52                     53                     54
                      A                      A                      A
 Frequencies --   1386.5900              1430.4055              1483.9734
 Red. masses --      1.7951                 1.8295                 1.3678
 Frc consts  --      2.0335                 2.2055                 1.7747
 IR Inten    --      3.3432                28.6185                26.2958

                     55                     56                     57
                      A                      A                      A
 Frequencies --   1488.1527              1525.4575              1625.9770
 Red. masses --      1.6216                 2.1985                 5.8768
 Frc consts  --      2.1159                 3.0142                 9.1541
 IR Inten    --     21.2550               108.5064                41.3235

                     58                     59                     60
                      A                      A                      A
 Frequencies --   1641.7136              1651.8084              1687.0810
 Red. masses --      5.7619                 7.7841                 9.4885
 Frc consts  --      9.1498                12.5135                15.9118
 IR Inten    --     88.7359                20.8078                 8.9368

                     61                     62                     63
                      A                      A                      A
 Frequencies --   1719.7588              1724.2961              3001.3448
 Red. masses --     11.4651                 8.9427                 1.0555
 Frc consts  --     19.9785                15.6654                 5.6020
 IR Inten    --    390.8058                81.7904                15.4233

                     64                     65                     66
                      A                      A                      A
 Frequencies --   3030.5814              3165.9373              3173.4588
 Red. masses --      1.1044                 1.0855                 1.0893
 Frc consts  --      5.9761                 6.4105                 6.4636
 IR Inten    --     11.2585                 2.0062                 9.5947

                     67                     68                     69
                      A                      A                      A
 Frequencies --   3176.7002              3187.8853              3194.4361
 Red. masses --      1.0874                 1.0925                 1.0994
 Frc consts  --      6.4651                 6.5415                 6.6098
 IR Inten    --      0.8463                20.2470                 3.2394

                     70                     71                     72
                      A                      A                      A
 Frequencies --   3195.0264              3204.4521              3206.8301
 Red. masses --      1.0963                 1.0930                 1.0919
 Frc consts  --      6.5934                 6.6126                 6.6159
 IR Inten    --      8.4691                 3.5383                 0.2909

 - Thermochemistry -
 -------------------
 Temperature   298.150 Kelvin.  Pressure   1.00000 Atm.
 Atom     1 has atomic number  6 and mass  12.00000

 Molecular mass:   214.06299 amu.
 Principal axes and moments of inertia in atomic units:
                           1         2         3
     Eigenvalues --  1395.237167500.842528884.89202
           X            0.18644   0.54696   0.81613
           Y            0.18237   0.79699  -0.57580
           Z            0.96539  -0.25619  -0.04884
 This molecule is an asymmetric top.
 Rotational symmetry number  1.
 Warning -- assumption of classical behavior for rotation
           may cause significant error
 Rotational temperatures (Kelvin)      0.06208     0.01155     0.00975
 Rotational constants (GHZ):           1.29350     0.24061     0.20312
 Zero-point vibrational energy     518882.2 (Joules/Mol)
                                  124.01581 (Kcal/Mol)
 Warning -- explicit consideration of  20 degrees of freedom as
           vibrations may cause significant error
 Vibrational temperatures:     44.78    46.85    95.14   115.45   159.39
          (Kelvin)            247.36   265.10   330.92   339.42   374.31
                              550.88   606.80   609.33   643.98   661.62
                              715.55   741.68   835.59   848.31   871.02
                              905.72  1008.90  1040.69  1099.54  1121.45
                             1129.07  1176.87  1190.19  1226.21  1286.95
                             1314.18  1343.15  1394.17  1423.14  1453.12
                             1454.32  1479.13  1496.13  1518.07  1585.29
                             1602.62  1646.73  1697.34  1723.43  1759.32
                             1805.28  1817.19  1856.25  1911.93  1933.03
                             1952.57  1994.99  2058.03  2135.11  2141.12
                             2194.79  2339.42  2362.06  2376.58  2427.33
                             2474.35  2480.88  4318.27  4360.33  4555.08
                             4565.90  4570.56  4586.66  4596.08  4596.93
                             4610.49  4613.91

 Zero-point correction=                           0.197632 (Hartree/Particle)
 Thermal correction to Energy=                    0.210997
 Thermal correction to Enthalpy=                  0.211941
 Thermal correction to Gibbs Free Energy=         0.155579
 Sum of electronic and zero-point Energies=           -727.032748
 Sum of electronic and thermal Energies=              -727.019383
 Sum of electronic and thermal Enthalpies=            -727.018439
 Sum of electronic and thermal Free Energies=         -727.074801

                     E (Thermal)             CV                S
                      KCal/Mol        Cal/Mol-Kelvin    Cal/Mol-Kelvin
 Total                  132.403             50.933            118.625
 Electronic               0.000              0.000              0.000
 Translational            0.889              2.981             41.987
 Rotational               0.889              2.981             32.897
 Vibrational            130.625             44.971             43.741
 Vibration     1          0.594              1.983              5.756
 Vibration     2          0.594              1.983              5.667
 Vibration     3          0.598              1.970              4.266
 Vibration     4          0.600              1.963              3.885
 Vibration     5          0.607              1.941              3.255
 Vibration     6          0.626              1.877              2.414
 Vibration     7          0.631              1.861              2.285
 Vibration     8          0.652              1.795              1.879
 Vibration     9          0.655              1.786              1.834
 Vibration    10          0.668              1.746              1.661
 Vibration    11          0.752              1.507              1.028
 Vibration    12          0.784              1.423              0.886
 Vibration    13          0.786              1.419              0.880
 Vibration    14          0.807              1.366              0.803
 Vibration    15          0.818              1.339              0.767
 Vibration    16          0.853              1.256              0.665
 Vibration    17          0.871              1.216              0.621
 Vibration    18          0.937              1.073              0.484
 Vibration    19          0.947              1.054              0.468
 Vibration    20          0.964              1.020              0.440

 Optimization completed.
    -- Stationary point found.
 Normal termination of Gaussian 16 at Wed Jan 10 05:15:49 2024.
