 Gaussian 16, Revision A.03,
 Gaussian 16:  ES64L-G16RevA.03 25-Dec-2016

 --------------------------------------
 #P UB3LYP/6-311++G(d,p) nosym opt freq
 --------------------------------------

 -------
 Radical
 -------
 Symbolic Z-matrix:
 Charge = -1 Multiplicity = 2

 SCF Done:  E(UB3LYP) =  -669.318661620     A.U. after   23 cycles
 Optimization completed.
    -- Stationary point found.
 Normal termination of Gaussian 16 at Tue Jan  9 20:33:25 2024.

 ----------------------------------------------------------------------
 #P Geom=AllCheck Guess=TCheck SCRF=Check GenChk UB3LYP/6-311++G(d,p) F
 req
 ----------------------------------------------------------------------

 Structure from the checkpoint file:  "323-rad.chk"
 -------
 Radical
 -------
 Charge = -1 Multiplicity = 2

                          Input orientation:
 ---------------------------------------------------------------------
 Center     Atomic      Atomic             Coordinates (Angstroms)
 Number     Number       Type             X           Y           Z
 ---------------------------------------------------------------------
      1          6           0       -1.654857    2.851787   -0.704774
      2          6           0       -2.865049    2.182671   -0.699442
      3          6           0       -2.889782    0.787944   -0.501005
      4          6           0       -0.433305    2.177112   -0.500657
      5          6           0       -0.461210    0.766736   -0.263251
      6          6           0       -1.706923    0.100155   -0.290687
      7          6           0        0.822172    2.945118   -0.571796
      8          6           0        2.093728    2.177222   -0.403683
      9          6           0        1.971611    0.761065   -0.117563
     10          6           0        0.785771    0.075142   -0.033110
     11          8           0        0.817796    4.177298   -0.774180
     12          8           0        3.216921    2.726628   -0.477223
     13          1           0       -1.601634    3.921093   -0.876016
     14          1           0       -3.791398    2.726287   -0.860975
     15          1           0       -3.832991    0.249807   -0.522323
     16          1           0       -1.718989   -0.976286   -0.164394
     17          1           0        2.916672    0.252911    0.046056
     18          7           0        0.727613   -1.331099    0.272063
     19          6           0        1.869140   -2.125674   -0.147027
     20          6           0        0.359587   -1.615990    1.656885
     21          1           0        2.112429   -1.902015   -1.186904
     22          1           0        1.611507   -3.188059   -0.068114
     23          1           0        2.776875   -1.958504    0.461148
     24          1           0       -0.511981   -1.026440    1.941801
     25          1           0        1.176737   -1.380817    2.363487
     26          1           0        0.109838   -2.678282    1.763726
 ---------------------------------------------------------------------

 SCF Done:  E(UB3LYP) =  -669.318661620     A.U. after    1 cycles

 Alpha  occ. eigenvalues --  -18.93371 -18.92862 -14.20980 -10.09339 -10.09298
 Alpha  occ. eigenvalues --  -10.07760 -10.07688 -10.07458 -10.05474 -10.05373
 Alpha  occ. eigenvalues --  -10.05170 -10.05144 -10.04423 -10.04151 -10.02862
 Alpha  occ. eigenvalues --   -0.86771  -0.84031  -0.82733  -0.73425  -0.67393
 Alpha  occ. eigenvalues --   -0.63014  -0.61475  -0.59956  -0.57004  -0.51597
 Alpha  occ. eigenvalues --   -0.49083  -0.46605  -0.43760  -0.39379  -0.37740
 Alpha  occ. eigenvalues --   -0.37135  -0.35950  -0.34280  -0.32751  -0.31275
 Alpha  occ. eigenvalues --   -0.30099  -0.29834  -0.28700  -0.28113  -0.27720
 Alpha  occ. eigenvalues --   -0.27273  -0.26120  -0.24985  -0.23753  -0.22751
 Alpha  occ. eigenvalues --   -0.21175  -0.20512  -0.18019  -0.13190  -0.12608
 Alpha  occ. eigenvalues --   -0.10983  -0.09515  -0.07674  -0.01426
 Alpha virt. eigenvalues --    0.07046   0.08303   0.08883   0.09273   0.10016
 Alpha virt. eigenvalues --    0.10699   0.11675   0.11980   0.12666   0.13179
 Alpha virt. eigenvalues --    0.13420   0.14076   0.14612   0.15761   0.16263

  Beta  occ. eigenvalues --  -18.92717 -18.92213 -14.20958 -10.09319 -10.09298
  Beta  occ. eigenvalues --  -10.07582 -10.07558 -10.07373 -10.05404 -10.05282
  Beta  occ. eigenvalues --  -10.05186 -10.05101 -10.04418 -10.04059 -10.02848
  Beta  occ. eigenvalues --   -0.85687  -0.82867  -0.82560  -0.73222  -0.67040
  Beta  occ. eigenvalues --   -0.62789  -0.61391  -0.59794  -0.56539  -0.51182
  Beta  occ. eigenvalues --   -0.48937  -0.46237  -0.43554  -0.39251  -0.37603
  Beta  occ. eigenvalues --   -0.36915  -0.35833  -0.34124  -0.32609  -0.31129
  Beta  occ. eigenvalues --   -0.30037  -0.29762  -0.28592  -0.27847  -0.27257
  Beta  occ. eigenvalues --   -0.26462  -0.25542  -0.24642  -0.22525  -0.22450
  Beta  occ. eigenvalues --   -0.21001  -0.18541  -0.16260  -0.12393  -0.11984
  Beta  occ. eigenvalues --   -0.10321  -0.08299  -0.07078
  Beta virt. eigenvalues --    0.05015   0.07046   0.08296   0.09235   0.09574
  Beta virt. eigenvalues --    0.10053   0.10702   0.11673   0.12649   0.13160
  Beta virt. eigenvalues --    0.13401   0.13479   0.14112   0.14619   0.15813

 Mulliken charges and spin densities:
               1          2
     1  C    0.066248   0.029451
     2  C   -0.435503   0.028426
     3  C   -0.372741   0.059833
     4  C    0.468298   0.073513
     5  C    0.203267   0.055563
     6  C   -0.085697  -0.006406
     7  C   -0.509355   0.053519
     8  C   -0.340079   0.111733
     9  C   -0.077137  -0.002395
    10  C   -0.180141   0.091121
    11  O   -0.369303   0.248620
    12  O   -0.384328   0.237714
    13  H    0.163477  -0.002763
    14  H    0.117425  -0.002862
    15  H    0.122101  -0.004526
    16  H    0.136419   0.000822
    17  H    0.138021  -0.001614
    18  N    0.212065   0.018070
    19  C   -0.250229   0.001578
    20  C   -0.352971   0.005628
    21  H    0.155059  -0.000798
    22  H    0.112619  -0.000012
    23  H    0.097509   0.001621
    24  H    0.123087  -0.000815
    25  H    0.112322  -0.002052
    26  H    0.129567   0.007032
 Sum of Mulliken charges =  -1.00000   1.00000

 Dipole moment (field-independent basis, Debye):
    X=             -5.9300    Y=            -13.6133    Z=              2.8888  Tot=             15.1272
 Quadrupole moment (field-independent basis, Debye-Ang):
   XX=           -120.6742   YY=           -143.0897   ZZ=            -96.3318
   XY=            -23.6077   XZ=              3.0518   YZ=              8.6710

  Exact polarizability: 242.229   1.444 208.240   8.661 -24.819 110.442
 Approx polarizability: 402.424  26.705 327.659  11.042 -32.279 165.796

                      1                      2                      3
                      A                      A                      A
 Frequencies --     54.5666                72.9031               110.8311
 Red. masses --      4.3903                 4.1780                 3.9302
 Frc consts  --      0.0077                 0.0131                 0.0284
 IR Inten    --      0.6902                 0.9868                 0.2984

                      4                      5                      6
                      A                      A                      A
 Frequencies --    141.1237               167.1625               210.8542
 Red. masses --      4.5037                 2.8033                 4.5666
 Frc consts  --      0.0528                 0.0462                 0.1196
 IR Inten    --      1.5153                 3.1515                 1.4432

                      7                      8                      9
                      A                      A                      A
 Frequencies --    240.6865               269.3945               280.0756
 Red. masses --      1.2935                 2.8720                 1.1173
 Frc consts  --      0.0441                 0.1228                 0.0516
 IR Inten    --      0.2907                 1.5399                 0.5590

                     10                     11                     12
                      A                      A                      A
 Frequencies --    289.4268               338.5203               361.3047
 Red. masses --      3.9692                 4.1405                13.5208
 Frc consts  --      0.1959                 0.2796                 1.0399
 IR Inten    --      3.3146                 2.0140                 0.2957

                     13                     14                     15
                      A                      A                      A
 Frequencies --    396.7356               419.2556               431.2002
 Red. masses --      4.1305                 3.8359                 5.0847
 Frc consts  --      0.3830                 0.3973                 0.5570
 IR Inten    --      6.0450                 0.5844                 7.3992

                     16                     17                     18
                      A                      A                      A
 Frequencies --    462.9350               480.7148               526.3861
 Red. masses --      5.5547                 5.1132                 4.0048
 Frc consts  --      0.7014                 0.6962                 0.6538
 IR Inten    --      3.2184                 4.1912                 6.9874

                     19                     20                     21
                      A                      A                      A
 Frequencies --    536.1968               629.5537               650.1176
 Red. masses --      4.4326                 5.2394                 3.9988
 Frc consts  --      0.7509                 1.2235                 0.9958
 IR Inten    --      2.2417                 5.3084                 0.6596

                     22                     23                     24
                      A                      A                      A
 Frequencies --    681.3264               720.2916               723.0586
 Red. masses --      5.8901                 5.1168                 2.8205
 Frc consts  --      1.6110                 1.5641                 0.8688
 IR Inten    --      9.0725                 7.2970                22.5233

                     25                     26                     27
                      A                      A                      A
 Frequencies --    761.9542               777.4989               804.0527
 Red. masses --      1.9942                 4.3226                 4.7741
 Frc consts  --      0.6821                 1.5396                 1.8185
 IR Inten    --     40.8799                 0.8329                 3.1237

                     28                     29                     30
                      A                      A                      A
 Frequencies --    857.0594               868.9081               921.4021
 Red. masses --      1.4584                 1.4709                 4.0295
 Frc consts  --      0.6312                 0.6543                 2.0156
 IR Inten    --      0.5519                18.8067                11.9827

                     31                     32                     33
                      A                      A                      A
 Frequencies --    955.9208               978.7179               985.2904
 Red. masses --      1.2987                 1.2907                 6.9044
 Frc consts  --      0.6992                 0.7284                 3.9492
 IR Inten    --      1.9745                 1.5034                14.8135

                     34                     35                     36
                      A                      A                      A
 Frequencies --   1042.8899              1052.0457              1066.3644
 Red. masses --      2.2354                 2.5276                 1.6347
 Frc consts  --      1.4325                 1.6483                 1.0952
 IR Inten    --     36.4124                55.1245                30.3251

                     37                     38                     39
                      A                      A                      A
 Frequencies --   1111.6819              1127.8484              1158.3293
 Red. masses --      1.2571                 1.6884                 1.2550
 Frc consts  --      0.9154                 1.2654                 0.9921
 IR Inten    --      4.9833                 3.3534                15.3440

                     40                     41                     42
                      A                      A                      A
 Frequencies --   1169.5914              1192.8688              1214.5863
 Red. masses --      1.4610                 2.0655                 2.5890
 Frc consts  --      1.1775                 1.7316                 2.2503
 IR Inten    --      9.1375                12.4731                 8.8599

                     43                     44                     45
                      A                      A                      A
 Frequencies --   1221.1225              1235.6290              1278.8180
 Red. masses --      3.5208                 2.4169                 2.1302
 Frc consts  --      3.0932                 2.1741                 2.0526
 IR Inten    --     19.2156                 6.8277                 2.2660

                     46                     47                     48
                      A                      A                      A
 Frequencies --   1306.3199              1349.1973              1396.5173
 Red. masses --      2.4358                 7.4064                 2.8659
 Frc consts  --      2.4490                 7.9435                 3.2931
 IR Inten    --     23.5637                23.9283                61.4908

                     49                     50                     51
                      A                      A                      A
 Frequencies --   1434.0075              1447.9716              1462.3514
 Red. masses --      1.1518                 2.2478                 1.2851
 Frc consts  --      1.3955                 2.7766                 1.6191
 IR Inten    --      0.6994                43.2290                 7.3433

                     52                     53                     54
                      A                      A                      A
 Frequencies --   1476.3589              1485.7350              1491.2588
 Red. masses --      1.0753                 2.4484                 1.2505
 Frc consts  --      1.3809                 3.1843                 1.6384
 IR Inten    --     22.4138               146.6935                13.9730

                     55                     56                     57
                      A                      A                      A
 Frequencies --   1500.0426              1509.3877              1518.3753
 Red. masses --      1.0660                 2.5430                 1.2747
 Frc consts  --      1.4132                 3.4135                 1.7315
 IR Inten    --     11.6756               142.5539                15.0845

                     58                     59                     60
                      A                      A                      A
 Frequencies --   1540.4021              1579.1846              1593.2440
 Red. masses --      6.3467                 6.6558                 7.9212
 Frc consts  --      8.8728                 9.7794                11.8469
 IR Inten    --    241.0972                61.0088               348.7218

                     61                     62                     63
                      A                      A                      A
 Frequencies --   1622.3364              2905.9649              2913.9241
 Red. masses --      6.0750                 1.0610                 1.0632
 Frc consts  --      9.4207                 5.2789                 5.3189
 IR Inten    --     15.6944                48.0756               215.4813

                     64                     65                     66
                      A                      A                      A
 Frequencies --   3017.9646              3020.9274              3100.0399
 Red. masses --      1.0778                 1.0735                 1.0959
 Frc consts  --      5.7836                 5.7720                 6.2055
 IR Inten    --     16.1084               154.0046                22.7495

                     67                     68                     69
                      A                      A                      A
 Frequencies --   3109.4086              3131.7012              3150.7278
 Red. masses --      1.0942                 1.0842                 1.0907
 Frc consts  --      6.2329                 6.2650                 6.3792
 IR Inten    --     18.9762                14.7782                49.4768

                     70                     71                     72
                      A                      A                      A
 Frequencies --   3158.1191              3175.9464              3180.5760
 Red. masses --      1.0882                 1.0913                 1.0925
 Frc consts  --      6.3946                 6.4853                 6.5113
 IR Inten    --     23.2184                25.4477                21.7801

 - Thermochemistry -
 -------------------
 Temperature   298.150 Kelvin.  Pressure   1.00000 Atm.
 Atom     1 has atomic number  6 and mass  12.00000

 Molecular mass:   201.07898 amu.
 Principal axes and moments of inertia in atomic units:
                           1         2         3
     Eigenvalues --  2447.902092889.867515072.75691
           X           -0.34026   0.93923  -0.04547
           Y            0.90982   0.34105   0.23647
           Z           -0.23760  -0.03909   0.97058
 This molecule is an asymmetric top.
 Rotational symmetry number  1.
 Warning -- assumption of classical behavior for rotation
           may cause significant error
 Rotational temperatures (Kelvin)      0.03538     0.02997     0.01707
 Rotational constants (GHZ):           0.73726     0.62451     0.35577
 Zero-point vibrational energy     529677.7 (Joules/Mol)
                                  126.59600 (Kcal/Mol)
 Warning -- explicit consideration of  19 degrees of freedom as
           vibrations may cause significant error
 Vibrational temperatures:     78.51   104.89   159.46   203.05   240.51
          (Kelvin)            303.37   346.29   387.60   402.97   416.42
                              487.06   519.84   570.81   603.22   620.40
                              666.06   691.64   757.35   771.47   905.79
                              935.37   980.28  1036.34  1040.32  1096.28
                             1118.65  1156.85  1233.12  1250.16  1325.69
                             1375.36  1408.16  1417.61  1500.49  1513.66
                             1534.26  1599.46  1622.72  1666.58  1682.78
                             1716.27  1747.52  1756.92  1777.79  1839.93
                             1879.50  1941.19  2009.28  2063.22  2083.31
                             2104.00  2124.15  2137.64  2145.59  2158.23
                             2171.67  2184.60  2216.30  2272.09  2292.32
                             2334.18  4181.04  4192.49  4342.18  4346.44
                             4460.27  4473.75  4505.82  4533.19  4543.83
                             4569.48  4576.14

 Zero-point correction=                           0.201744 (Hartree/Particle)
 Thermal correction to Energy=                    0.214558
 Thermal correction to Enthalpy=                  0.215502
 Thermal correction to Gibbs Free Energy=         0.162081
 Sum of electronic and zero-point Energies=           -669.116918
 Sum of electronic and thermal Energies=              -669.104104
 Sum of electronic and thermal Enthalpies=            -669.103159
 Sum of electronic and thermal Free Energies=         -669.156580

                     E (Thermal)             CV                S
                      KCal/Mol        Cal/Mol-Kelvin    Cal/Mol-Kelvin
 Total                  134.637             50.226            112.434
 Electronic               0.000              0.000              1.377
 Translational            0.889              2.981             41.800
 Rotational               0.889              2.981             31.951
 Vibrational            132.860             44.264             37.305
 Vibration     1          0.596              1.976              4.645
 Vibration     2          0.599              1.967              4.073
 Vibration     3          0.607              1.941              3.254
 Vibration     4          0.615              1.912              2.789
 Vibration     5          0.624              1.883              2.467
 Vibration     6          0.643              1.824              2.036
 Vibration     7          0.658              1.778              1.798
 Vibration     8          0.674              1.729              1.600
 Vibration     9          0.680              1.710              1.533
 Vibration    10          0.686              1.693              1.477
 Vibration    11          0.719              1.599              1.219
 Vibration    12          0.735              1.552              1.116
 Vibration    13          0.763              1.477              0.975
 Vibration    14          0.782              1.428              0.895
 Vibration    15          0.792              1.402              0.855
 Vibration    16          0.821              1.332              0.758
 Vibration    17          0.837              1.293              0.708
 Vibration    18          0.881              1.192              0.595
 Vibration    19          0.891              1.170              0.574

 Optimization completed.
    -- Stationary point found.
 Normal termination of Gaussian 16 at Tue Jan  9 21:18:18 2024.
