 Q-Chem 5.4, Q-Chem, Inc., Pleasanton, CA (2021)
 Q-Chem 5.4.0 for Intel X86 EM64T Linux

User input:
--------------------------------------------------------------
$molecule
-1 2
C                 -1.6548570000      2.8517870000     -0.7047740000
C                 -2.8650490000      2.1826710000     -0.6994420000
C                 -2.8897820000      0.7879440000     -0.5010050000
C                 -0.4333050000      2.1771120000     -0.5006570000
C                 -0.4612100000      0.7667360000     -0.2632510000
C                 -1.7069230000      0.1001550000     -0.2906870000
C                  0.8221720000      2.9451180000     -0.5717960000
C                  2.0937280000      2.1772220000     -0.4036830000
C                  1.9716110000      0.7610650000     -0.1175630000
C                  0.7857710000      0.0751420000     -0.0331100000
O                  0.8177960000      4.1772980000     -0.7741800000
O                  3.2169210000      2.7266280000     -0.4772230000
H                 -1.6016340000      3.9210930000     -0.8760160000
H                 -3.7913980000      2.7262870000     -0.8609750000
H                 -3.8329910000      0.2498070000     -0.5223230000
H                 -1.7189890000     -0.9762860000     -0.1643940000
H                  2.9166720000      0.2529110000      0.0460560000
N                  0.7276130000     -1.3310990000      0.2720630000
C                  1.8691400000     -2.1256740000     -0.1470270000
C                  0.3595870000     -1.6159900000      1.6568850000
H                  2.1124290000     -1.9020150000     -1.1869040000
H                  1.6115070000     -3.1880590000     -0.0681140000
H                  2.7768750000     -1.9585040000      0.4611480000
H                 -0.5119810000     -1.0264400000      1.9418010000
H                  1.1767370000     -1.3808170000      2.3634870000
H                  0.1098380000     -2.6782820000      1.7637260000
$end

$rem
BASIS  =  6-311++G(d,p)
GUI  =  2
JOB_TYPE  =  SP
METHOD  =  B3LYP
SCF_CONVERGENCE  = 8
SOLVENT_METHOD = sm12
$end

$smx
solvent dimethylformamide
charges CM5
$end

--------------------------------------------------------------

             Standard Nuclear Orientation (Angstroms)
    I     Atom           X                Y                Z
 ----------------------------------------------------------------
    1      C      -1.6548570000     2.8517870000    -0.7047740000
    2      C      -2.8650490000     2.1826710000    -0.6994420000
    3      C      -2.8897820000     0.7879440000    -0.5010050000
    4      C      -0.4333050000     2.1771120000    -0.5006570000
    5      C      -0.4612100000     0.7667360000    -0.2632510000
    6      C      -1.7069230000     0.1001550000    -0.2906870000
    7      C       0.8221720000     2.9451180000    -0.5717960000
    8      C       2.0937280000     2.1772220000    -0.4036830000
    9      C       1.9716110000     0.7610650000    -0.1175630000
   10      C       0.7857710000     0.0751420000    -0.0331100000
   11      O       0.8177960000     4.1772980000    -0.7741800000
   12      O       3.2169210000     2.7266280000    -0.4772230000
   13      H      -1.6016340000     3.9210930000    -0.8760160000
   14      H      -3.7913980000     2.7262870000    -0.8609750000
   15      H      -3.8329910000     0.2498070000    -0.5223230000
   16      H      -1.7189890000    -0.9762860000    -0.1643940000
   17      H       2.9166720000     0.2529110000     0.0460560000
   18      N       0.7276130000    -1.3310990000     0.2720630000
   19      C       1.8691400000    -2.1256740000    -0.1470270000
   20      C       0.3595870000    -1.6159900000     1.6568850000
   21      H       2.1124290000    -1.9020150000    -1.1869040000
   22      H       1.6115070000    -3.1880590000    -0.0681140000
   23      H       2.7768750000    -1.9585040000     0.4611480000
   24      H      -0.5119810000    -1.0264400000     1.9418010000
   25      H       1.1767370000    -1.3808170000     2.3634870000
   26      H       0.1098380000    -2.6782820000     1.7637260000
 ----------------------------------------------------------------

   18    -669.3128165619      5.64e-09  Convergence criterion met
 Total energy in the final basis set =     -669.4094141757

                    Orbital Energies (a.u.)
 --------------------------------------------------------------

 Alpha MOs
 -- Occupied --
-19.0761 -19.0704 -14.3254 -10.2175 -10.2158 -10.2118 -10.1974 -10.1948
-10.1886 -10.1839 -10.1831 -10.1824 -10.1795 -10.1787 -10.1637  -1.0099
 -0.9831  -0.9438  -0.8666  -0.8057  -0.7629  -0.7379  -0.7139  -0.6974
 -0.6393  -0.6226  -0.5998  -0.5649  -0.5194  -0.5073  -0.4974  -0.4669
 -0.4621  -0.4535  -0.4426  -0.4303  -0.4217  -0.4176  -0.4041  -0.4001
 -0.3910  -0.3841  -0.3767  -0.3728  -0.3602  -0.3462  -0.3440  -0.3126
 -0.2670  -0.2567  -0.2455  -0.2264  -0.2187  -0.1542

 Beta MOs
 -- Occupied --
-19.0694 -19.0643 -14.3250 -10.2161 -10.2147 -10.2097 -10.1972 -10.1949
-10.1877 -10.1836 -10.1829 -10.1821 -10.1789 -10.1783 -10.1640  -0.9989
 -0.9715  -0.9421  -0.8647  -0.8022  -0.7605  -0.7363  -0.7133  -0.6913
 -0.6360  -0.6213  -0.5961  -0.5628  -0.5177  -0.5055  -0.4952  -0.4650
 -0.4607  -0.4521  -0.4413  -0.4292  -0.4187  -0.4048  -0.4000  -0.3963
 -0.3890  -0.3817  -0.3757  -0.3617  -0.3585  -0.3429  -0.3231  -0.2981
 -0.2571  -0.2507  -0.2391  -0.2175  -0.2128

          Ground-State Mulliken Net Atomic Charges

     Atom                 Charge (a.u.)    Spin (a.u.)
  --------------------------------------------------------
      1 C                    -0.442711       0.051973
      2 C                     0.843493       0.013558
      3 C                     1.258515       0.063888
      4 C                    -0.706857       0.049785
      5 C                    -1.233922       0.051569
      6 C                     0.265391      -0.001909
      7 C                    -1.394446       0.074802
      8 C                    -1.685777       0.126976
      9 C                    -0.057533      -0.034191
     10 C                    -0.678226       0.095332
     11 O                    -0.367784       0.253811
     12 O                    -0.398046       0.225511
     13 H                     0.119132      -0.003932
     14 H                     0.332520      -0.001703
     15 H                     0.382421      -0.004378
     16 H                     0.222075       0.000223
     17 H                     0.100042       0.000750
     18 N                     0.534868       0.024089
     19 C                     0.448249       0.000832
     20 C                     0.185285       0.009174
     21 H                     0.147061      -0.000351
     22 H                     0.325859       0.000636
     23 H                     0.198572       0.001775
     24 H                     0.100490      -0.000092
     25 H                     0.151222      -0.001198
     26 H                     0.350107       0.003068
  --------------------------------------------------------
  Sum of atomic charges =    -1.000000

                    Cartesian Multipole Moments
 -----------------------------------------------------------------
    Charge (ESU x 10^10)
                -4.8032
    Dipole Moment (Debye)
         X      -7.3089      Y     -15.6625      Z       3.3571
       Tot      17.6069
    Quadrupole Moments (Debye-Ang)
        XX    -118.0629     XY     -27.8150     YY    -145.1453
        XZ       4.3034     YZ       8.5518     ZZ     -95.8223

 Total job time:  606.01s(wall), 4450.56s(cpu)
        *  Thank you very much for using Q-Chem.  Have a nice day.  *
