 Q-Chem 5.4, Q-Chem, Inc., Pleasanton, CA (2021)
 Q-Chem 5.4.0 for Intel X86 EM64T Linux

User input:
--------------------------------------------------------------
$molecule
-2 1
C                  2.4685440000     -4.8368420000      2.0676440000
C                  2.4821570000     -3.9618100000      0.9099920000
C                  2.0733140000     -2.6256680000      0.8642870000
C                  1.6266210000     -1.9692210000      2.0735610000
C                  1.6448480000     -2.8283330000      3.2488500000
C                  2.0182510000     -4.1851580000      3.2625490000
O                  2.7920920000     -6.0725430000      2.0206170000
O                  1.2127620000     -0.7635210000      2.0740300000
C                  2.0659620000     -5.0145720000      4.5211360000
C                  2.1603900000     -1.7938770000     -0.4124760000
C                  0.7655820000     -1.3506550000     -0.9009430000
C                  3.1027610000     -0.5818430000     -0.2514490000
N                  2.9148760000     -4.6037420000     -0.3361590000
N                  1.1625110000     -2.2446360000      4.4819160000
H                  2.3483350000     -4.4250910000      5.3988400000
H                  2.7825200000     -5.8241320000      4.3631160000
H                  1.0939300000     -5.4715310000      4.7487960000
H                  2.5826360000     -2.4179630000     -1.2028650000
H                  0.8472020000     -0.7578430000     -1.8241230000
H                  0.2815770000     -0.7492940000     -0.1287590000
H                  0.1465770000     -2.2274400000     -1.1131760000
H                  3.1632850000     -0.0153270000     -1.1925750000
H                  4.1130000000     -0.9161250000      0.0077190000
H                  2.7365130000      0.0714560000      0.5423940000
O                  4.0763560000     -5.0039770000     -0.4270650000
O                  2.0972970000     -4.7237420000     -1.2641840000
O                  0.3092540000     -2.8675380000      5.1546050000
O                  1.6004670000     -1.1462420000      4.8507640000
$end

$rem
BASIS  =  6-311++G(d,p)
GUI  =  2
JOB_TYPE  =  SP
METHOD  =  B3LYP
SCF_CONVERGENCE  = 8
SOLVENT_METHOD = sm12
$end

$smx
solvent dimethylformamide
charges CM5
$end

--------------------------------------------------------------

             Standard Nuclear Orientation (Angstroms)
    I     Atom           X                Y                Z
 ----------------------------------------------------------------
    1      C       2.4685440000    -4.8368420000     2.0676440000
    2      C       2.4821570000    -3.9618100000     0.9099920000
    3      C       2.0733140000    -2.6256680000     0.8642870000
    4      C       1.6266210000    -1.9692210000     2.0735610000
    5      C       1.6448480000    -2.8283330000     3.2488500000
    6      C       2.0182510000    -4.1851580000     3.2625490000
    7      O       2.7920920000    -6.0725430000     2.0206170000
    8      O       1.2127620000    -0.7635210000     2.0740300000
    9      C       2.0659620000    -5.0145720000     4.5211360000
   10      C       2.1603900000    -1.7938770000    -0.4124760000
   11      C       0.7655820000    -1.3506550000    -0.9009430000
   12      C       3.1027610000    -0.5818430000    -0.2514490000
   13      N       2.9148760000    -4.6037420000    -0.3361590000
   14      N       1.1625110000    -2.2446360000     4.4819160000
   15      H       2.3483350000    -4.4250910000     5.3988400000
   16      H       2.7825200000    -5.8241320000     4.3631160000
   17      H       1.0939300000    -5.4715310000     4.7487960000
   18      H       2.5826360000    -2.4179630000    -1.2028650000
   19      H       0.8472020000    -0.7578430000    -1.8241230000
   20      H       0.2815770000    -0.7492940000    -0.1287590000
   21      H       0.1465770000    -2.2274400000    -1.1131760000
   22      H       3.1632850000    -0.0153270000    -1.1925750000
   23      H       4.1130000000    -0.9161250000     0.0077190000
   24      H       2.7365130000     0.0714560000     0.5423940000
   25      O       4.0763560000    -5.0039770000    -0.4270650000
   26      O       2.0972970000    -4.7237420000    -1.2641840000
   27      O       0.3092540000    -2.8675380000     5.1546050000
   28      O       1.6004670000    -1.1462420000     4.8507640000
 ----------------------------------------------------------------

   20    -948.0255469581      5.82e-09  Convergence criterion met
 Total energy in the final basis set =     -948.2735925480

                    Orbital Energies (a.u.)
 --------------------------------------------------------------

 Alpha MOs
 -- Occupied --
-19.1492 -19.1468 -19.1310 -19.1279 -19.0333 -19.0289 -14.5317 -14.5147
-10.2063 -10.2006 -10.1986 -10.1916 -10.1803 -10.1652 -10.1609 -10.1601
-10.1592 -10.1581  -1.2136  -1.1929  -1.0376  -1.0166  -0.9597  -0.9528
 -0.8375  -0.8129  -0.7824  -0.7371  -0.7103  -0.6844  -0.6628  -0.6118
 -0.5915  -0.5620  -0.5436  -0.5330  -0.5251  -0.5088  -0.5000  -0.4933
 -0.4799  -0.4585  -0.4372  -0.4277  -0.4178  -0.4094  -0.3941  -0.3912
 -0.3788  -0.3706  -0.3634  -0.3625  -0.3427  -0.3368  -0.3336  -0.3299
 -0.3049  -0.3035  -0.2942  -0.2915  -0.2899  -0.2741  -0.2406  -0.2327
 -0.2119  -0.2057  -0.1368

          Ground-State Mulliken Net Atomic Charges

     Atom                 Charge (a.u.)
  ----------------------------------------
      1 C                    -1.601998
      2 C                    -0.926911
      3 C                     1.238994
      4 C                    -2.007353
      5 C                    -2.341233
      6 C                     1.540882
      7 O                    -0.420081
      8 O                    -0.273309
      9 C                     0.379864
     10 C                     1.290686
     11 C                    -0.181890
     12 C                    -0.161903
     13 N                    -0.075574
     14 N                    -0.233759
     15 H                     0.165313
     16 H                     0.154637
     17 H                     0.167760
     18 H                     0.082903
     19 H                     0.283673
     20 H                     0.131743
     21 H                     0.080560
     22 H                     0.285140
     23 H                     0.084049
     24 H                     0.130800
     25 O                     0.066241
     26 O                     0.056350
     27 O                     0.018406
     28 O                     0.066009
  ----------------------------------------
  Sum of atomic charges =    -2.000000

                    Cartesian Multipole Moments
 -----------------------------------------------------------------
    Charge (ESU x 10^10)
                -9.6064
    Dipole Moment (Debye)
         X     -18.9252      Y      32.6897      Z     -20.5844
       Tot      43.0174
    Quadrupole Moments (Debye-Ang)
        XX    -165.4203     XY      81.8677     YY    -280.2573
        XZ     -25.4736     YZ      53.1473     ZZ    -207.3468

 Total job time:  832.01s(wall), 6416.60s(cpu)
        *  Thank you very much for using Q-Chem.  Have a nice day.  *
