 Gaussian 16, Revision A.03,
 Gaussian 16:  ES64L-G16RevA.03 25-Dec-2016

 ----------------------------------------------------------------------
 #P UB3LYP/6-311++G(d,p) nosym opt freq SCRF=(PCM,Solvent=n,n-DiMethylF
 ormamide)
 ----------------------------------------------------------------------

 -------
 Radical
 -------
 Symbolic Z-matrix:
 Charge = -1 Multiplicity = 2

 SCF Done:  E(UB3LYP) =  -610.831506670     A.U. after   18 cycles
 SCF Done:  E(UB3LYP) =  -610.831640231     A.U. after   16 cycles
 SCF Done:  E(UB3LYP) =  -610.832339571     A.U. after   15 cycles
 SCF Done:  E(UB3LYP) =  -610.832443858     A.U. after   14 cycles
 SCF Done:  E(UB3LYP) =  -610.832472320     A.U. after   14 cycles
 SCF Done:  E(UB3LYP) =  -610.832488298     A.U. after   13 cycles
 SCF Done:  E(UB3LYP) =  -610.832493428     A.U. after   13 cycles
 SCF Done:  E(UB3LYP) =  -610.832494996     A.U. after   13 cycles
 SCF Done:  E(UB3LYP) =  -610.832495142     A.U. after   10 cycles
 SCF Done:  E(UB3LYP) =  -610.832495194     A.U. after   10 cycles
 Optimization completed.
    -- Stationary point found.
 Normal termination of Gaussian 16 at Sat Feb 10 11:33:16 2024.

 ----------------------------------------------------------------------
 #P Geom=AllCheck Guess=TCheck SCRF=Check GenChk UB3LYP/6-311++G(d,p) F
 req
 ----------------------------------------------------------------------

 Structure from the checkpoint file:  "086-rad.chk"
 -------
 Radical
 -------
 Charge = -1 Multiplicity = 2

                          Input orientation:
 ---------------------------------------------------------------------
 Center     Atomic      Atomic             Coordinates (Angstroms)
 Number     Number       Type             X           Y           Z
 ---------------------------------------------------------------------
      1          6           0        2.706067    1.416343   -0.246124
      2          8           0        2.473563    0.240182    0.546114
      3          6           0        1.259146   -0.382898    0.350820
      4          6           0        1.255187   -1.675255   -0.103117
      5          6           0        0.033459   -2.427845   -0.259411
      6          8           0        0.032354   -3.627908   -0.678622
      7          6           0       -1.188664   -1.731645    0.065000
      8          6           0       -1.189614   -0.439905    0.520528
      9          8           0       -2.392956    0.126657    0.884347
     10          6           0       -2.785598    1.288725    0.135753
     11          6           0        0.039105    0.313722    0.741392
     12          8           0        0.048705    1.465841    1.267246
     13          1           0        3.688384    1.789297    0.042863
     14          1           0        2.714920    1.158353   -1.310584
     15          1           0        1.947870    2.175154   -0.049968
     16          1           0        2.194038   -2.157990   -0.352999
     17          1           0       -2.129849   -2.257518   -0.055850
     18          1           0       -2.935022    1.026145   -0.917108
     19          1           0       -3.731580    1.621479    0.562294
     20          1           0       -2.039515    2.079066    0.223328
 ---------------------------------------------------------------------

 SCF Done:  E(UB3LYP) =  -610.832495194     A.U. after    1 cycles

 Alpha  occ. eigenvalues --  -19.13871 -19.13867 -19.08165 -19.07627 -10.22410
 Alpha  occ. eigenvalues --  -10.22317 -10.22181 -10.22178 -10.20899 -10.20895
 Alpha  occ. eigenvalues --  -10.15884 -10.15883  -1.05484  -1.04898  -0.99527
 Alpha  occ. eigenvalues --   -0.99393  -0.82233  -0.75378  -0.70605  -0.67782
 Alpha  occ. eigenvalues --   -0.67236  -0.58984  -0.57056  -0.50516  -0.50372
 Alpha  occ. eigenvalues --   -0.47550  -0.46623  -0.46367  -0.45368  -0.44377
 Alpha  occ. eigenvalues --   -0.42148  -0.41003  -0.40003  -0.38316  -0.38280
 Alpha  occ. eigenvalues --   -0.37196  -0.35391  -0.35311  -0.29703  -0.29162
 Alpha  occ. eigenvalues --   -0.26991  -0.24456  -0.24312  -0.23317  -0.16404
 Alpha virt. eigenvalues --   -0.00456  -0.00253   0.01251   0.01256   0.02237
 Alpha virt. eigenvalues --    0.03070   0.03340   0.03811   0.03983   0.04227
 Alpha virt. eigenvalues --    0.06034   0.06213   0.06493   0.07585   0.07929

  Beta  occ. eigenvalues --  -19.13855 -19.13850 -19.07443 -19.06966 -10.22216
  Beta  occ. eigenvalues --  -10.22199 -10.22082 -10.22077 -10.20895 -10.20891
  Beta  occ. eigenvalues --  -10.15782 -10.15781  -1.05322  -1.04836  -0.98332
  Beta  occ. eigenvalues --   -0.98211  -0.81656  -0.75199  -0.70266  -0.67652
  Beta  occ. eigenvalues --   -0.66367  -0.58652  -0.56721  -0.50332  -0.50157
  Beta  occ. eigenvalues --   -0.47466  -0.46210  -0.45928  -0.45251  -0.44248
  Beta  occ. eigenvalues --   -0.42079  -0.40275  -0.38723  -0.38155  -0.37459
  Beta  occ. eigenvalues --   -0.35162  -0.35063  -0.34389  -0.29488  -0.28447
  Beta  occ. eigenvalues --   -0.24266  -0.23792  -0.23674  -0.22770
  Beta virt. eigenvalues --   -0.09154  -0.00190   0.00527   0.01341   0.01590
  Beta virt. eigenvalues --    0.02668   0.03091   0.03782   0.04018   0.04250
  Beta virt. eigenvalues --    0.05156   0.06090   0.06231   0.06735   0.07589

 Mulliken charges and spin densities:
               1          2
     1  C   -0.304985   0.006629
     2  O   -0.212001  -0.000535
     3  C   -0.719477   0.150066
     4  C    0.844663   0.034443
     5  C   -0.737550   0.148119
     6  O   -0.517636   0.229973
     7  C    0.843960   0.034486
     8  C   -0.720902   0.150098
     9  O   -0.211718  -0.000536
    10  C   -0.305219   0.006653
    11  C    0.196570  -0.014001
    12  O   -0.503234   0.270496
    13  H    0.154468   0.000850
    14  H    0.141295  -0.000304
    15  H    0.170728  -0.001215
    16  H    0.207312  -0.007274
    17  H    0.207241  -0.007272
    18  H    0.141297  -0.000316
    19  H    0.154489   0.000862
    20  H    0.170698  -0.001223
 Sum of Mulliken charges =  -1.00000   1.00000

 Dipole moment (field-independent basis, Debye):
    X=             -0.4095    Y=              7.9902    Z=             -3.6454  Tot=              8.7920
 Quadrupole moment (field-independent basis, Debye-Ang):
   XX=            -74.5671   YY=           -110.9336   ZZ=            -82.0575
   XY=             -0.0587   XZ=             -0.2078   YZ=            -12.4961

  Exact polarizability: 171.261   1.455 246.412  -4.811  46.227 117.972
 Approx polarizability: 175.245   1.609 276.846  -4.225  57.195 133.653

                      1                      2                      3
                      A                      A                      A
 Frequencies --     72.3187                79.0092                89.3374
 Red. masses --      3.1383                 2.5512                 3.7945
 Frc consts  --      0.0097                 0.0094                 0.0178
 IR Inten    --     13.4745                 1.2929                12.8985

                      4                      5                      6
                      A                      A                      A
 Frequencies --    142.5254               149.9926               166.5994
 Red. masses --      1.2469                 1.2989                 3.3234
 Frc consts  --      0.0149                 0.0172                 0.0543
 IR Inten    --      2.3890                 1.2229                13.2469

                      7                      8                      9
                      A                      A                      A
 Frequencies --    192.4638               259.2715               294.7610
 Red. masses --      3.0547                 5.8637                 4.4554
 Frc consts  --      0.0667                 0.2322                 0.2281
 IR Inten    --      7.0249                10.5761                 9.1039

                     10                     11                     12
                      A                      A                      A
 Frequencies --    336.6528               343.8532               372.5236
 Red. masses --      7.5074                 6.6387                10.0099
 Frc consts  --      0.5013                 0.4625                 0.8184
 IR Inten    --      6.2264                 3.2259                 7.3156

                     13                     14                     15
                      A                      A                      A
 Frequencies --    413.1892               465.6731               483.3145
 Red. masses --      5.9790                 8.0205                 6.4955
 Frc consts  --      0.6014                 1.0247                 0.8940
 IR Inten    --      2.2486                 2.6806                20.8601

                     16                     17                     18
                      A                      A                      A
 Frequencies --    572.8557               609.5845               678.5957
 Red. masses --      7.1569                 3.9874                 3.1716
 Frc consts  --      1.3838                 0.8730                 0.8605
 IR Inten    --      3.4302                 2.0205                 6.2042

                     19                     20                     21
                      A                      A                      A
 Frequencies --    679.4799               777.4118               820.7954
 Red. masses --      4.5290                 8.1962                 6.1770
 Frc consts  --      1.2320                 2.9185                 2.4519
 IR Inten    --      8.6472                29.1216                75.9574

                     22                     23                     24
                      A                      A                      A
 Frequencies --    853.0849               864.2842               925.3211
 Red. masses --      1.4776                 1.7037                 5.8639
 Frc consts  --      0.6336                 0.7498                 2.9582
 IR Inten    --      0.1885                70.1314                54.9359

                     25                     26                     27
                      A                      A                      A
 Frequencies --    943.3581              1026.6311              1059.8500
 Red. masses --      3.9281                 3.4398                 6.7817
 Frc consts  --      2.0596                 2.1361                 4.4882
 IR Inten    --     53.8790                88.0411               232.3684

                     28                     29                     30
                      A                      A                      A
 Frequencies --   1159.3636              1160.6928              1178.4931
 Red. masses --      1.3147                 1.2748                 2.0995
 Frc consts  --      1.0412                 1.0119                 1.7180
 IR Inten    --     92.4117                 8.9199               302.4606

                     31                     32                     33
                      A                      A                      A
 Frequencies --   1187.8984              1211.8402              1220.2419
 Red. masses --      2.0496                 1.4915                 1.8877
 Frc consts  --      1.7040                 1.2906                 1.6561
 IR Inten    --    111.4140                47.6549               259.7340

                     34                     35                     36
                      A                      A                      A
 Frequencies --   1241.6397              1315.7382              1409.4324
 Red. masses --      3.0633                 2.5123                 5.2925
 Frc consts  --      2.7825                 2.5625                 6.1944
 IR Inten    --     99.9530                 9.2331               133.0546

                     37                     38                     39
                      A                      A                      A
 Frequencies --   1453.8504              1455.0877              1474.4201
 Red. masses --      1.3218                 1.2454                 1.1579
 Frc consts  --      1.6461                 1.5536                 1.4831
 IR Inten    --      3.0816               128.1296                37.7011

                     40                     41                     42
                      A                      A                      A
 Frequencies --   1475.3233              1493.3439              1499.4890
 Red. masses --      1.0647                 5.3661                 1.0675
 Frc consts  --      1.3654                 7.0506                 1.4142
 IR Inten    --      4.7806               252.0105                16.4500

                     43                     44                     45
                      A                      A                      A
 Frequencies --   1500.3409              1507.7026              1524.0752
 Red. masses --      1.0635                 5.5110                 4.4862
 Frc consts  --      1.4105                 7.3809                 6.1397
 IR Inten    --     12.3063              1131.9158                37.7327

                     46                     47                     48
                      A                      A                      A
 Frequencies --   1640.0258              3012.5454              3013.3349
 Red. masses --      7.7336                 1.0385                 1.0388
 Frc consts  --     12.2556                 5.5530                 5.5574
 IR Inten    --    130.9698                69.0064               140.0569

                     49                     50                     51
                      A                      A                      A
 Frequencies --   3094.8051              3095.7273              3130.3860
 Red. masses --      1.0944                 1.0940                 1.1064
 Frc consts  --      6.1759                 6.1773                 6.3880
 IR Inten    --     40.8791                59.5227                33.8869

                     52                     53                     54
                      A                      A                      A
 Frequencies --   3130.9852              3170.3091              3172.0627
 Red. masses --      1.1063                 1.0909                 1.0905
 Frc consts  --      6.3900                 6.4601                 6.4649
 IR Inten    --     22.8936                20.9027                13.5828

 - Thermochemistry -
 -------------------
 Temperature   298.150 Kelvin.  Pressure   1.00000 Atm.
 Atom     1 has atomic number  6 and mass  12.00000

 Molecular mass:   168.04226 amu.
 Principal axes and moments of inertia in atomic units:
                           1         2         3
     Eigenvalues --  1744.444231913.524683445.76331
           X            0.99732  -0.00697   0.07276
           Y            0.02350   0.97318  -0.22886
           Z           -0.06921   0.22996   0.97074
 This molecule is an asymmetric top.
 Rotational symmetry number  1.
 Warning -- assumption of classical behavior for rotation
           may cause significant error
 Rotational temperatures (Kelvin)      0.04965     0.04526     0.02514
 Rotational constants (GHZ):           1.03457     0.94315     0.52376
 Zero-point vibrational energy     386405.1 (Joules/Mol)
                                   92.35304 (Kcal/Mol)
 Warning -- explicit consideration of  17 degrees of freedom as
           vibrations may cause significant error
 Vibrational temperatures:    104.05   113.68   128.54   205.06   215.81
          (Kelvin)            239.70   276.91   373.03   424.10   484.37
                              494.73   535.98   594.49   670.00   695.38
                              824.21   877.06   976.35   977.62  1118.52
                             1180.94  1227.40  1243.51  1331.33  1357.28
                             1477.09  1524.89  1668.07  1669.98  1695.59
                             1709.12  1743.57  1755.66  1786.44  1893.05
                             2027.86  2091.77  2093.55  2121.36  2122.66
                             2148.59  2157.43  2158.66  2169.25  2192.80
                             2359.63  4334.38  4335.52  4452.73  4454.06
                             4503.93  4504.79  4561.37  4563.89

 Zero-point correction=                           0.147174 (Hartree/Particle)
 Thermal correction to Energy=                    0.158782
 Thermal correction to Enthalpy=                  0.159726
 Thermal correction to Gibbs Free Energy=         0.108680
 Sum of electronic and zero-point Energies=           -610.685321
 Sum of electronic and thermal Energies=              -610.673713
 Sum of electronic and thermal Enthalpies=            -610.672769
 Sum of electronic and thermal Free Energies=         -610.723816

                     E (Thermal)             CV                S
                      KCal/Mol        Cal/Mol-Kelvin    Cal/Mol-Kelvin
 Total                   99.637             41.902            107.437
 Electronic               0.000              0.000              1.377
 Translational            0.889              2.981             41.265
 Rotational               0.889              2.981             30.820
 Vibrational             97.860             35.941             33.974
 Vibration     1          0.598              1.967              4.089
 Vibration     2          0.600              1.963              3.915
 Vibration     3          0.602              1.957              3.675
 Vibration     4          0.616              1.911              2.770
 Vibration     5          0.618              1.903              2.672
 Vibration     6          0.624              1.884              2.474
 Vibration     7          0.634              1.850              2.204
 Vibration     8          0.668              1.747              1.667
 Vibration     9          0.689              1.684              1.446
 Vibration    10          0.717              1.602              1.228
 Vibration    11          0.723              1.588              1.194
 Vibration    12          0.744              1.529              1.069
 Vibration    13          0.777              1.442              0.915
 Vibration    14          0.823              1.326              0.750
 Vibration    15          0.839              1.287              0.701
 Vibration    16          0.929              1.090              0.499
 Vibration    17          0.969              1.012              0.433

 Optimization completed.
    -- Stationary point found.
 Normal termination of Gaussian 16 at Sat Feb 10 11:49:31 2024.
