 Gaussian 16, Revision A.03,
 Gaussian 16:  ES64L-G16RevA.03 25-Dec-2016

 ----------------------------------------------------------------
 #P UB3LYP/6-311++G(d,p) SCRF=(PCM,Solvent=n,n-DiMethylFormamide)
 ----------------------------------------------------------------

 -------
 Reduced
 -------
 Symbolic Z-matrix:
 Charge = -2 Multiplicity = 1

                         Standard orientation:
 ---------------------------------------------------------------------
 Center     Atomic      Atomic             Coordinates (Angstroms)
 Number     Number       Type             X           Y           Z
 ---------------------------------------------------------------------
      1          6           0        3.524954   -0.046595    1.024102
      2          6           0        2.845534   -1.213521    0.532837
      3          6           0        2.868633    1.153804    0.586349
      4          6           0        1.583551    1.189349    0.053105
      5          6           0        0.746199    0.003698    0.030982
      6          6           0        1.559215   -1.198975    0.002898
      7          6           0       -0.746173    0.004558   -0.030404
      8          6           0       -1.560723   -1.197142   -0.002695
      9          6           0       -1.581886    1.191328   -0.052741
     10          6           0       -2.867032    1.157562   -0.585929
     11          6           0       -3.525025   -0.041893   -1.023640
     12          6           0       -2.847078   -1.209767   -0.532652
     13          8           0        4.651948   -0.071319    1.621660
     14          8           0       -4.652099   -0.065059   -1.621120
     15          6           0        1.267415    2.406030   -0.842507
     16          6           0        1.944352    2.200226   -2.218610
     17          6           0        1.691070    3.776222   -0.280994
     18          6           0       -1.263695    2.408082    0.842026
     19          6           0       -1.939369    2.203699    2.218982
     20          6           0       -1.686733    3.778334    0.280131
     21          6           0       -1.205215   -2.374740    0.930731
     22          6           0       -1.660563   -3.765467    0.451295
     23          6           0       -1.813110   -2.103070    2.326985
     24          6           0        1.201581   -2.375723   -0.930816
     25          6           0        1.809673   -2.104656   -2.327125
     26          6           0        1.654628   -3.767417   -0.452049
     27          1           0        3.440908   -2.121351    0.495990
     28          1           0        3.483129    2.049903    0.585635
     29          1           0       -3.480226    2.054548   -0.585335
     30          1           0       -3.443621   -2.116828   -0.496094
     31          1           0        0.200991    2.431779   -1.047221
     32          1           0        1.689396    3.021554   -2.903374
     33          1           0        1.611808    1.264016   -2.671804
     34          1           0        3.033122    2.157261   -2.116073
     35          1           0        1.285877    3.953459    0.718005
     36          1           0        1.340959    4.583108   -0.936962
     37          1           0        2.779970    3.857924   -0.213397
     38          1           0       -0.197078    2.433142    1.045737
     39          1           0       -3.028358    2.162914    2.117822
     40          1           0       -1.682013    3.024633    2.903315
     41          1           0       -1.608100    1.266886    2.671887
     42          1           0       -2.775665    3.861507    0.215112
     43          1           0       -1.283780    3.953934   -0.720080
     44          1           0       -1.333938    4.585405    0.934429
     45          1           0       -0.129689   -2.401908    1.083450
     46          1           0       -1.269747   -4.544341    1.117966
     47          1           0       -1.314295   -3.983158   -0.561757
     48          1           0       -2.751408   -3.850906    0.452406
     49          1           0       -1.542554   -2.902862    3.030850
     50          1           0       -2.904656   -2.041693    2.272002
     51          1           0       -1.440992   -1.157990    2.728002
     52          1           0        0.125967   -2.400774   -1.083454
     53          1           0        1.536353   -2.902953   -3.031628
     54          1           0        2.901445   -2.046610   -2.272774
     55          1           0        1.440175   -1.158085   -2.727030
     56          1           0        1.262543   -4.545327   -1.119106
     57          1           0        1.308140   -3.985146    0.560922
     58          1           0        2.745330   -3.854573   -0.453342
 ---------------------------------------------------------------------

 SCF Done:  E(UB3LYP) =  -1084.75024779     A.U. after   16 cycles

 The electronic state is 1-A.
 Alpha  occ. eigenvalues --  -19.03163 -19.03162 -10.18264 -10.18263 -10.15885
 Alpha  occ. eigenvalues --  -10.15883 -10.15838 -10.15837 -10.15028 -10.15027
 Alpha  occ. eigenvalues --  -10.15016 -10.15015 -10.14618 -10.14590 -10.14536
 Alpha  occ. eigenvalues --  -10.14536 -10.14511 -10.14511 -10.14475 -10.14474
 Alpha  occ. eigenvalues --  -10.14472 -10.14472 -10.11790 -10.11789 -10.11779
 Alpha  occ. eigenvalues --  -10.11778  -0.94857  -0.94854  -0.83321  -0.81031
 Alpha  occ. eigenvalues --   -0.79682  -0.78379  -0.75931  -0.75006  -0.70785
 Alpha  occ. eigenvalues --   -0.69107  -0.68788  -0.67227  -0.67162  -0.67005
 Alpha  occ. eigenvalues --   -0.66722  -0.65059  -0.60760  -0.59357  -0.58489
 Alpha  occ. eigenvalues --   -0.56753  -0.54494  -0.52467  -0.51481  -0.51156
 Alpha  occ. eigenvalues --   -0.47880  -0.46814  -0.44041  -0.43997  -0.43673
 Alpha  occ. eigenvalues --   -0.42849  -0.42102  -0.42026  -0.41921  -0.41684
 Alpha  occ. eigenvalues --   -0.41358  -0.39772  -0.39767  -0.39440  -0.38926
 Alpha  occ. eigenvalues --   -0.38266  -0.37910  -0.37813  -0.37475  -0.37044
 Alpha  occ. eigenvalues --   -0.37015  -0.36831  -0.35633  -0.34941  -0.34434
 Alpha  occ. eigenvalues --   -0.34382  -0.34057  -0.33961  -0.33126  -0.32845
 Alpha  occ. eigenvalues --   -0.32639  -0.32598  -0.32406  -0.31522  -0.31266
 Alpha  occ. eigenvalues --   -0.30951  -0.30254  -0.30238  -0.28568  -0.28422
 Alpha  occ. eigenvalues --   -0.24279  -0.20701  -0.20692  -0.19715  -0.19241
 Alpha  occ. eigenvalues --   -0.18519  -0.12280
 Alpha virt. eigenvalues --   -0.01514  -0.00455   0.00406   0.00767   0.01200
 Alpha virt. eigenvalues --    0.01913   0.01940   0.02141   0.02346   0.02374
 Alpha virt. eigenvalues --    0.02454   0.03075   0.03811   0.03850   0.04037

  Beta  occ. eigenvalues --  -19.03163 -19.03162 -10.18264 -10.18263 -10.15885
  Beta  occ. eigenvalues --  -10.15883 -10.15838 -10.15837 -10.15028 -10.15027
  Beta  occ. eigenvalues --  -10.15016 -10.15015 -10.14618 -10.14590 -10.14536
  Beta  occ. eigenvalues --  -10.14536 -10.14511 -10.14511 -10.14475 -10.14474
  Beta  occ. eigenvalues --  -10.14472 -10.14472 -10.11790 -10.11789 -10.11779
  Beta  occ. eigenvalues --  -10.11778  -0.94857  -0.94854  -0.83321  -0.81031
  Beta  occ. eigenvalues --   -0.79682  -0.78379  -0.75931  -0.75006  -0.70785
  Beta  occ. eigenvalues --   -0.69107  -0.68788  -0.67227  -0.67162  -0.67005
  Beta  occ. eigenvalues --   -0.66722  -0.65059  -0.60760  -0.59357  -0.58489
  Beta  occ. eigenvalues --   -0.56753  -0.54494  -0.52467  -0.51481  -0.51156
  Beta  occ. eigenvalues --   -0.47880  -0.46814  -0.44041  -0.43997  -0.43673
  Beta  occ. eigenvalues --   -0.42849  -0.42102  -0.42026  -0.41921  -0.41684
  Beta  occ. eigenvalues --   -0.41358  -0.39772  -0.39767  -0.39440  -0.38926
  Beta  occ. eigenvalues --   -0.38266  -0.37910  -0.37813  -0.37475  -0.37044
  Beta  occ. eigenvalues --   -0.37015  -0.36831  -0.35633  -0.34941  -0.34434
  Beta  occ. eigenvalues --   -0.34382  -0.34057  -0.33961  -0.33126  -0.32845
  Beta  occ. eigenvalues --   -0.32639  -0.32598  -0.32406  -0.31522  -0.31266
  Beta  occ. eigenvalues --   -0.30951  -0.30254  -0.30238  -0.28568  -0.28422
  Beta  occ. eigenvalues --   -0.24279  -0.20701  -0.20692  -0.19715  -0.19241
  Beta  occ. eigenvalues --   -0.18519  -0.12280
  Beta virt. eigenvalues --   -0.01514  -0.00455   0.00406   0.00767   0.01200
  Beta virt. eigenvalues --    0.01913   0.01940   0.02141   0.02346   0.02374
  Beta virt. eigenvalues --    0.02454   0.03075   0.03811   0.03850   0.04037

 Mulliken charges and spin densities:
               1          2
     1  C   -0.556862  -0.000000
     2  C   -0.381314  -0.000000
     3  C   -0.371098   0.000000
     4  C    0.431983  -0.000000
     5  C    0.180135  -0.000000
     6  C    0.453134   0.000000
     7  C    0.179767   0.000000
     8  C    0.452442  -0.000000
     9  C    0.430751  -0.000000
    10  C   -0.371476   0.000000
    11  C   -0.556885   0.000000
    12  C   -0.381430  -0.000000
    13  O   -0.637727   0.000000
    14  O   -0.637761  -0.000000
    15  C    0.034445   0.000000
    16  C   -0.627917  -0.000000
    17  C   -0.721564   0.000000
    18  C    0.037100   0.000000
    19  C   -0.628077   0.000000
    20  C   -0.721755  -0.000000
    21  C    0.018075   0.000000
    22  C   -0.717864  -0.000000
    23  C   -0.648735   0.000000
    24  C    0.017036  -0.000000
    25  C   -0.648701  -0.000000
    26  C   -0.717976   0.000000
    27  H    0.152493   0.000000
    28  H    0.151859  -0.000000
    29  H    0.151854   0.000000
    30  H    0.152459  -0.000000
    31  H    0.254386   0.000000
    32  H    0.147688  -0.000000
    33  H    0.114184   0.000000
    34  H    0.166577   0.000000
    35  H    0.138364   0.000000
    36  H    0.163922   0.000000
    37  H    0.131867  -0.000000
    38  H    0.254628   0.000000
    39  H    0.166499   0.000000
    40  H    0.147753   0.000000
    41  H    0.114084  -0.000000
    42  H    0.131754  -0.000000
    43  H    0.138674   0.000000
    44  H    0.163979  -0.000000
    45  H    0.254280  -0.000000
    46  H    0.165487   0.000000
    47  H    0.137692  -0.000000
    48  H    0.131628   0.000000
    49  H    0.145282  -0.000000
    50  H    0.166770  -0.000000
    51  H    0.123390  -0.000000
    52  H    0.254639   0.000000
    53  H    0.145341   0.000000
    54  H    0.166686   0.000000
    55  H    0.123278  -0.000000
    56  H    0.165512  -0.000000
    57  H    0.137666  -0.000000
    58  H    0.131602   0.000000
 Sum of Mulliken charges =  -2.00000  -0.00000

 Dipole moment (field-independent basis, Debye):
    X=              0.0002    Y=              0.4884    Z=             -0.0034  Tot=              0.4884
 Quadrupole moment (field-independent basis, Debye-Ang):
   XX=           -335.2018   YY=           -176.5148   ZZ=           -197.2951
   XY=              0.1076   XZ=            -55.1081   YZ=              0.0351

 Normal termination of Gaussian 16 at Sat Jan 13 19:37:19 2024.
