 Gaussian 16, Revision A.03,
 Gaussian 16:  ES64L-G16RevA.03 25-Dec-2016

 ----------------------------------------------------------------
 #P UB3LYP/6-311++G(d,p) SCRF=(PCM,Solvent=n,n-DiMethylFormamide)
 ----------------------------------------------------------------

 -------
 Reduced
 -------
 Symbolic Z-matrix:
 Charge = -2 Multiplicity = 1

                         Standard orientation:
 ---------------------------------------------------------------------
 Center     Atomic      Atomic             Coordinates (Angstroms)
 Number     Number       Type             X           Y           Z
 ---------------------------------------------------------------------
      1          6           0       -1.396233    3.742121   -0.055718
      2          6           0       -0.714232    4.941271   -0.027866
      3          6           0        0.703614    4.942770    0.028996
      4          6           0       -0.715889    2.500056   -0.030005
      5          6           0        0.710497    2.501570    0.029466
      6          6           0        1.388184    3.745060    0.056013
      7          6           0       -1.476380    1.267898   -0.072399
      8          6           0        1.473559    1.270984    0.071127
      9          6           0       -0.726432    0.024205   -0.057327
     10          6           0        0.726222    0.025777    0.055582
     11          6           0       -1.425975   -1.241060   -0.152606
     12          6           0       -0.696749   -2.421246   -0.075348
     13          6           0        0.701911   -2.419796    0.072065
     14          6           0        1.428504   -1.238023    0.150382
     15          8           0       -2.763132    1.328164   -0.115855
     16          8           0        2.760193    1.333896    0.114382
     17          1           0       -2.479047    3.706053   -0.099694
     18          1           0       -1.259750    5.882014   -0.050504
     19          1           0        1.247124    5.884657    0.052333
     20          1           0        2.471071    3.711274    0.099996
     21          1           0        1.210872   -3.373882    0.146294
     22          1           0       -1.203551   -3.376383   -0.150941
     23          7           0       -2.803190   -1.249292   -0.376964
     24          7           0        2.805539   -1.243206    0.375097
     25          1           0       -3.192501   -0.302935   -0.256699
     26          1           0        3.193124   -0.296127    0.255017
     27          6           0        3.661451   -2.375216    0.082342
     28          6           0        5.037137   -2.127507    0.714516
     29          6           0        3.791097   -2.668878   -1.427882
     30          6           0       -3.656607   -2.382290   -0.080280
     31          6           0       -3.783431   -2.672538    1.430816
     32          6           0       -5.033647   -2.138643   -0.711052
     33          1           0        3.240017   -3.269360    0.561233
     34          1           0        5.714990   -2.970909    0.544529
     35          1           0        4.938613   -1.969750    1.792332
     36          1           0        5.500167   -1.231785    0.285530
     37          1           0        2.801779   -2.800620   -1.873724
     38          1           0        4.381900   -3.574325   -1.613589
     39          1           0        4.280797   -1.828461   -1.931817
     40          1           0       -3.234281   -3.276766   -0.557730
     41          1           0       -2.793196   -2.801578    1.875413
     42          1           0       -4.372450   -3.578508    1.619613
     43          1           0       -4.273760   -1.831682    1.933389
     44          1           0       -5.497969   -1.243019   -0.283272
     45          1           0       -5.709555   -2.983097   -0.538459
     46          1           0       -4.936920   -1.982899   -1.789333
 ---------------------------------------------------------------------

 SCF Done:  E(UB3LYP) =  -1035.86929783     A.U. after   16 cycles

 The electronic state is 1-A.
 Alpha  occ. eigenvalues --  -19.02004 -19.02003 -14.26892 -14.26888 -10.18902
 Alpha  occ. eigenvalues --  -10.18899 -10.17292 -10.17291 -10.16996 -10.16992
 Alpha  occ. eigenvalues --  -10.14961 -10.14960 -10.14646 -10.14601 -10.14485
 Alpha  occ. eigenvalues --  -10.14484 -10.14310 -10.14310 -10.13626 -10.13591
 Alpha  occ. eigenvalues --  -10.13009 -10.12966 -10.12385 -10.12335  -0.94808
 Alpha  occ. eigenvalues --   -0.94479  -0.89491  -0.89102  -0.82386  -0.80234
 Alpha  occ. eigenvalues --   -0.76243  -0.74943  -0.73561  -0.71995  -0.70111
 Alpha  occ. eigenvalues --   -0.67943  -0.67593  -0.67012  -0.62604  -0.60657
 Alpha  occ. eigenvalues --   -0.60007  -0.57685  -0.56386  -0.54519  -0.53055
 Alpha  occ. eigenvalues --   -0.49729  -0.49432  -0.47532  -0.46220  -0.44733
 Alpha  occ. eigenvalues --   -0.44184  -0.43525  -0.43065  -0.42464  -0.41816
 Alpha  occ. eigenvalues --   -0.41060  -0.40312  -0.39773  -0.39416  -0.38032
 Alpha  occ. eigenvalues --   -0.37869  -0.37592  -0.37475  -0.37295  -0.36636
 Alpha  occ. eigenvalues --   -0.36325  -0.35488  -0.34739  -0.34269  -0.34007
 Alpha  occ. eigenvalues --   -0.33329  -0.33147  -0.32620  -0.32449  -0.31963
 Alpha  occ. eigenvalues --   -0.31213  -0.30187  -0.30178  -0.27798  -0.22831
 Alpha  occ. eigenvalues --   -0.22705  -0.21646  -0.21037  -0.20135  -0.19136
 Alpha  occ. eigenvalues --   -0.15073  -0.09450
 Alpha virt. eigenvalues --   -0.01478  -0.00291   0.00341   0.00502   0.00800
 Alpha virt. eigenvalues --    0.01610   0.01708   0.01974   0.02327   0.02653
 Alpha virt. eigenvalues --    0.03162   0.04052   0.04106   0.04454   0.04594

  Beta  occ. eigenvalues --  -19.02004 -19.02003 -14.26892 -14.26888 -10.18902
  Beta  occ. eigenvalues --  -10.18899 -10.17292 -10.17291 -10.16996 -10.16992
  Beta  occ. eigenvalues --  -10.14961 -10.14960 -10.14646 -10.14601 -10.14485
  Beta  occ. eigenvalues --  -10.14484 -10.14310 -10.14310 -10.13626 -10.13591
  Beta  occ. eigenvalues --  -10.13009 -10.12966 -10.12385 -10.12335  -0.94808
  Beta  occ. eigenvalues --   -0.94479  -0.89491  -0.89102  -0.82386  -0.80234
  Beta  occ. eigenvalues --   -0.76243  -0.74943  -0.73561  -0.71995  -0.70111
  Beta  occ. eigenvalues --   -0.67943  -0.67593  -0.67012  -0.62604  -0.60657
  Beta  occ. eigenvalues --   -0.60007  -0.57685  -0.56386  -0.54519  -0.53055
  Beta  occ. eigenvalues --   -0.49729  -0.49432  -0.47532  -0.46220  -0.44733
  Beta  occ. eigenvalues --   -0.44184  -0.43525  -0.43065  -0.42464  -0.41816
  Beta  occ. eigenvalues --   -0.41060  -0.40312  -0.39773  -0.39416  -0.38032
  Beta  occ. eigenvalues --   -0.37869  -0.37592  -0.37475  -0.37295  -0.36636
  Beta  occ. eigenvalues --   -0.36325  -0.35488  -0.34739  -0.34269  -0.34007
  Beta  occ. eigenvalues --   -0.33329  -0.33147  -0.32620  -0.32449  -0.31963
  Beta  occ. eigenvalues --   -0.31213  -0.30187  -0.30178  -0.27798  -0.22831
  Beta  occ. eigenvalues --   -0.22705  -0.21646  -0.21037  -0.20135  -0.19136
  Beta  occ. eigenvalues --   -0.15073  -0.09450
  Beta virt. eigenvalues --   -0.01478  -0.00291   0.00341   0.00502   0.00800
  Beta virt. eigenvalues --    0.01610   0.01708   0.01974   0.02327   0.02653
  Beta virt. eigenvalues --    0.03162   0.04052   0.04106   0.04454   0.04594

 Mulliken charges and spin densities:
               1          2
     1  C   -0.203706  -0.000000
     2  C   -0.432718  -0.000000
     3  C   -0.432651   0.000000
     4  C    0.340998  -0.000000
     5  C    0.341221  -0.000000
     6  C   -0.203483  -0.000000
     7  C   -0.319346   0.000000
     8  C   -0.318764  -0.000000
     9  C    0.035795   0.000000
    10  C    0.036326   0.000000
    11  C   -0.413067   0.000000
    12  C   -0.085885  -0.000000
    13  C   -0.085618  -0.000000
    14  C   -0.412688   0.000000
    15  O   -0.614959  -0.000000
    16  O   -0.615107  -0.000000
    17  H    0.136339  -0.000000
    18  H    0.155473   0.000000
    19  H    0.155473  -0.000000
    20  H    0.136337  -0.000000
    21  H    0.160342  -0.000000
    22  H    0.160189   0.000000
    23  N   -0.111046  -0.000000
    24  N   -0.111369  -0.000000
    25  H    0.394897   0.000000
    26  H    0.395046  -0.000000
    27  C    0.095245  -0.000000
    28  C   -0.544613  -0.000000
    29  C   -0.551978   0.000000
    30  C    0.094939   0.000000
    31  C   -0.552413  -0.000000
    32  C   -0.544595   0.000000
    33  H    0.103491   0.000000
    34  H    0.147483   0.000000
    35  H    0.148762   0.000000
    36  H    0.137579   0.000000
    37  H    0.138910  -0.000000
    38  H    0.133449   0.000000
    39  H    0.148072  -0.000000
    40  H    0.103463  -0.000000
    41  H    0.138911   0.000000
    42  H    0.133454   0.000000
    43  H    0.148055  -0.000000
    44  H    0.137570  -0.000000
    45  H    0.147406  -0.000000
    46  H    0.148782  -0.000000
 Sum of Mulliken charges =  -2.00000  -0.00000

 Dipole moment (field-independent basis, Debye):
    X=              0.0178    Y=            -10.7901    Z=              0.0111  Tot=             10.7901
 Quadrupole moment (field-independent basis, Debye-Ang):
   XX=           -200.2460   YY=           -190.2943   ZZ=           -162.9268
   XY=             -0.0155   XZ=             -4.5965   YZ=             -0.0089

 Normal termination of Gaussian 16 at Sun Jan 14 01:41:39 2024.
