 Gaussian 16, Revision A.03,
 Gaussian 16:  ES64L-G16RevA.03 25-Dec-2016

 --------------------------------------
 #P UB3LYP/6-311++G(d,p) nosym opt freq
 --------------------------------------

 --------
 Oxidized
 --------
 Symbolic Z-matrix:
 Charge =  0 Multiplicity = 1

 SCF Done:  E(UB3LYP) =  -3777.43137541     A.U. after   18 cycles
 SCF Done:  E(UB3LYP) =  -3777.45336008     A.U. after   16 cycles
 SCF Done:  E(UB3LYP) =  -3777.46228929     A.U. after   14 cycles
 SCF Done:  E(UB3LYP) =  -3777.46516773     A.U. after   14 cycles
 SCF Done:  E(UB3LYP) =  -3777.47238691     A.U. after   16 cycles
 SCF Done:  E(UB3LYP) =  -3777.47484990     A.U. after   13 cycles
 SCF Done:  E(UB3LYP) =  -3777.48334574     A.U. after   15 cycles
 SCF Done:  E(UB3LYP) =  -3777.48575443     A.U. after   13 cycles
 SCF Done:  E(UB3LYP) =  -3777.48639361     A.U. after   13 cycles
 SCF Done:  E(UB3LYP) =  -3777.48647709     A.U. after   12 cycles
 SCF Done:  E(UB3LYP) =  -3777.48648991     A.U. after    9 cycles
 SCF Done:  E(UB3LYP) =  -3777.48649016     A.U. after   10 cycles
 SCF Done:  E(UB3LYP) =  -3777.48649031     A.U. after   10 cycles
 SCF Done:  E(UB3LYP) =  -3777.48649042     A.U. after   10 cycles
 SCF Done:  E(UB3LYP) =  -3777.48649051     A.U. after   10 cycles
 SCF Done:  E(UB3LYP) =  -3777.48649057     A.U. after   10 cycles
 SCF Done:  E(UB3LYP) =  -3777.48649061     A.U. after   10 cycles
 SCF Done:  E(UB3LYP) =  -3777.48649063     A.U. after   10 cycles
 SCF Done:  E(UB3LYP) =  -3777.48649065     A.U. after   10 cycles
 Optimization completed.
    -- Stationary point found.
 Normal termination of Gaussian 16 at Thu Dec 21 08:46:02 2023.

 ----------------------------------------------------------------------
 #P Geom=AllCheck Guess=TCheck SCRF=Check GenChk UB3LYP/6-311++G(d,p) F
 req
 ----------------------------------------------------------------------

 Structure from the checkpoint file:  "161.chk"
 --------
 Oxidized
 --------
 Charge =  0 Multiplicity = 1

                          Input orientation:
 ---------------------------------------------------------------------
 Center     Atomic      Atomic             Coordinates (Angstroms)
 Number     Number       Type             X           Y           Z
 ---------------------------------------------------------------------
      1          7           0       -4.525098    1.019030   -0.504690
      2          6           0       -3.299486    0.442473   -0.403756
      3          6           0       -3.161384   -0.963827   -0.417758
      4         17           0       -4.603473   -1.951039   -0.608554
      5          6           0       -1.938962   -1.577530   -0.290116
      6          6           0       -0.779208   -0.816756   -0.138995
      7          6           0        0.496262   -1.569909   -0.011299
      8          8           0        0.513688   -2.792213   -0.032269
      9          6           0        1.747331   -0.785146    0.139039
     10          6           0        2.970541   -1.453116    0.251867
     11          6           0        4.147601   -0.728826    0.392290
     12          6           0        4.109683    0.668398    0.422057
     13          6           0        2.896805    1.337221    0.311827
     14          6           0        1.706244    0.615758    0.168656
     15          6           0        0.424041    1.378514    0.055761
     16          8           0        0.444069    2.594160    0.109279
     17          6           0       -0.849794    0.597146   -0.117939
     18          6           0       -2.108526    1.202273   -0.254378
     19         35           0       -2.368550    3.104260   -0.267275
     20          1           0       -4.591017    2.018248   -0.612019
     21          1           0       -5.320748    0.448499   -0.736302
     22          1           0       -1.853017   -2.655838   -0.304486
     23          1           0        2.971666   -2.535664    0.226645
     24          1           0        5.095504   -1.247629    0.479094
     25          1           0        5.028530    1.233117    0.531806
     26          1           0        2.847297    2.418396    0.334104
 ---------------------------------------------------------------------

 SCF Done:  E(UB3LYP) =  -3777.48649065     A.U. after    1 cycles

 Alpha  occ. eigenvalues -- -482.84610-101.57976 -62.49887 -56.31933 -56.31542
 Alpha  occ. eigenvalues --  -56.31504 -19.13006 -19.12326 -14.35805 -10.28669
 Alpha  occ. eigenvalues --  -10.27770 -10.27170 -10.26335 -10.26179 -10.22895
 Alpha  occ. eigenvalues --  -10.21144 -10.21040 -10.20980 -10.20847 -10.20280
 Alpha  occ. eigenvalues --  -10.20225 -10.19930 -10.19918  -9.49434  -8.70864
 Alpha  occ. eigenvalues --   -7.25886  -7.24912  -7.24896  -6.54031  -6.52729
 Alpha  occ. eigenvalues --   -6.52637  -2.65119  -2.64762  -2.64695  -2.63658
 Alpha  occ. eigenvalues --   -2.63656  -1.06792  -1.05806  -0.97791  -0.90516
 Alpha  occ. eigenvalues --   -0.89207  -0.87841  -0.82774  -0.80481  -0.78024
 Alpha  occ. eigenvalues --   -0.76583  -0.75921  -0.69141  -0.67129  -0.64992
 Alpha  occ. eigenvalues --   -0.62848  -0.59624  -0.57969  -0.56630  -0.54968
 Alpha  occ. eigenvalues --   -0.52911  -0.50118  -0.49291  -0.49095  -0.46413
 Alpha  occ. eigenvalues --   -0.46019  -0.45525  -0.45387  -0.45016  -0.44139
 Alpha  occ. eigenvalues --   -0.43626  -0.43178  -0.41813  -0.39313  -0.38666
 Alpha  occ. eigenvalues --   -0.38409  -0.37263  -0.37104  -0.34659  -0.34456
 Alpha  occ. eigenvalues --   -0.32509  -0.31872  -0.28707  -0.27995  -0.27967
 Alpha  occ. eigenvalues --   -0.27234  -0.26452  -0.24144
 Alpha virt. eigenvalues --   -0.11657  -0.07696  -0.04082  -0.03681  -0.03107
 Alpha virt. eigenvalues --   -0.01255  -0.00760   0.00139   0.00964   0.01308
 Alpha virt. eigenvalues --    0.02226   0.03003   0.03245   0.03566   0.03873

  Beta  occ. eigenvalues -- -482.84610-101.57976 -62.49887 -56.31933 -56.31542
  Beta  occ. eigenvalues --  -56.31504 -19.13006 -19.12326 -14.35805 -10.28669
  Beta  occ. eigenvalues --  -10.27770 -10.27170 -10.26335 -10.26179 -10.22895
  Beta  occ. eigenvalues --  -10.21144 -10.21040 -10.20980 -10.20847 -10.20280
  Beta  occ. eigenvalues --  -10.20225 -10.19930 -10.19918  -9.49434  -8.70864
  Beta  occ. eigenvalues --   -7.25886  -7.24912  -7.24896  -6.54031  -6.52729
  Beta  occ. eigenvalues --   -6.52637  -2.65119  -2.64762  -2.64695  -2.63658
  Beta  occ. eigenvalues --   -2.63656  -1.06792  -1.05806  -0.97791  -0.90516
  Beta  occ. eigenvalues --   -0.89207  -0.87841  -0.82774  -0.80481  -0.78024
  Beta  occ. eigenvalues --   -0.76583  -0.75921  -0.69141  -0.67129  -0.64992
  Beta  occ. eigenvalues --   -0.62848  -0.59624  -0.57969  -0.56630  -0.54968
  Beta  occ. eigenvalues --   -0.52911  -0.50118  -0.49291  -0.49095  -0.46413
  Beta  occ. eigenvalues --   -0.46019  -0.45525  -0.45387  -0.45016  -0.44139
  Beta  occ. eigenvalues --   -0.43626  -0.43178  -0.41813  -0.39313  -0.38666
  Beta  occ. eigenvalues --   -0.38409  -0.37263  -0.37104  -0.34659  -0.34456
  Beta  occ. eigenvalues --   -0.32509  -0.31872  -0.28707  -0.27995  -0.27967
  Beta  occ. eigenvalues --   -0.27234  -0.26452  -0.24144
  Beta virt. eigenvalues --   -0.11657  -0.07696  -0.04082  -0.03681  -0.03107
  Beta virt. eigenvalues --   -0.01255  -0.00760   0.00139   0.00964   0.01308
  Beta virt. eigenvalues --    0.02226   0.03003   0.03245   0.03566   0.03873

 Mulliken charges and spin densities:
               1          2
     1  N   -0.158905  -0.000000
     2  C   -0.666696   0.000000
     3  C    0.854947  -0.000000
     4  Cl   0.473162   0.000000
     5  C   -0.102349  -0.000000
     6  C   -0.165329  -0.000000
     7  C   -0.776351   0.000000
     8  O   -0.220674  -0.000000
     9  C    0.041642  -0.000000
    10  C    0.103210  -0.000000
    11  C   -0.348414  -0.000000
    12  C   -0.410077   0.000000
    13  C    0.212282  -0.000000
    14  C    0.203828   0.000000
    15  C   -1.179181  -0.000000
    16  O   -0.115236   0.000000
    17  C    0.649788  -0.000000
    18  C    0.252264   0.000000
    19  Br  -0.081431  -0.000000
    20  H    0.244940   0.000000
    21  H    0.239777  -0.000000
    22  H    0.225144   0.000000
    23  H    0.181060  -0.000000
    24  H    0.179033   0.000000
    25  H    0.176119  -0.000000
    26  H    0.187447   0.000000
 Sum of Mulliken charges =  -0.00000   0.00000

 Dipole moment (field-independent basis, Debye):
    X=             -0.4252    Y=              0.8559    Z=             -0.4187  Tot=              1.0434
 Quadrupole moment (field-independent basis, Debye-Ang):
   XX=            -97.8365   YY=           -138.2506   ZZ=           -130.2087
   XY=             -4.2960   XZ=              5.3858   YZ=             -1.2572

  Exact polarizability: 324.697  -8.540 246.269  24.725   2.158 104.619
 Approx polarizability: 472.358 -22.352 468.281  33.016   4.678 170.543

                      1                      2                      3
                      A                      A                      A
 Frequencies --     14.7803                36.6197                83.5608
 Red. masses --      9.9234                10.5262                 8.5433
 Frc consts  --      0.0013                 0.0083                 0.0351
 IR Inten    --      3.9962                 0.8404                 0.2747

                      4                      5                      6
                      A                      A                      A
 Frequencies --    109.7449               126.8263               139.1725
 Red. masses --      4.8990                 9.2187                11.1820
 Frc consts  --      0.0348                 0.0874                 0.1276
 IR Inten    --      0.0392                 1.0358                 0.7694

                      7                      8                      9
                      A                      A                      A
 Frequencies --    179.3981               184.9599               239.5432
 Red. masses --     23.2185                 6.0088                 8.3065
 Frc consts  --      0.4403                 0.1211                 0.2808
 IR Inten    --      0.0976                 0.1196                 6.1886

                     10                     11                     12
                      A                      A                      A
 Frequencies --    244.8156               269.0822               285.3176
 Red. masses --      1.1987                 6.7021                13.1247
 Frc consts  --      0.0423                 0.2859                 0.6295
 IR Inten    --    205.1411                 2.8639                 2.6173

                     13                     14                     15
                      A                      A                      A
 Frequencies --    306.6766               332.0953               334.9907
 Red. masses --      8.4370                 5.3477                 8.1018
 Frc consts  --      0.4675                 0.3475                 0.5357
 IR Inten    --      1.4316                 2.2321                 2.0979

                     16                     17                     18
                      A                      A                      A
 Frequencies --    369.8672               398.8819               431.8898
 Red. masses --      7.1739                11.6354                 3.4603
 Frc consts  --      0.5782                 1.0907                 0.3803
 IR Inten    --      2.3768                25.1270                 1.4004

                     19                     20                     21
                      A                      A                      A
 Frequencies --    453.2552               474.7310               485.1678
 Red. masses --      4.8777                12.4932                 3.4636
 Frc consts  --      0.5904                 1.6589                 0.4804
 IR Inten    --      0.0991                 5.3602                 4.2668

                     22                     23                     24
                      A                      A                      A
 Frequencies --    488.2431               516.2139               558.6349
 Red. masses --      1.6564                 2.6024                 4.9145
 Frc consts  --      0.2326                 0.4086                 0.9036
 IR Inten    --      1.3739                 0.7957                 3.5792

                     25                     26                     27
                      A                      A                      A
 Frequencies --    583.6615               631.4704               678.2146
 Red. masses --      6.5242                 6.8924                 6.4059
 Frc consts  --      1.3095                 1.6193                 1.7361
 IR Inten    --      0.3716                34.2579                 6.4875

                     28                     29                     30
                      A                      A                      A
 Frequencies --    697.5707               714.1136               724.1535
 Red. masses --      5.9534                 7.2545                 5.3584
 Frc consts  --      1.7068                 2.1797                 1.6556
 IR Inten    --      0.0031                 8.2898                25.5467

                     31                     32                     33
                      A                      A                      A
 Frequencies --    736.0990               757.0170               780.1823
 Red. masses --      2.5755                 8.9433                 7.1153
 Frc consts  --      0.8222                 3.0197                 2.5517
 IR Inten    --     44.8367                42.0486                29.1869

                     34                     35                     36
                      A                      A                      A
 Frequencies --    797.4994               812.5878               881.5142
 Red. masses --      5.4542                 2.0069                 6.5475
 Frc consts  --      2.0438                 0.7808                 2.9977
 IR Inten    --      0.0297                12.8252                 2.5666

                     37                     38                     39
                      A                      A                      A
 Frequencies --    916.4307               942.3474               986.5707
 Red. masses --      1.3784                 1.3679                 7.7331
 Frc consts  --      0.6821                 0.7157                 4.4346
 IR Inten    --      0.0766                10.4748                19.5941

                     40                     41                     42
                      A                      A                      A
 Frequencies --   1004.1076              1019.6623              1031.8454
 Red. masses --      1.3806                 1.3283                 4.1754
 Frc consts  --      0.8201                 0.8137                 2.6192
 IR Inten    --      1.9997                 0.0066               101.0112

                     43                     44                     45
                      A                      A                      A
 Frequencies --   1058.1799              1083.3698              1117.3801
 Red. masses --      1.8779                 1.9685                 2.2104
 Frc consts  --      1.2389                 1.3613                 1.6260
 IR Inten    --     11.5821                42.9523                11.7054

                     46                     47                     48
                      A                      A                      A
 Frequencies --   1150.4722              1181.8766              1201.4036
 Red. masses --      5.0713                 1.1449                 1.8619
 Frc consts  --      3.9548                 0.9422                 1.5833
 IR Inten    --     80.2234                 5.2356                35.9653

                     49                     50                     51
                      A                      A                      A
 Frequencies --   1234.8667              1275.5808              1302.6176
 Red. masses --      2.2731                 2.6931                 2.0993
 Frc consts  --      2.0423                 2.5818                 2.0987
 IR Inten    --      6.0493               464.0172                 4.2496

                     52                     53                     54
                      A                      A                      A
 Frequencies --   1341.4791              1346.7048              1363.1446
 Red. masses --      4.8133                 6.6771                 7.3538
 Frc consts  --      5.1034                 7.1348                 8.0510
 IR Inten    --    402.8025               205.4888                29.6527

                     55                     56                     57
                      A                      A                      A
 Frequencies --   1412.0815              1477.5989              1485.3784
 Red. masses --      7.5201                 2.8480                 3.2622
 Frc consts  --      8.8347                 3.6636                 4.2406
 IR Inten    --      1.3357                27.3646                17.7269

                     58                     59                     60
                      A                      A                      A
 Frequencies --   1508.4957              1558.8733              1581.4831
 Red. masses --      2.5998                 6.3371                 4.1442
 Frc consts  --      3.4855                 9.0732                 6.1068
 IR Inten    --     12.3689                35.9331                74.1083

                     61                     62                     63
                      A                      A                      A
 Frequencies --   1618.8524              1629.0699              1637.5410
 Red. masses --      6.6205                 5.4864                 1.6459
 Frc consts  --     10.2225                 8.5786                 2.6004
 IR Inten    --     11.5439                82.8592               343.1984

                     64                     65                     66
                      A                      A                      A
 Frequencies --   1709.2561              1730.5847              3170.5415
 Red. masses --     12.4434                12.2290                 1.0871
 Frc consts  --     21.4193                21.5787                 6.4385
 IR Inten    --     88.5760               215.6622                 3.4607

                     67                     68                     69
                      A                      A                      A
 Frequencies --   3185.1171              3202.2422              3205.5395
 Red. masses --      1.0922                 1.0929                 1.0940
 Frc consts  --      6.5283                 6.6031                 6.6234
 IR Inten    --     12.1359                 2.2604                 9.9898

                     70                     71                     72
                      A                      A                      A
 Frequencies --   3212.9862              3588.4819              3712.3057
 Red. masses --      1.0915                 1.0455                 1.1041
 Frc consts  --      6.6387                 7.9322                 8.9649
 IR Inten    --      5.8307               111.3871                78.2506

 - Thermochemistry -
 -------------------
 Temperature   298.150 Kelvin.  Pressure   1.00000 Atm.
 Atom     1 has atomic number  7 and mass  14.00307

 Molecular mass:   334.93487 amu.
 Principal axes and moments of inertia in atomic units:
                           1         2         3
     Eigenvalues --  4478.118018627.05866**********
           X            0.98283   0.14606  -0.11274
           Y           -0.14908   0.98865  -0.01877
           Z            0.10872   0.03525   0.99345
 This molecule is an asymmetric top.
 Rotational symmetry number  1.
 Warning -- assumption of classical behavior for rotation
           may cause significant error
 Rotational temperatures (Kelvin)      0.01934     0.01004     0.00661
 Rotational constants (GHZ):           0.40301     0.20920     0.13772
 Zero-point vibrational energy     460819.6 (Joules/Mol)
                                  110.13853 (Kcal/Mol)
 Warning -- explicit consideration of  25 degrees of freedom as
           vibrations may cause significant error
 Vibrational temperatures:     21.27    52.69   120.23   157.90   182.47
          (Kelvin)            200.24   258.11   266.12   344.65   352.24
                              387.15   410.51   441.24   477.81   481.98
                              532.16   573.90   621.39   652.13   683.03
                              698.05   702.47   742.72   803.75   839.76
                              908.55   975.80  1003.65  1027.45  1041.90
                             1059.08  1089.18  1122.51  1147.42  1169.13
                             1268.30  1318.54  1355.83  1419.46  1444.69
                             1467.07  1484.60  1522.48  1558.73  1607.66
                             1655.27  1700.46  1728.55  1776.70  1835.28
                             1874.18  1930.09  1937.61  1961.26  2031.67
                             2125.94  2137.13  2170.39  2242.87  2275.40
                             2329.17  2343.87  2356.06  2459.24  2489.93
                             4561.70  4582.67  4607.31  4612.06  4622.77
                             5163.03  5341.18

 Zero-point correction=                           0.175517 (Hartree/Particle)
 Thermal correction to Energy=                    0.191223
 Thermal correction to Enthalpy=                  0.192167
 Thermal correction to Gibbs Free Energy=         0.130334
 Sum of electronic and zero-point Energies=          -3777.310974
 Sum of electronic and thermal Energies=             -3777.295268
 Sum of electronic and thermal Enthalpies=           -3777.294324
 Sum of electronic and thermal Free Energies=        -3777.356157

                     E (Thermal)             CV                S
                      KCal/Mol        Cal/Mol-Kelvin    Cal/Mol-Kelvin
 Total                  119.994             59.980            130.138
 Electronic               0.000              0.000              0.000
 Translational            0.889              2.981             43.321
 Rotational               0.889              2.981             34.581
 Vibrational            118.217             54.019             52.236
 Vibration     1          0.593              1.986              7.235
 Vibration     2          0.594              1.982              5.434
 Vibration     3          0.600              1.960              3.805
 Vibration     4          0.606              1.941              3.273
 Vibration     5          0.611              1.926              2.994
 Vibration     6          0.615              1.914              2.815
 Vibration     7          0.629              1.868              2.335
 Vibration     8          0.631              1.860              2.278
 Vibration     9          0.657              1.780              1.806
 Vibration    10          0.660              1.771              1.768
 Vibration    11          0.673              1.730              1.602
 Vibration    12          0.683              1.701              1.502
 Vibration    13          0.697              1.661              1.380
 Vibration    14          0.714              1.611              1.250
 Vibration    15          0.716              1.606              1.236
 Vibration    16          0.742              1.534              1.080
 Vibration    17          0.765              1.473              0.967
 Vibration    18          0.793              1.401              0.853
 Vibration    19          0.812              1.354              0.786
 Vibration    20          0.831              1.306              0.724
 Vibration    21          0.841              1.283              0.696
 Vibration    22          0.844              1.276              0.688
 Vibration    23          0.871              1.214              0.619
 Vibration    24          0.914              1.121              0.527
 Vibration    25          0.941              1.067              0.479

 Optimization completed.
    -- Stationary point found.
 Normal termination of Gaussian 16 at Thu Dec 21 09:41:41 2023.
