 Gaussian 16, Revision A.03,
 Gaussian 16:  ES64L-G16RevA.03 25-Dec-2016

 ----------------------------------------------------------------------
 #P UB3LYP/6-311++G(d,p) nosym opt freq SCRF=(PCM,Solvent=n,n-DiMethylF
 ormamide)
 ----------------------------------------------------------------------

 -------
 Reduced
 -------
 Symbolic Z-matrix:
 Charge = -2 Multiplicity = 1

 SCF Done:  E(UB3LYP) =  -669.515377181     A.U. after   20 cycles
 SCF Done:  E(UB3LYP) =  -669.519373485     A.U. after   14 cycles
 SCF Done:  E(UB3LYP) =  -669.520218432     A.U. after   14 cycles
 SCF Done:  E(UB3LYP) =  -669.520197457     A.U. after   13 cycles
 SCF Done:  E(UB3LYP) =  -669.520308488     A.U. after   13 cycles
 SCF Done:  E(UB3LYP) =  -669.520322995     A.U. after   12 cycles
 SCF Done:  E(UB3LYP) =  -669.520328109     A.U. after   13 cycles
 SCF Done:  E(UB3LYP) =  -669.520331109     A.U. after   11 cycles
 SCF Done:  E(UB3LYP) =  -669.520333914     A.U. after   12 cycles
 SCF Done:  E(UB3LYP) =  -669.520334478     A.U. after   11 cycles
 SCF Done:  E(UB3LYP) =  -669.520334710     A.U. after   10 cycles
 Optimization completed.
    -- Stationary point found.
 Normal termination of Gaussian 16 at Sun Feb 11 16:35:11 2024.

 ----------------------------------------------------------------------
 #P Geom=AllCheck Guess=TCheck SCRF=Check GenChk UB3LYP/6-311++G(d,p) F
 req
 ----------------------------------------------------------------------

 Structure from the checkpoint file:  "324-an.chk"
 -------
 Reduced
 -------
 Charge = -2 Multiplicity = 1

                          Input orientation:
 ---------------------------------------------------------------------
 Center     Atomic      Atomic             Coordinates (Angstroms)
 Number     Number       Type             X           Y           Z
 ---------------------------------------------------------------------
      1          6           0       -1.772461    2.754343   -0.799816
      2          6           0       -2.880172    1.965961   -0.581973
      3          6           0       -2.718431    0.623629   -0.143920
      4          6           0       -0.437723    2.283380   -0.612887
      5          6           0       -0.278484    0.897813   -0.188187
      6          6           0       -1.446800    0.120986    0.044491
      7          6           0        0.668339    3.174247   -0.843230
      8          6           0        1.998080    2.627959   -0.645513
      9          6           0        2.106890    1.254794   -0.249245
     10          6           0        1.038372    0.392886   -0.022142
     11          8           0        0.479278    4.415857   -1.219141
     12          8           0        3.078920    3.337404   -0.828430
     13          1           0       -1.887526    3.781900   -1.125886
     14          1           0       -3.877058    2.368260   -0.738054
     15          1           0       -3.586303    0.000265    0.046511
     16          1           0       -1.344254   -0.901067    0.396343
     17          1           0        3.123656    0.892260   -0.131043
     18          7           0        1.226293   -0.954107    0.419924
     19          6           0        2.557768   -1.548985    0.349452
     20          6           0        2.509746   -3.024090    0.738173
     21          1           0        0.551720   -1.573712   -0.013682
     22          1           0        3.219874   -1.013472    1.036996
     23          1           0        3.003548   -1.446916   -0.654400
     24          1           0        2.124249   -3.150978    1.753544
     25          1           0        3.509445   -3.463725    0.693370
     26          1           0        1.866545   -3.591217    0.057098
 ---------------------------------------------------------------------

 SCF Done:  E(UB3LYP) =  -669.520334710     A.U. after    1 cycles

 Alpha  occ. eigenvalues --  -19.01242 -19.00674 -14.29556 -10.18632 -10.16620
 Alpha  occ. eigenvalues --  -10.16176 -10.15558 -10.15450 -10.14983 -10.14424
 Alpha  occ. eigenvalues --  -10.14358 -10.14017 -10.13983 -10.13131 -10.11999
 Alpha  occ. eigenvalues --   -0.92852  -0.90381  -0.89765  -0.82260  -0.76818
 Alpha  occ. eigenvalues --   -0.73272  -0.71634  -0.68909  -0.64176  -0.60954
 Alpha  occ. eigenvalues --   -0.58026  -0.56229  -0.53218  -0.49260  -0.46757
 Alpha  occ. eigenvalues --   -0.46418  -0.45394  -0.42636  -0.41309  -0.39919
 Alpha  occ. eigenvalues --   -0.39514  -0.37974  -0.37469  -0.36533  -0.35949
 Alpha  occ. eigenvalues --   -0.35344  -0.34800  -0.33452  -0.32405  -0.31315
 Alpha  occ. eigenvalues --   -0.30249  -0.29556  -0.26703  -0.22755  -0.22089
 Alpha  occ. eigenvalues --   -0.19639  -0.18007  -0.17909  -0.10713
 Alpha virt. eigenvalues --   -0.00758  -0.00230   0.00760   0.01433   0.02383
 Alpha virt. eigenvalues --    0.02517   0.02710   0.02933   0.04114   0.04897
 Alpha virt. eigenvalues --    0.05564   0.05695   0.06040   0.06433   0.06911

  Beta  occ. eigenvalues --  -19.01242 -19.00674 -14.29556 -10.18632 -10.16620
  Beta  occ. eigenvalues --  -10.16176 -10.15558 -10.15450 -10.14983 -10.14424
  Beta  occ. eigenvalues --  -10.14358 -10.14017 -10.13983 -10.13131 -10.11999
  Beta  occ. eigenvalues --   -0.92852  -0.90381  -0.89765  -0.82260  -0.76818
  Beta  occ. eigenvalues --   -0.73272  -0.71634  -0.68909  -0.64176  -0.60954
  Beta  occ. eigenvalues --   -0.58026  -0.56229  -0.53218  -0.49260  -0.46757
  Beta  occ. eigenvalues --   -0.46418  -0.45394  -0.42636  -0.41309  -0.39919
  Beta  occ. eigenvalues --   -0.39514  -0.37974  -0.37469  -0.36533  -0.35949
  Beta  occ. eigenvalues --   -0.35344  -0.34800  -0.33452  -0.32405  -0.31315
  Beta  occ. eigenvalues --   -0.30249  -0.29556  -0.26703  -0.22755  -0.22089
  Beta  occ. eigenvalues --   -0.19639  -0.18007  -0.17909  -0.10713
  Beta virt. eigenvalues --   -0.00758  -0.00230   0.00760   0.01433   0.02383
  Beta virt. eigenvalues --    0.02517   0.02710   0.02933   0.04114   0.04897
  Beta virt. eigenvalues --    0.05564   0.05695   0.06040   0.06433   0.06911

 Mulliken charges and spin densities:
               1          2
     1  C    0.002338  -0.000000
     2  C   -0.466582  -0.000000
     3  C   -0.517480  -0.000000
     4  C    0.559501   0.000000
     5  C    0.340587   0.000000
     6  C   -0.321075  -0.000000
     7  C   -0.640184  -0.000000
     8  C   -0.049114   0.000000
     9  C    0.074302  -0.000000
    10  C   -0.356622  -0.000000
    11  O   -0.745356   0.000000
    12  O   -0.727183  -0.000000
    13  H    0.144740   0.000000
    14  H    0.148565  -0.000000
    15  H    0.155542   0.000000
    16  H    0.105428   0.000000
    17  H    0.164815  -0.000000
    18  N   -0.059059   0.000000
    19  C   -0.062520  -0.000000
    20  C   -0.700663   0.000000
    21  H    0.232281   0.000000
    22  H    0.146875   0.000000
    23  H    0.136399   0.000000
    24  H    0.148777   0.000000
    25  H    0.148538   0.000000
    26  H    0.137151  -0.000000
 Sum of Mulliken charges =  -2.00000   0.00000

 Dipole moment (field-independent basis, Debye):
    X=            -10.7573    Y=            -32.2696    Z=              7.3294  Tot=             34.7961
 Quadrupole moment (field-independent basis, Debye-Ang):
   XX=           -138.2306   YY=           -215.0859   ZZ=           -110.3192
   XY=            -45.3029   XZ=             10.9683   YZ=             32.0082

  Exact polarizability: 400.977  23.173 318.846  -4.842 -47.414 170.836
 Approx polarizability: 452.350  37.573 349.414  -6.481 -53.020 185.700

                      1                      2                      3
                      A                      A                      A
 Frequencies --     53.1564                83.3075               101.4273
 Red. masses --      3.3992                 1.9497                 4.7623
 Frc consts  --      0.0057                 0.0080                 0.0289
 IR Inten    --      0.8296                 1.1296                 0.6257

                      4                      5                      6
                      A                      A                      A
 Frequencies --    121.8529               133.7472               180.2605
 Red. masses --      3.6734                 3.9604                 5.1919
 Frc consts  --      0.0321                 0.0417                 0.0994
 IR Inten    --      7.2621                 4.4828                 0.9027

                      7                      8                      9
                      A                      A                      A
 Frequencies --    242.9801               249.6484               262.3820
 Red. masses --      4.6795                 1.1673                 4.5729
 Frc consts  --      0.1628                 0.0429                 0.1855
 IR Inten    --      1.4347                 0.5411                 8.8491

                     10                     11                     12
                      A                      A                      A
 Frequencies --    316.7917               346.0201               359.0251
 Red. masses --      3.6863                 6.1745                11.5724
 Frc consts  --      0.2180                 0.4356                 0.8789
 IR Inten    --      1.3425                 9.7406                 7.5791

                     13                     14                     15
                      A                      A                      A
 Frequencies --    388.3122               428.0903               439.8386
 Red. masses --      6.2602                 3.1700                 8.1189
 Frc consts  --      0.5562                 0.3423                 0.9254
 IR Inten    --      2.2537                13.1768                37.8879

                     16                     17                     18
                      A                      A                      A
 Frequencies --    481.2258               527.2997               577.9822
 Red. masses --      7.4498                 3.4542                 3.1746
 Frc consts  --      1.0165                 0.5659                 0.6248
 IR Inten    --      4.1088                17.3052                54.6283

                     19                     20                     21
                      A                      A                      A
 Frequencies --    606.2415               627.1061               655.9570
 Red. masses --      3.9703                 4.7258                 2.9999
 Frc consts  --      0.8597                 1.0950                 0.7605
 IR Inten    --     17.5458                52.6130               130.7606

                     22                     23                     24
                      A                      A                      A
 Frequencies --    693.8112               710.8439               723.5827
 Red. masses --      3.5189                 3.1394                 3.4405
 Frc consts  --      0.9980                 0.9346                 1.0613
 IR Inten    --     47.1603                60.8209                96.5045

                     25                     26                     27
                      A                      A                      A
 Frequencies --    742.7806               759.9113               819.9766
 Red. masses --      2.0931                 4.1706                 1.2900
 Frc consts  --      0.6804                 1.4190                 0.5110
 IR Inten    --     62.6493                 4.5244                27.5577

                     28                     29                     30
                      A                      A                      A
 Frequencies --    827.4881               839.8420               858.1595
 Red. masses --      1.3904                 1.3861                 3.4486
 Frc consts  --      0.5609                 0.5760                 1.4963
 IR Inten    --      1.4023                30.2640                17.1944

                     31                     32                     33
                      A                      A                      A
 Frequencies --    922.6806               935.4676               972.3298
 Red. masses --      1.8289                 1.3277                 1.2570
 Frc consts  --      0.9174                 0.6846                 0.7002
 IR Inten    --      4.4944                 1.6898                 1.5926

                     34                     35                     36
                      A                      A                      A
 Frequencies --    986.9295              1028.1878              1035.7921
 Red. masses --      6.2076                 2.1151                 3.8875
 Frc consts  --      3.5624                 1.3174                 2.4573
 IR Inten    --    108.5681                50.6537                89.4053

                     37                     38                     39
                      A                      A                      A
 Frequencies --   1085.1876              1127.8985              1142.5376
 Red. masses --      2.4633                 1.6347                 1.6098
 Frc consts  --      1.7092                 1.2253                 1.2381
 IR Inten    --    140.3032                52.4365                67.9301

                     40                     41                     42
                      A                      A                      A
 Frequencies --   1157.4541              1175.1520              1209.0360
 Red. masses --      1.4399                 2.8755                 2.2019
 Frc consts  --      1.1366                 2.3396                 1.8964
 IR Inten    --     76.0049               132.9154               246.5229

                     43                     44                     45
                      A                      A                      A
 Frequencies --   1221.1807              1252.3581              1274.7515
 Red. masses --      2.3417                 3.2326                 2.0519
 Frc consts  --      2.0575                 2.9872                 1.9646
 IR Inten    --    739.7376                17.2743               208.2610

                     46                     47                     48
                      A                      A                      A
 Frequencies --   1290.9865              1315.8401              1355.6225
 Red. masses --      1.1674                 5.3700                 3.7436
 Frc consts  --      1.1463                 5.4781                 4.0534
 IR Inten    --     38.4004              1161.5973               927.2128

                     49                     50                     51
                      A                      A                      A
 Frequencies --   1368.6275              1395.3930              1405.1281
 Red. masses --      1.7128                 2.6230                 1.4195
 Frc consts  --      1.8903                 3.0091                 1.6512
 IR Inten    --    142.2330               448.9090                35.1846

                     52                     53                     54
                      A                      A                      A
 Frequencies --   1432.2902              1461.7095              1472.8949
 Red. masses --      2.8775                 2.4124                 1.3811
 Frc consts  --      3.4780                 3.0369                 1.7653
 IR Inten    --     92.0047               113.9138               207.4274

                     55                     56                     57
                      A                      A                      A
 Frequencies --   1484.0404              1488.5423              1514.7120
 Red. masses --      1.1149                 1.1456                 1.4563
 Frc consts  --      1.4466                 1.4955                 1.9687
 IR Inten    --     39.3380                36.0047               135.1191

                     58                     59                     60
                      A                      A                      A
 Frequencies --   1522.8689              1549.2973              1570.9306
 Red. masses --      1.8239                 4.5989                 4.2385
 Frc consts  --      2.4922                 6.5039                 6.1628
 IR Inten    --    131.2679                39.8763               269.4055

                     61                     62                     63
                      A                      A                      A
 Frequencies --   1606.1368              2926.4163              3018.0226
 Red. masses --      5.0862                 1.0741                 1.0376
 Frc consts  --      7.7305                 5.4194                 5.5682
 IR Inten    --     30.5658               177.3169                44.3139

                     64                     65                     66
                      A                      A                      A
 Frequencies --   3032.6574              3078.1512              3092.1192
 Red. masses --      1.0846                 1.1006                 1.1016
 Frc consts  --      5.8773                 6.1440                 6.2058
 IR Inten    --     37.8351                77.4280                57.2515

                     67                     68                     69
                      A                      A                      A
 Frequencies --   3135.1326              3144.5231              3146.7899
 Red. masses --      1.0838                 1.0875                 1.0867
 Frc consts  --      6.2766                 6.3355                 6.3402
 IR Inten    --     13.0298                34.3539                99.5227

                     70                     71                     72
                      A                      A                      A
 Frequencies --   3163.3126              3175.6493              3531.4049
 Red. masses --      1.0938                 1.0919                 1.0743
 Frc consts  --      6.4489                 6.4876                 7.8936
 IR Inten    --     77.7922                47.6049                 5.0889

 - Thermochemistry -
 -------------------
 Temperature   298.150 Kelvin.  Pressure   1.00000 Atm.
 Atom     1 has atomic number  6 and mass  12.00000

 Molecular mass:   201.07898 amu.
 Principal axes and moments of inertia in atomic units:
                           1         2         3
     Eigenvalues --  2305.523713639.943045915.15474
           X           -0.51668   0.85615  -0.00648
           Y            0.82652   0.50074   0.25716
           Z           -0.22341  -0.12752   0.96635
 This molecule is an asymmetric top.
 Rotational symmetry number  1.
 Warning -- assumption of classical behavior for rotation
           may cause significant error
 Rotational temperatures (Kelvin)      0.03757     0.02380     0.01464
 Rotational constants (GHZ):           0.78279     0.49582     0.30510
 Zero-point vibrational energy     528541.2 (Joules/Mol)
                                  126.32438 (Kcal/Mol)
 Warning -- explicit consideration of  19 degrees of freedom as
           vibrations may cause significant error
 Vibrational temperatures:     76.48   119.86   145.93   175.32   192.43
          (Kelvin)            259.35   349.59   359.19   377.51   455.79
                              497.85   516.56   558.69   615.93   632.83
                              692.38   758.67   831.59   872.25   902.27
                              943.78   998.24  1022.75  1041.07  1068.70
                             1093.34  1179.76  1190.57  1208.35  1234.70
                             1327.53  1345.93  1398.97  1419.97  1479.33
                             1490.27  1561.34  1622.79  1643.86  1665.32
                             1690.78  1739.53  1757.01  1801.86  1834.08
                             1857.44  1893.20  1950.44  1969.15  2007.66
                             2021.67  2060.75  2103.07  2119.17  2135.20
                             2141.68  2179.33  2191.07  2229.09  2260.22
                             2310.87  4210.46  4342.26  4363.32  4428.77
                             4448.87  4510.76  4524.27  4527.53  4551.30
                             4569.05  5080.90

 Zero-point correction=                           0.201311 (Hartree/Particle)
 Thermal correction to Energy=                    0.214223
 Thermal correction to Enthalpy=                  0.215167
 Thermal correction to Gibbs Free Energy=         0.161871
 Sum of electronic and zero-point Energies=           -669.319024
 Sum of electronic and thermal Energies=              -669.306112
 Sum of electronic and thermal Enthalpies=            -669.305168
 Sum of electronic and thermal Free Energies=         -669.358464

                     E (Thermal)             CV                S
                      KCal/Mol        Cal/Mol-Kelvin    Cal/Mol-Kelvin
 Total                  134.427             50.522            112.170
 Electronic               0.000              0.000              0.000
 Translational            0.889              2.981             41.800
 Rotational               0.889              2.981             32.273
 Vibrational            132.649             44.561             38.097
 Vibration     1          0.596              1.976              4.696
 Vibration     2          0.600              1.961              3.811
 Vibration     3          0.604              1.948              3.427
 Vibration     4          0.609              1.931              3.071
 Vibration     5          0.613              1.920              2.891
 Vibration     6          0.629              1.866              2.326
 Vibration     7          0.659              1.774              1.781
 Vibration     8          0.662              1.763              1.733
 Vibration     9          0.670              1.742              1.646
 Vibration    10          0.704              1.642              1.327
 Vibration    11          0.724              1.583              1.184
 Vibration    12          0.734              1.557              1.126
 Vibration    13          0.756              1.495              1.007
 Vibration    14          0.790              1.409              0.865
 Vibration    15          0.800              1.383              0.827
 Vibration    16          0.838              1.292              0.707
 Vibration    17          0.882              1.190              0.593
 Vibration    18          0.935              1.079              0.489
 Vibration    19          0.965              1.019              0.439

 Optimization completed.
    -- Stationary point found.
 Normal termination of Gaussian 16 at Sun Feb 11 17:20:20 2024.
