 Gaussian 16, Revision A.03,
 Gaussian 16:  ES64L-G16RevA.03 25-Dec-2016

 --------------------------------------
 #P UB3LYP/6-311++G(d,p) nosym opt freq
 --------------------------------------

 -------
 Reduced
 -------
 Symbolic Z-matrix:
 Charge = -2 Multiplicity = 1

 SCF Done:  E(UB3LYP) =  -574.536932641     A.U. after   59 cycles
 SCF Done:  E(UB3LYP) =  -574.554544817     A.U. after   33 cycles
 SCF Done:  E(UB3LYP) =  -574.556893076     A.U. after   28 cycles
 SCF Done:  E(UB3LYP) =  -574.557088343     A.U. after   28 cycles
 SCF Done:  E(UB3LYP) =  -574.557067588     A.U. after   29 cycles
 SCF Done:  E(UB3LYP) =  -574.557091055     A.U. after   27 cycles
 SCF Done:  E(UB3LYP) =  -574.557126271     A.U. after   26 cycles
 SCF Done:  E(UB3LYP) =  -574.557132758     A.U. after   28 cycles
 SCF Done:  E(UB3LYP) =  -574.557153749     A.U. after   30 cycles
 SCF Done:  E(UB3LYP) =  -574.557158499     A.U. after   28 cycles
 SCF Done:  E(UB3LYP) =  -574.557162625     A.U. after   28 cycles
 SCF Done:  E(UB3LYP) =  -574.557167482     A.U. after   28 cycles
 SCF Done:  E(UB3LYP) =  -574.520273002     A.U. after   31 cycles
 SCF Done:  E(UB3LYP) =  -574.557167486     A.U. after   17 cycles
 Optimization completed.
    -- Stationary point found.
 Normal termination of Gaussian 16 at Tue Dec 26 21:20:31 2023.

 ----------------------------------------------------------------------
 #P Geom=AllCheck Guess=TCheck SCRF=Check GenChk UB3LYP/6-311++G(d,p) F
 req
 ----------------------------------------------------------------------

 Structure from the checkpoint file:  "238-an.chk"
 -------
 Reduced
 -------
 Charge = -2 Multiplicity = 1

                          Input orientation:
 ---------------------------------------------------------------------
 Center     Atomic      Atomic             Coordinates (Angstroms)
 Number     Number       Type             X           Y           Z
 ---------------------------------------------------------------------
      1          6           0        5.662412   -5.355615    1.314933
      2          6           0        6.632973   -5.251155    0.332843
      3          6           0        6.566713   -4.220636   -0.639938
      4          6           0        4.576040   -4.459074    1.396129
      5          6           0        4.508079   -3.393532    0.426619
      6          6           0        5.522276   -3.312304   -0.554859
      7          6           0        3.569210   -4.625225    2.449225
      8          6           0        2.543084   -3.640807    2.419733
      9          6           0        2.477612   -2.601784    1.478603
     10          6           0        3.427422   -2.402204    0.438157
     11          8           0        3.627943   -5.576082    3.315858
     12          8           0        3.355118   -1.449370   -0.425117
     13          1           0        5.701950   -6.142024    2.063062
     14          1           0        7.449670   -5.970343    0.292839
     15          1           0        1.769891   -3.722761    3.184120
     16          1           0        1.651099   -1.891802    1.520221
     17          6           0        7.621648   -4.117331   -1.722965
     18          1           0        5.440316   -2.490074   -1.261356
     19          1           0        8.488579   -4.756272   -1.513427
     20          1           0        7.999072   -3.090985   -1.835380
     21          1           0        7.239212   -4.418518   -2.704849
 ---------------------------------------------------------------------

 SCF Done:  E(UB3LYP) =  -574.557167486     A.U. after    5 cycles

 Alpha  occ. eigenvalues --  -18.77940 -18.77828  -9.94792  -9.93642  -9.93574
 Alpha  occ. eigenvalues --   -9.93169  -9.92230  -9.91583  -9.91216  -9.90443
 Alpha  occ. eigenvalues --   -9.90311  -9.88960  -9.88900  -0.69316  -0.68950
 Alpha  occ. eigenvalues --   -0.59941  -0.53931  -0.50832  -0.48256  -0.44481
 Alpha  occ. eigenvalues --   -0.39957  -0.35488  -0.33546  -0.29218  -0.24315
 Alpha  occ. eigenvalues --   -0.22990  -0.20665  -0.19670  -0.17967  -0.17219
 Alpha  occ. eigenvalues --   -0.16381  -0.14392  -0.13499  -0.12976  -0.11357
 Alpha  occ. eigenvalues --   -0.10982  -0.08082  -0.07644  -0.07440  -0.06840
 Alpha  occ. eigenvalues --    0.00723   0.01902   0.02028   0.04559   0.04863
 Alpha  occ. eigenvalues --    0.13475
 Alpha virt. eigenvalues --    0.14925   0.17809   0.18670   0.19100   0.19856
 Alpha virt. eigenvalues --    0.20565   0.21921   0.22304   0.23168   0.24265
 Alpha virt. eigenvalues --    0.25162   0.26922   0.27250   0.27655   0.28307

  Beta  occ. eigenvalues --  -18.77940 -18.77828  -9.94792  -9.93642  -9.93574
  Beta  occ. eigenvalues --   -9.93169  -9.92230  -9.91583  -9.91216  -9.90443
  Beta  occ. eigenvalues --   -9.90311  -9.88960  -9.88900  -0.69316  -0.68950
  Beta  occ. eigenvalues --   -0.59941  -0.53931  -0.50832  -0.48256  -0.44481
  Beta  occ. eigenvalues --   -0.39957  -0.35488  -0.33546  -0.29218  -0.24315
  Beta  occ. eigenvalues --   -0.22990  -0.20665  -0.19670  -0.17967  -0.17219
  Beta  occ. eigenvalues --   -0.16381  -0.14392  -0.13499  -0.12976  -0.11357
  Beta  occ. eigenvalues --   -0.10982  -0.08082  -0.07644  -0.07440  -0.06840
  Beta  occ. eigenvalues --    0.00723   0.01902   0.02028   0.04559   0.04863
  Beta  occ. eigenvalues --    0.13475
  Beta virt. eigenvalues --    0.14925   0.17809   0.18670   0.19100   0.19856
  Beta virt. eigenvalues --    0.20565   0.21921   0.22304   0.23168   0.24265
  Beta virt. eigenvalues --    0.25162   0.26922   0.27250   0.27655   0.28307

 Mulliken charges and spin densities:
               1          2
     1  C    0.586054  -0.000000
     2  C   -0.108809   0.000000
     3  C   -2.399766  -0.000000
     4  C    0.582158   0.000000
     5  C   -0.063391  -0.000000
     6  C   -0.424122  -0.000000
     7  C   -1.018770  -0.000000
     8  C    0.278661   0.000000
     9  C    0.153128  -0.000000
    10  C   -0.907369   0.000000
    11  O   -0.531559   0.000000
    12  O   -0.527536   0.000000
    13  H    0.118837  -0.000000
    14  H   -0.050759   0.000000
    15  H    0.066688   0.000000
    16  H    0.072259   0.000000
    17  C    3.273726   0.000000
    18  H    0.181219   0.000000
    19  H   -1.119374  -0.000000
    20  H   -0.207797  -0.000000
    21  H    0.046521  -0.000000
 Sum of Mulliken charges =  -2.00000  -0.00000

 Dipole moment (field-independent basis, Debye):
    X=            -46.5647    Y=             36.5928    Z=             -6.8113  Tot=             59.6129
 Quadrupole moment (field-independent basis, Debye-Ang):
   XX=           -377.1487   YY=           -261.2416   ZZ=           -138.7465
   XY=            191.0452   XZ=             -1.8419   YZ=             44.5102

  Exact polarizability:1165.046-210.034 431.837-504.357 -65.001 732.832
 Approx polarizability:5891.952******** 614.716******** 416.6742260.159

 ******    1 imaginary frequencies (negative Signs) ******

                      1                      2                      3
                      A                      A                      A
 Frequencies --    -48.0865                99.4403               121.0262
 Red. masses --      1.0479                 4.0039                 5.9672
 Frc consts  --      0.0014                 0.0233                 0.0515
 IR Inten    --    135.5014                 8.5880                22.7000

                      4                      5                      6
                      A                      A                      A
 Frequencies --    175.1533               210.8107               289.3146
 Red. masses --      4.9411                 4.6078                 4.0063
 Frc consts  --      0.0893                 0.1207                 0.1976
 IR Inten    --      2.8360                 0.8481                11.3782

                      7                      8                      9
                      A                      A                      A
 Frequencies --    325.2232               357.4051               358.9480
 Red. masses --      6.5903                 4.6504                 5.5229
 Frc consts  --      0.4107                 0.3500                 0.4193
 IR Inten    --     33.6057                12.3065                 1.6190

                     10                     11                     12
                      A                      A                      A
 Frequencies --    436.4035               445.5941               466.6273
 Red. masses --      3.0412                 9.3782                 5.8273
 Frc consts  --      0.3413                 1.0971                 0.7476
 IR Inten    --      2.2782               536.5169               106.7976

                     13                     14                     15
                      A                      A                      A
 Frequencies --    516.5299               534.9456               602.7028
 Red. masses --      3.6484                 7.1598                 4.6981
 Frc consts  --      0.5735                 1.2072                 1.0055
 IR Inten    --      5.1175                64.8608                 0.1029

                     16                     17                     18
                      A                      A                      A
 Frequencies --    629.4903               681.7718               688.0925
 Red. masses --      2.1025                 3.7771                 3.8128
 Frc consts  --      0.4909                 1.0344                 1.0636
 IR Inten    --      5.9821                22.4500                 4.0919

                     19                     20                     21
                      A                      A                      A
 Frequencies --    719.9544               775.4716               780.9424
 Red. masses --      6.5704                 1.8127                 6.9793
 Frc consts  --      2.0066                 0.6423                 2.5078
 IR Inten    --      5.0723                32.7321                70.2814

                     22                     23                     24
                      A                      A                      A
 Frequencies --    807.3536               820.9621               868.6532
 Red. masses --      2.2435                 2.3449                 1.4211
 Frc consts  --      0.8616                 0.9312                 0.6318
 IR Inten    --     43.7879                 9.5550                 1.8702

                     25                     26                     27
                      A                      A                      A
 Frequencies --    894.1224               929.7953               963.4746
 Red. masses --      3.6590                 1.3738                 1.3244
 Frc consts  --      1.7235                 0.6998                 0.7243
 IR Inten    --     65.4260                25.5256                 7.7795

                     28                     29                     30
                      A                      A                      A
 Frequencies --    990.7451              1047.4282              1068.8066
 Red. masses --      1.5137                 1.9501                 1.6801
 Frc consts  --      0.8754                 1.2605                 1.1308
 IR Inten    --     81.1518                15.2983               154.0193

                     31                     32                     33
                      A                      A                      A
 Frequencies --   1074.6858              1117.7972              1153.9132
 Red. masses --      2.7231                 1.5470                 1.5524
 Frc consts  --      1.8530                 1.1388                 1.2178
 IR Inten    --      2.2811                87.4721               304.2711

                     34                     35                     36
                      A                      A                      A
 Frequencies --   1201.1540              1215.4503              1230.3249
 Red. masses --      2.2253                 5.0911                 1.8178
 Frc consts  --      1.8916                 4.4314                 1.6212
 IR Inten    --    542.5452                65.7075                80.1503

                     37                     38                     39
                      A                      A                      A
 Frequencies --   1297.4902              1328.5972              1382.6176
 Red. masses --      1.6817                 8.0444                 4.3043
 Frc consts  --      1.6680                 8.3662                 4.8480
 IR Inten    --     56.4675               815.2512               572.9257

                     40                     41                     42
                      A                      A                      A
 Frequencies --   1384.5836              1395.7865              1410.4330
 Red. masses --      2.5967                 1.8860                 3.8336
 Frc consts  --      2.9330                 2.1649                 4.4933
 IR Inten    --    339.7456                84.5903               571.3415

                     43                     44                     45
                      A                      A                      A
 Frequencies --   1461.3110              1479.8249              1482.3486
 Red. masses --      3.4983                 1.0855                 1.3983
 Frc consts  --      4.4014                 1.4006                 1.8103
 IR Inten    --    248.2549               187.3412               267.1136

                     46                     47                     48
                      A                      A                      A
 Frequencies --   1506.5949              1523.7625              1570.1078
 Red. masses --      2.1917                 4.3702                 6.1352
 Frc consts  --      2.9311                 5.9784                 8.9112
 IR Inten    --   1594.9682               691.4589              2773.4970

                     49                     50                     51
                      A                      A                      A
 Frequencies --   1603.9659              2970.1387              3017.7305
 Red. masses --      5.8431                 1.0410                 1.0939
 Frc consts  --      8.8569                 5.4107                 5.8695
 IR Inten    --     54.3100                91.2502               188.9982

                     52                     53                     54
                      A                      A                      A
 Frequencies --   3033.3225              3077.5430              3102.9146
 Red. masses --      1.0997                 1.0832                 1.0868
 Frc consts  --      5.9618                 6.0444                 6.1653
 IR Inten    --      7.9518                67.4459                91.4064

                     55                     56                     57
                      A                      A                      A
 Frequencies --   3104.6142              3139.6261              3153.6018
 Red. masses --      1.0911                 1.0883                 1.0906
 Frc consts  --      6.1963                 6.3203                 6.3904
 IR Inten    --    634.6795                29.5992                34.8337

 - Thermochemistry -
 -------------------
 Temperature   298.150 Kelvin.  Pressure   1.00000 Atm.
 Atom     1 has atomic number  6 and mass  12.00000

 Molecular mass:   172.05243 amu.
 Principal axes and moments of inertia in atomic units:
                           1         2         3
     Eigenvalues --  1467.129672485.046833940.89145
           X            0.78388  -0.30108   0.54303
           Y           -0.09596   0.80532   0.58503
           Z           -0.61345  -0.51070   0.60238
 This molecule is an asymmetric top.
 Rotational symmetry number  1.
 Warning -- assumption of classical behavior for rotation
           may cause significant error
 Rotational temperatures (Kelvin)      0.05904     0.03485     0.02198
 Rotational constants (GHZ):           1.23012     0.72624     0.45795
    1 imaginary frequencies ignored.
 Zero-point vibrational energy     406894.4 (Joules/Mol)
                                   97.25009 (Kcal/Mol)
 Warning -- explicit consideration of  14 degrees of freedom as
           vibrations may cause significant error
 Vibrational temperatures:    143.07   174.13   252.01   303.31   416.26
          (Kelvin)            467.92   514.23   516.45   627.89   641.11
                              671.37   743.17   769.67   867.15   905.70
                              980.92   990.01  1035.85  1115.73  1123.60
                             1161.60  1181.18  1249.80  1286.44  1337.77
                             1386.23  1425.46  1507.02  1537.77  1546.23
                             1608.26  1660.22  1728.19  1748.76  1770.16
                             1866.80  1911.55  1989.28  1992.11  2008.23
                             2029.30  2102.50  2129.14  2132.77  2167.65
                             2192.35  2259.03  2307.75  4273.37  4341.84
                             4364.27  4427.90  4464.40  4466.85  4517.22
                             4537.33

 Zero-point correction=                           0.154978 (Hartree/Particle)
 Thermal correction to Energy=                    0.164589
 Thermal correction to Enthalpy=                  0.165533
 Thermal correction to Gibbs Free Energy=         0.119991
 Sum of electronic and zero-point Energies=           -574.402190
 Sum of electronic and thermal Energies=              -574.392578
 Sum of electronic and thermal Enthalpies=            -574.391634
 Sum of electronic and thermal Free Energies=         -574.437176

                     E (Thermal)             CV                S
                      KCal/Mol        Cal/Mol-Kelvin    Cal/Mol-Kelvin
 Total                  103.281             39.143             95.851
 Electronic               0.000              0.000              0.000
 Translational            0.889              2.981             41.335
 Rotational               0.889              2.981             31.042
 Vibrational            101.504             33.181             23.474
 Vibration     1          0.604              1.950              3.465
 Vibration     2          0.609              1.932              3.084
 Vibration     3          0.627              1.873              2.379
 Vibration     4          0.643              1.824              2.037
 Vibration     5          0.686              1.694              1.478
 Vibration     6          0.709              1.625              1.284
 Vibration     7          0.733              1.560              1.133
 Vibration     8          0.734              1.557              1.127
 Vibration     9          0.797              1.391              0.838
 Vibration    10          0.805              1.371              0.809
 Vibration    11          0.824              1.324              0.747
 Vibration    12          0.872              1.213              0.618
 Vibration    13          0.890              1.173              0.576
 Vibration    14          0.961              1.026              0.445

                           ! Non-Optimized Parameters !
 Normal termination of Gaussian 16 at Tue Dec 26 21:43:43 2023.
