 Q-Chem 5.4, Q-Chem, Inc., Pleasanton, CA (2021)
 Q-Chem 5.4.0 for Intel X86 EM64T Linux

User input:
--------------------------------------------------------------
$molecule
-1 2
C                  4.7924120000     -3.0421220000      0.3176360000
C                  5.7020380000     -2.2435330000     -0.3463960000
C                  5.2721480000     -1.0556510000     -0.9743860000
C                  3.4280900000     -2.6867530000      0.3789680000
C                  2.9947020000     -1.4907630000     -0.2534720000
C                  3.9417090000     -0.6897530000     -0.9262620000
C                  2.4891240000     -3.5447430000      1.0855820000
C                  1.1013670000     -3.1396790000      1.1186320000
C                  0.6637170000     -1.9347960000      0.4836050000
C                  1.5966370000     -1.0801240000     -0.2180990000
C                  0.1633680000     -3.9646760000      1.8047210000
C                 -1.1771390000     -3.5719230000      1.8365440000
C                 -0.7134010000     -1.5720690000      0.5507650000
C                 -1.6142700000     -2.3841130000      1.2213690000
O                  2.8838900000     -4.6182610000      1.6550300000
O                  1.2173740000     -0.0042470000     -0.7861450000
O                  0.5685000000     -5.0839230000      2.4204390000
H                  5.0969050000     -3.9590660000      0.8075100000
H                  6.7485150000     -2.5286810000     -0.3862840000
H                  5.9892750000     -0.4296050000     -1.4958630000
H                  1.5686750000     -5.1344780000      2.2329040000
O                 -1.1621510000     -0.4389140000     -0.0318010000
H                 -2.6560240000     -2.0999080000      1.2722180000
H                 -0.3528420000     -0.0216410000     -0.4499840000
H                  3.5865310000      0.2172190000     -1.4003700000
S                 -2.4105860000     -4.5930810000      2.6167820000
O                 -3.6574190000     -3.8390470000      2.6594530000
O                 -2.4155250000     -5.9518740000      2.0795340000
O                 -1.9007370000     -4.6741840000      4.1839860000
C                 -1.4157120000     -5.9362420000      4.6905860000
H                 -0.5700080000     -6.2844590000      4.1008000000
H                 -2.2146970000     -6.6797270000      4.6968980000
H                 -1.1027940000     -5.7135710000      5.7107510000
$end

$rem
BASIS  =  6-311++G(d,p)
GUI  =  2
JOB_TYPE  =  SP
METHOD  =  B3LYP
SCF_CONVERGENCE  = 8
SOLVENT_METHOD = sm12
$end

$smx
solvent dimethylformamide
charges CM5
$end

--------------------------------------------------------------

             Standard Nuclear Orientation (Angstroms)
    I     Atom           X                Y                Z
 ----------------------------------------------------------------
    1      C       4.7924120000    -3.0421220000     0.3176360000
    2      C       5.7020380000    -2.2435330000    -0.3463960000
    3      C       5.2721480000    -1.0556510000    -0.9743860000
    4      C       3.4280900000    -2.6867530000     0.3789680000
    5      C       2.9947020000    -1.4907630000    -0.2534720000
    6      C       3.9417090000    -0.6897530000    -0.9262620000
    7      C       2.4891240000    -3.5447430000     1.0855820000
    8      C       1.1013670000    -3.1396790000     1.1186320000
    9      C       0.6637170000    -1.9347960000     0.4836050000
   10      C       1.5966370000    -1.0801240000    -0.2180990000
   11      C       0.1633680000    -3.9646760000     1.8047210000
   12      C      -1.1771390000    -3.5719230000     1.8365440000
   13      C      -0.7134010000    -1.5720690000     0.5507650000
   14      C      -1.6142700000    -2.3841130000     1.2213690000
   15      O       2.8838900000    -4.6182610000     1.6550300000
   16      O       1.2173740000    -0.0042470000    -0.7861450000
   17      O       0.5685000000    -5.0839230000     2.4204390000
   18      H       5.0969050000    -3.9590660000     0.8075100000
   19      H       6.7485150000    -2.5286810000    -0.3862840000
   20      H       5.9892750000    -0.4296050000    -1.4958630000
   21      H       1.5686750000    -5.1344780000     2.2329040000
   22      O      -1.1621510000    -0.4389140000    -0.0318010000
   23      H      -2.6560240000    -2.0999080000     1.2722180000
   24      H      -0.3528420000    -0.0216410000    -0.4499840000
   25      H       3.5865310000     0.2172190000    -1.4003700000
   26      S      -2.4105860000    -4.5930810000     2.6167820000
   27      O      -3.6574190000    -3.8390470000     2.6594530000
   28      O      -2.4155250000    -5.9518740000     2.0795340000
   29      O      -1.9007370000    -4.6741840000     4.1839860000
   30      C      -1.4157120000    -5.9362420000     4.6905860000
   31      H      -0.5700080000    -6.2844590000     4.1008000000
   32      H      -2.2146970000    -6.6797270000     4.6968980000
   33      H      -1.1027940000    -5.7135710000     5.7107510000
 ----------------------------------------------------------------

   17   -1502.7571104488      7.00e-09  Convergence criterion met
 Total energy in the final basis set =    -1502.8424804547

                    Orbital Energies (a.u.)
 --------------------------------------------------------------

 Alpha MOs
 -- Occupied --
-89.0843 -19.1700 -19.1443 -19.1371 -19.1300 -19.1290 -19.1046 -19.1007
-10.2598 -10.2495 -10.2460 -10.2454 -10.2236 -10.2164 -10.1950 -10.1945
-10.1913 -10.1909 -10.1907 -10.1870 -10.1864 -10.1847 -10.1841  -8.1445
 -6.1084  -6.1067  -6.1051  -1.1500  -1.0731  -1.0621  -1.0401  -1.0230
 -1.0209  -1.0171  -0.8801  -0.8663  -0.8151  -0.7716  -0.7669  -0.7552
 -0.7338  -0.6971  -0.6704  -0.6504  -0.6260  -0.6094  -0.5878  -0.5602
 -0.5534  -0.5415  -0.5263  -0.5228  -0.5040  -0.4883  -0.4854  -0.4769
 -0.4626  -0.4566  -0.4508  -0.4435  -0.4384  -0.4369  -0.4348  -0.4284
 -0.4202  -0.4170  -0.4120  -0.3937  -0.3889  -0.3821  -0.3713  -0.3674
 -0.3624  -0.3547  -0.3507  -0.3411  -0.3319  -0.3215  -0.3197  -0.3106
 -0.2872  -0.2736  -0.2705  -0.2669  -0.2595  -0.2291  -0.1608

 Beta MOs
 -- Occupied --
-89.0843 -19.1699 -19.1441 -19.1366 -19.1299 -19.1290 -19.0999 -19.0954
-10.2598 -10.2477 -10.2452 -10.2442 -10.2236 -10.2153 -10.1948 -10.1939
-10.1908 -10.1904 -10.1889 -10.1867 -10.1861 -10.1846 -10.1840  -8.1445
 -6.1084  -6.1067  -6.1051  -1.1498  -1.0719  -1.0602  -1.0400  -1.0226
 -1.0136  -1.0087  -0.8774  -0.8648  -0.8114  -0.7696  -0.7648  -0.7529
 -0.7326  -0.6918  -0.6682  -0.6480  -0.6249  -0.6086  -0.5864  -0.5590
 -0.5520  -0.5403  -0.5251  -0.5214  -0.5032  -0.4879  -0.4835  -0.4756
 -0.4615  -0.4535  -0.4460  -0.4426  -0.4376  -0.4359  -0.4309  -0.4263
 -0.4181  -0.4092  -0.4038  -0.3933  -0.3876  -0.3703  -0.3667  -0.3659
 -0.3547  -0.3528  -0.3496  -0.3403  -0.3307  -0.3201  -0.3167  -0.3073
 -0.2700  -0.2695  -0.2638  -0.2616  -0.2555  -0.2185

          Ground-State Mulliken Net Atomic Charges

     Atom                 Charge (a.u.)    Spin (a.u.)
  --------------------------------------------------------
      1 C                     0.447721       0.032507
      2 C                     0.817964       0.029689
      3 C                     0.696182       0.026434
      4 C                    -0.217582       0.010643
      5 C                    -0.770239       0.013507
      6 C                     0.298360       0.037374
      7 C                    -0.919060       0.100968
      8 C                    -0.065772       0.015769
      9 C                     0.050512       0.037808
     10 C                    -1.130011       0.090237
     11 C                    -0.173786       0.004296
     12 C                    -1.010546       0.070971
     13 C                    -0.753708       0.022595
     14 C                    -0.249816       0.126803
     15 O                    -0.337897       0.172567
     16 O                    -0.361478       0.195859
     17 O                    -0.315178       0.008371
     18 H                     0.201650      -0.000914
     19 H                     0.359501      -0.002420
     20 H                     0.352638      -0.002134
     21 H                     0.461767      -0.002567
     22 O                    -0.315141       0.015805
     23 H                     0.212265      -0.010199
     24 H                     0.349408      -0.004174
     25 H                     0.211715      -0.001277
     26 S                     1.243681       0.004351
     27 O                    -0.163239       0.000218
     28 O                    -0.190759       0.003180
     29 O                    -0.162520       0.002793
     30 C                    -0.175012       0.000426
     31 H                     0.164331      -0.000056
     32 H                     0.210796       0.000473
     33 H                     0.233250       0.000095
  --------------------------------------------------------
  Sum of atomic charges =    -1.000000

                    Cartesian Multipole Moments
 -----------------------------------------------------------------
    Charge (ESU x 10^10)
                -4.8032
    Dipole Moment (Debye)
         X       2.5518      Y      13.6184      Z      -4.4635
       Tot      14.5566
    Quadrupole Moments (Debye-Ang)
        XX    -172.8695     XY     -10.8201     YY    -207.1257
        XZ       7.9296     YZ      17.8184     ZZ    -151.3071

 Total job time:  1291.10s(wall), 9975.65s(cpu)
        *  Thank you very much for using Q-Chem.  Have a nice day.  *
