 Q-Chem 5.4, Q-Chem, Inc., Pleasanton, CA (2021)
 Q-Chem 5.4.0 for Intel X86 EM64T Linux

User input:
--------------------------------------------------------------
$molecule
0 1
C                  3.7410120000     -1.0412110000     -0.3257780000
C                  2.4551920000     -0.2913390000     -0.0832080000
C                  2.4688250000      1.0971430000      0.1264620000
C                  1.2945250000      1.8022480000      0.3524160000
C                  0.0683760000      1.1331300000      0.3746250000
C                 -1.1936880000      1.8839550000      0.6164870000
O                 -1.2068330000      3.0920880000      0.8018900000
C                 -2.4534850000      1.1102010000      0.6258870000
C                 -2.5149320000     -0.2198920000      0.4295840000
C                 -3.7944550000     -0.9993400000      0.4401490000
C                 -1.2567400000     -0.9969230000      0.1840940000
O                 -1.3070420000     -2.2031990000      0.0053190000
C                  0.0372150000     -0.2539650000      0.1666850000
C                  1.2263940000     -0.9515660000     -0.0596230000
H                  4.2622340000     -0.6523170000     -1.2057420000
H                  4.4214410000     -0.9381180000      0.5250540000
H                  3.5581580000     -2.1050330000     -0.4842400000
H                  3.4155400000      1.6279460000      0.1112870000
H                  1.3049920000      2.8733620000      0.5141460000
H                 -3.3486020000      1.6974880000      0.8057370000
H                 -3.7629650000     -1.7782180000      1.2070130000
H                 -4.6491050000     -0.3479460000      0.6258670000
H                 -3.9369040000     -1.5160110000     -0.5129960000
H                  1.1708450000     -2.0224830000     -0.2171800000
$end
$rem
MAX_SCF_CYCLES=200
BASIS  =  6-311++G(d,p)
GUI  =  2
JOB_TYPE  =  SP
METHOD  =  B3LYP
SOLVENT_METHOD = COSMO
$end
$solvent
dielectric 37.219
opticaldielectric 1.43
$end

--------------------------------------------------------------

             Standard Nuclear Orientation (Angstroms)
    I     Atom           X                Y                Z
 ----------------------------------------------------------------
    1      C       3.9827388274    -1.1418306291     0.0008770704
    2      C       2.6617322697    -0.4142171216    -0.0003687535
    3      C       2.6214956094     0.9894960193    -0.0006159018
    4      C       1.4141341692     1.6746872936    -0.0004378084
    5      C       0.2080661188     0.9696672520    -0.0001113327
    6      C      -1.0892676501     1.6990272216     0.0001613811
    7      O      -1.1494514165     2.9198917818     0.0003831118
    8      C      -2.3250496799     0.8874147119     0.0002120891
    9      C      -2.3350903127    -0.4584519858     0.0001224724
   10      C      -3.5904760914    -1.2762762026     0.0002139161
   11      C      -1.0406255013    -1.2143953596    -0.0001803959
   12      O      -1.0442598534    -2.4348785815    -0.0004567837
   13      C       0.2306625891    -0.4330914550    -0.0001095434
   14      C       1.4526823226    -1.1103483495    -0.0002825705
   15      H       4.5833969655    -0.8664688018    -0.8712658210
   16      H       4.5685937528    -0.8892109295     0.8899688410
   17      H       3.8419097886    -2.2235939694    -0.0138977713
   18      H       3.5521743037     1.5481447254    -0.0010492953
   19      H       1.3830464747     2.7575468703    -0.0006484916
   20      H      -3.2473075570     1.4600637021     0.0003815347
   21      H      -3.6208201062    -1.9325679214     0.8743325431
   22      H      -4.4745842729    -0.6378527270     0.0005750940
   23      H      -3.6212411262    -1.9321297906    -0.8742205380
   24      H       1.4385059106    -2.1941251321    -0.0004704569
 ----------------------------------------------------------------

    9    -613.9192378950      3.49e-06  Convergence criterion met
 Total energy in the final basis set =     -613.9192378950
    5    -613.9332036261      2.62e-06  Convergence criterion met
 Total energy in the final basis set =     -613.9332036261

                    Orbital Energies (a.u.)
 --------------------------------------------------------------

 Alpha MOs
 -- Occupied --
-19.1380 -19.1339 -10.2850 -10.2819 -10.2190 -10.2059 -10.2056 -10.2028
-10.2012 -10.1950 -10.1925 -10.1919 -10.1741 -10.1701  -1.0711  -1.0661
 -0.8901  -0.8472  -0.7979  -0.7770  -0.7354  -0.7030  -0.6819  -0.6297
 -0.6173  -0.5867  -0.5402  -0.5191  -0.5014  -0.4704  -0.4640  -0.4596
 -0.4594  -0.4473  -0.4297  -0.4238  -0.4227  -0.4122  -0.4072  -0.3970
 -0.3906  -0.3724  -0.3660  -0.3616  -0.2975  -0.2901  -0.2770  -0.2766
 -0.2672

          Ground-State Mulliken Net Atomic Charges

     Atom                 Charge (a.u.)
  ----------------------------------------
      1 C                    -0.462626
      2 C                     0.474644
      3 C                    -0.356737
      4 C                     0.067225
      5 C                     0.437919
      6 C                    -0.648032
      7 O                    -0.330847
      8 C                    -0.516960
      9 C                     1.015883
     10 C                    -0.324613
     11 C                    -0.622646
     12 O                    -0.282423
     13 C                    -0.060051
     14 C                    -0.317827
     15 H                     0.180828
     16 H                     0.182901
     17 H                     0.186395
     18 H                     0.227501
     19 H                     0.190142
     20 H                     0.215844
     21 H                     0.197684
     22 H                     0.184995
     23 H                     0.197685
     24 H                     0.163118
  ----------------------------------------
  Sum of atomic charges =     0.000000

                    Cartesian Multipole Moments
 -----------------------------------------------------------------
    Charge (ESU x 10^10)
                 0.0000
    Dipole Moment (Debye)
         X       2.1442      Y      -1.2210      Z       0.0036
       Tot       2.4675
    Quadrupole Moments (Debye-Ang)
        XX     -58.5058     XY       2.7708     YY    -100.2047
        XZ       0.0092     YZ      -0.0086     ZZ     -82.5751

 Total job time:  92.05s(wall), 250.95s(cpu)
        *  Thank you very much for using Q-Chem.  Have a nice day.  *
