 Gaussian 16, Revision A.03,
 Gaussian 16:  ES64L-G16RevA.03 25-Dec-2016

 ----------------------------------------------------------------------
 #P UB3LYP/6-311++G(d,p) nosym opt freq SCRF=(PCM,Solvent=n,n-DiMethylF
 ormamide)
 ----------------------------------------------------------------------

 -------
 Reduced
 -------
 Symbolic Z-matrix:
 Charge = -2 Multiplicity = 1

 SCF Done:  E(UB3LYP) =  -765.640267144     A.U. after   19 cycles
 SCF Done:  E(UB3LYP) =  -765.640672877     A.U. after   17 cycles
 SCF Done:  E(UB3LYP) =  -765.642008353     A.U. after   15 cycles
 SCF Done:  E(UB3LYP) =  -765.641728015     A.U. after   14 cycles
 SCF Done:  E(UB3LYP) =  -765.642318143     A.U. after   14 cycles
 SCF Done:  E(UB3LYP) =  -765.642336531     A.U. after   12 cycles
 SCF Done:  E(UB3LYP) =  -765.642360591     A.U. after   12 cycles
 SCF Done:  E(UB3LYP) =  -765.642367045     A.U. after   12 cycles
 SCF Done:  E(UB3LYP) =  -765.642371005     A.U. after   13 cycles
 SCF Done:  E(UB3LYP) =  -765.642372063     A.U. after   11 cycles
 SCF Done:  E(UB3LYP) =  -765.642372912     A.U. after   11 cycles
 SCF Done:  E(UB3LYP) =  -765.642373001     A.U. after   11 cycles
 SCF Done:  E(UB3LYP) =  -765.642393773     A.U. after   11 cycles
 SCF Done:  E(UB3LYP) =  -765.642393347     A.U. after   13 cycles
 SCF Done:  E(UB3LYP) =  -765.642393788     A.U. after   13 cycles
 Optimization completed.
    -- Stationary point found.
 Normal termination of Gaussian 16 at Sat Feb 10 12:48:31 2024.

 ----------------------------------------------------------------------
 #P Geom=AllCheck Guess=TCheck SCRF=Check GenChk UB3LYP/6-311++G(d,p) F
 req
 ----------------------------------------------------------------------

 Structure from the checkpoint file:  "080-an.chk"
 -------
 Reduced
 -------
 Charge = -2 Multiplicity = 1

                          Input orientation:
 ---------------------------------------------------------------------
 Center     Atomic      Atomic             Coordinates (Angstroms)
 Number     Number       Type             X           Y           Z
 ---------------------------------------------------------------------
      1          6           0        1.382497    0.997805   -2.714920
      2          6           0        0.012081    1.426206   -2.851135
      3          6           0       -1.027232    1.007488   -2.046635
      4          6           0       -0.805644    0.057315   -0.964153
      5          6           0        0.512505   -0.392147   -0.836746
      6          8           0        2.302506    1.533109   -3.437453
      7          8           0       -1.798895   -0.332625   -0.201377
      8          1           0       -0.182191    2.156740   -3.634998
      9          6           0        1.599420    0.002246   -1.685528
     10          6           0        2.897376   -0.580413   -1.421349
     11          6           0        3.971004   -0.632158   -2.481458
     12          6           0        5.287827   -0.286038   -2.156119
     13          6           0        3.711099   -1.166397   -3.749365
     14          6           0        6.315962   -0.434399   -3.087255
     15          6           0        6.046806   -0.970349   -4.347226
     16          6           0        4.740424   -1.345956   -4.670498
     17          8           0        3.185447   -1.141753   -0.335997
     18          1           0        5.503375    0.108605   -1.169273
     19          1           0        2.695501   -1.441968   -4.009661
     20          1           0        7.327535   -0.141600   -2.826286
     21          1           0        6.846513   -1.099766   -5.068328
     22          1           0        4.524690   -1.774314   -5.643722
     23          6           0       -2.423508    1.526971   -2.269308
     24          1           0        0.727856   -1.122961   -0.062608
     25          1           0       -2.454770    2.247486   -3.090619
     26          1           0       -2.814706    2.008468   -1.366766
     27          1           0       -3.117828    0.710673   -2.498729
 ---------------------------------------------------------------------

 SCF Done:  E(UB3LYP) =  -765.642393788     A.U. after    1 cycles

 Alpha  occ. eigenvalues --  -19.07202 -19.02854 -19.01283 -10.22314 -10.18878
 Alpha  occ. eigenvalues --  -10.17227 -10.17030 -10.16980 -10.16918 -10.16851
 Alpha  occ. eigenvalues --  -10.16747 -10.16716 -10.14900 -10.14516 -10.13016
 Alpha  occ. eigenvalues --  -10.12800 -10.11558  -0.99507  -0.94433  -0.91959
 Alpha  occ. eigenvalues --   -0.85103  -0.79014  -0.75441  -0.74200  -0.73499
 Alpha  occ. eigenvalues --   -0.67293  -0.65596  -0.61258  -0.59991  -0.56684
 Alpha  occ. eigenvalues --   -0.54753  -0.52544  -0.48560  -0.45513  -0.45028
 Alpha  occ. eigenvalues --   -0.44065  -0.42679  -0.41677  -0.41327  -0.40194
 Alpha  occ. eigenvalues --   -0.39995  -0.38611  -0.37286  -0.36459  -0.36084
 Alpha  occ. eigenvalues --   -0.35661  -0.34906  -0.34089  -0.33399  -0.32609
 Alpha  occ. eigenvalues --   -0.31414  -0.31034  -0.25553  -0.25176  -0.22831
 Alpha  occ. eigenvalues --   -0.22590  -0.21481  -0.19834  -0.19254  -0.12692
 Alpha virt. eigenvalues --   -0.03848  -0.00918  -0.00120   0.00112   0.00610
 Alpha virt. eigenvalues --    0.01668   0.01963   0.02367   0.03241   0.03860
 Alpha virt. eigenvalues --    0.04196   0.04818   0.05230   0.05402   0.05584

  Beta  occ. eigenvalues --  -19.07202 -19.02854 -19.01283 -10.22314 -10.18878
  Beta  occ. eigenvalues --  -10.17227 -10.17030 -10.16980 -10.16918 -10.16851
  Beta  occ. eigenvalues --  -10.16747 -10.16716 -10.14900 -10.14516 -10.13016
  Beta  occ. eigenvalues --  -10.12800 -10.11558  -0.99507  -0.94433  -0.91959
  Beta  occ. eigenvalues --   -0.85103  -0.79014  -0.75441  -0.74200  -0.73499
  Beta  occ. eigenvalues --   -0.67293  -0.65596  -0.61258  -0.59991  -0.56684
  Beta  occ. eigenvalues --   -0.54753  -0.52544  -0.48560  -0.45513  -0.45028
  Beta  occ. eigenvalues --   -0.44065  -0.42679  -0.41677  -0.41327  -0.40194
  Beta  occ. eigenvalues --   -0.39995  -0.38611  -0.37286  -0.36459  -0.36084
  Beta  occ. eigenvalues --   -0.35661  -0.34906  -0.34089  -0.33399  -0.32609
  Beta  occ. eigenvalues --   -0.31414  -0.31034  -0.25553  -0.25176  -0.22831
  Beta  occ. eigenvalues --   -0.22590  -0.21481  -0.19834  -0.19254  -0.12692
  Beta virt. eigenvalues --   -0.03848  -0.00918  -0.00120   0.00112   0.00610
  Beta virt. eigenvalues --    0.01668   0.01963   0.02367   0.03241   0.03860
  Beta virt. eigenvalues --    0.04196   0.04818   0.05230   0.05402   0.05584

 Mulliken charges and spin densities:
               1          2
     1  C   -1.170903   0.000000
     2  C   -0.616830  -0.000000
     3  C    0.965573  -0.000000
     4  C   -1.006088   0.000000
     5  C    0.384550  -0.000000
     6  O   -0.563288  -0.000000
     7  O   -0.723952  -0.000000
     8  H    0.128133   0.000000
     9  C    1.243889  -0.000000
    10  C   -1.418888   0.000000
    11  C    1.197879  -0.000000
    12  C    0.305062   0.000000
    13  C   -0.327068  -0.000000
    14  C   -0.403428  -0.000000
    15  C   -0.161416  -0.000000
    16  C   -0.569270   0.000000
    17  O   -0.411005  -0.000000
    18  H    0.207732   0.000000
    19  H    0.184673  -0.000000
    20  H    0.185475  -0.000000
    21  H    0.172050   0.000000
    22  H    0.187111   0.000000
    23  C   -0.393581   0.000000
    24  H    0.159937  -0.000000
    25  H    0.138004  -0.000000
    26  H    0.153606  -0.000000
    27  H    0.152045   0.000000
 Sum of Mulliken charges =  -2.00000  -0.00000

 Dipole moment (field-independent basis, Debye):
    X=             -8.0386    Y=             -0.7359    Z=             12.4533  Tot=             14.8407
 Quadrupole moment (field-independent basis, Debye-Ang):
   XX=           -157.9695   YY=           -121.4271   ZZ=           -144.1759
   XY=             -3.6695   XZ=             27.3593   YZ=             19.3769

  Exact polarizability: 416.246 -49.672 229.288 -21.864 -37.767 280.669
 Approx polarizability: 436.322 -46.292 261.398  -6.144 -53.308 332.064

                      1                      2                      3
                      A                      A                      A
 Frequencies --     15.5765                42.6366                61.2243
 Red. masses --      5.0349                 5.2119                 4.4894
 Frc consts  --      0.0007                 0.0056                 0.0099
 IR Inten    --      4.3045                 0.4798                 8.3925

                      4                      5                      6
                      A                      A                      A
 Frequencies --     88.0771               133.7390               154.6453
 Red. masses --      5.7217                 1.3491                 3.5407
 Frc consts  --      0.0262                 0.0142                 0.0499
 IR Inten    --      3.6852                 2.4107                24.8499

                      7                      8                      9
                      A                      A                      A
 Frequencies --    183.6093               201.8506               216.6919
 Red. masses --      4.7106                 6.5061                 4.4882
 Frc consts  --      0.0936                 0.1562                 0.1242
 IR Inten    --      9.7203                 2.7622                 2.8797

                     10                     11                     12
                      A                      A                      A
 Frequencies --    247.5081               282.4667               343.0427
 Red. masses --      5.9770                 3.2449                10.8727
 Frc consts  --      0.2157                 0.1525                 0.7538
 IR Inten    --      8.9534                11.7069                 5.3811

                     13                     14                     15
                      A                      A                      A
 Frequencies --    378.8787               389.3291               403.8874
 Red. masses --      6.9668                 6.5124                 5.2431
 Frc consts  --      0.5892                 0.5816                 0.5039
 IR Inten    --      9.5447                15.0250                 6.6056

                     16                     17                     18
                      A                      A                      A
 Frequencies --    409.5586               450.0387               490.9185
 Red. masses --      2.8670                 3.5160                10.6516
 Frc consts  --      0.2833                 0.4196                 1.5125
 IR Inten    --      1.0659                 2.2371                36.4472

                     19                     20                     21
                      A                      A                      A
 Frequencies --    543.2356               602.9380               629.9113
 Red. masses --      4.2806                 6.0228                 6.2445
 Frc consts  --      0.7443                 1.2900                 1.4598
 IR Inten    --     12.4767                36.0643                 0.1566

                     22                     23                     24
                      A                      A                      A
 Frequencies --    646.0518               667.7142               689.5848
 Red. masses --      4.2914                 3.7022                 5.6154
 Frc consts  --      1.0553                 0.9725                 1.5733
 IR Inten    --     21.7093                 5.2319                50.1821

                     25                     26                     27
                      A                      A                      A
 Frequencies --    705.4587               715.0244               723.9055
 Red. masses --      1.5480                 4.6199                 3.9777
 Frc consts  --      0.4539                 1.3916                 1.2281
 IR Inten    --     78.5743                10.9596                47.6227

                     28                     29                     30
                      A                      A                      A
 Frequencies --    757.0161               793.7839               821.0033
 Red. masses --      2.9932                 3.2404                 3.4564
 Frc consts  --      1.0107                 1.2030                 1.3726
 IR Inten    --     91.7327                23.2275               148.7059

                     31                     32                     33
                      A                      A                      A
 Frequencies --    840.8883               851.7866               867.1305
 Red. masses --      2.0676                 1.2570                 1.5837
 Frc consts  --      0.8614                 0.5373                 0.7016
 IR Inten    --     26.4946                 0.6655                71.8504

                     34                     35                     36
                      A                      A                      A
 Frequencies --    923.9683               938.5741               983.4574
 Red. masses --      1.7986                 2.7023                 1.3827
 Frc consts  --      0.9047                 1.4026                 0.7879
 IR Inten    --     19.0343                23.3162                 0.6230

                     37                     38                     39
                      A                      A                      A
 Frequencies --    999.7257              1004.2674              1011.9081
 Red. masses --      1.2839                 1.5904                 6.0817
 Frc consts  --      0.7561                 0.9451                 3.6691
 IR Inten    --      1.7820               139.7196                 0.5806

                     40                     41                     42
                      A                      A                      A
 Frequencies --   1041.7257              1045.2682              1089.1592
 Red. masses --      2.2562                 1.5392                 1.6256
 Frc consts  --      1.4426                 0.9909                 1.1362
 IR Inten    --     16.8748                 4.5672                54.5613

                     43                     44                     45
                      A                      A                      A
 Frequencies --   1117.3613              1159.5646              1170.7906
 Red. masses --      4.1578                 2.3463                 1.1091
 Frc consts  --      3.0585                 1.8588                 0.8958
 IR Inten    --    273.5565               112.8967                 0.2486

                     46                     47                     48
                      A                      A                      A
 Frequencies --   1185.5657              1199.3883              1233.5732
 Red. masses --      1.1589                 3.5934                 2.2456
 Frc consts  --      0.9597                 3.0456                 2.0133
 IR Inten    --     16.8076               127.5944               528.5248

                     49                     50                     51
                      A                      A                      A
 Frequencies --   1266.5125              1272.7898              1316.8131
 Red. masses --      3.9869                 2.8503                 3.5177
 Frc consts  --      3.7679                 2.7206                 3.5938
 IR Inten    --    379.4694               237.8446                35.6957

                     52                     53                     54
                      A                      A                      A
 Frequencies --   1340.8224              1360.9950              1392.3319
 Red. masses --      1.7795                 6.1240                 1.2958
 Frc consts  --      1.8849                 6.6835                 1.4801
 IR Inten    --     17.1652               670.3994                27.7307

                     55                     56                     57
                      A                      A                      A
 Frequencies --   1432.2317              1446.1820              1453.7083
 Red. masses --      3.3463                 7.3731                 1.0560
 Frc consts  --      4.0443                 9.0855                 1.3148
 IR Inten    --    818.7354               857.4473                12.7905

                     58                     59                     60
                      A                      A                      A
 Frequencies --   1461.8628              1466.9586              1490.8682
 Red. masses --      2.1261                 1.9861                 1.8972
 Frc consts  --      2.6770                 2.5181                 2.4845
 IR Inten    --    486.6778               187.4153               201.0539

                     61                     62                     63
                      A                      A                      A
 Frequencies --   1511.6605              1527.6526              1610.1543
 Red. masses --      2.4572                 7.2682                 5.6224
 Frc consts  --      3.3082                 9.9937                 8.5882
 IR Inten    --     91.3952               873.6585                14.3189

                     64                     65                     66
                      A                      A                      A
 Frequencies --   1617.6023              1629.6569              3007.0345
 Red. masses --      6.4328                 5.6876                 1.0363
 Frc consts  --      9.9172                 8.8996                 5.5209
 IR Inten    --      4.6124                 2.3118               120.5943

                     67                     68                     69
                      A                      A                      A
 Frequencies --   3047.1967              3083.2576              3113.6227
 Red. masses --      1.0981                 1.1013                 1.0880
 Frc consts  --      6.0076                 6.1683                 6.2144
 IR Inten    --     49.0614                41.3011               114.6270

                     70                     71                     72
                      A                      A                      A
 Frequencies --   3139.8863              3154.1678              3160.8785
 Red. masses --      1.0874                 1.0849                 1.0876
 Frc consts  --      6.3164                 6.3594                 6.4024
 IR Inten    --     49.8340                 3.6476                 6.3557

                     73                     74                     75
                      A                      A                      A
 Frequencies --   3171.7509              3177.1391              3184.1157
 Red. masses --      1.0910                 1.0938                 1.0978
 Frc consts  --      6.4667                 6.5052                 6.5577
 IR Inten    --     26.7040                59.8463                25.4143

 - Thermochemistry -
 -------------------
 Temperature   298.150 Kelvin.  Pressure   1.00000 Atm.
 Atom     1 has atomic number  6 and mass  12.00000

 Molecular mass:   226.06299 amu.
 Principal axes and moments of inertia in atomic units:
                           1         2         3
     Eigenvalues --  1514.815866940.906937813.39193
           X            0.93979   0.14442   0.30973
           Y           -0.20439  -0.48883   0.84810
           Z           -0.27389   0.86034   0.42988
 This molecule is an asymmetric top.
 Rotational symmetry number  1.
 Warning -- assumption of classical behavior for rotation
           may cause significant error
 Rotational temperatures (Kelvin)      0.05718     0.01248     0.01109
 Rotational constants (GHZ):           1.19139     0.26002     0.23098
 Zero-point vibrational energy     522117.7 (Joules/Mol)
                                  124.78912 (Kcal/Mol)
 Warning -- explicit consideration of  20 degrees of freedom as
           vibrations may cause significant error
 Vibrational temperatures:     22.41    61.34    88.09   126.72   192.42
          (Kelvin)            222.50   264.17   290.42   311.77   356.11
                              406.41   493.56   545.12   560.16   581.10
                              589.26   647.51   706.32   781.59   867.49
                              906.30   929.52   960.69   992.16  1015.00
                             1028.76  1041.54  1089.18  1142.08  1181.24
                             1209.85  1225.53  1247.61  1329.38  1350.40
                             1414.98  1438.38  1444.92  1455.91  1498.81
                             1503.91  1567.06  1607.63  1668.35  1684.51
                             1705.76  1725.65  1774.84  1822.23  1831.26
                             1894.60  1929.14  1958.17  2003.26  2060.66
                             2080.73  2091.56  2103.29  2110.63  2145.03
                             2174.94  2197.95  2316.65  2327.37  2344.71
                             4326.45  4384.24  4436.12  4479.81  4517.60
                             4538.14  4547.80  4563.44  4571.19  4581.23

 Zero-point correction=                           0.198864 (Hartree/Particle)
 Thermal correction to Energy=                    0.213257
 Thermal correction to Enthalpy=                  0.214201
 Thermal correction to Gibbs Free Energy=         0.155791
 Sum of electronic and zero-point Energies=           -765.443530
 Sum of electronic and thermal Energies=              -765.429137
 Sum of electronic and thermal Enthalpies=            -765.428193
 Sum of electronic and thermal Free Energies=         -765.486602

                     E (Thermal)             CV                S
                      KCal/Mol        Cal/Mol-Kelvin    Cal/Mol-Kelvin
 Total                  133.821             55.079            122.934
 Electronic               0.000              0.000              0.000
 Translational            0.889              2.981             42.149
 Rotational               0.889              2.981             32.774
 Vibrational            132.043             49.117             48.011
 Vibration     1          0.593              1.986              7.131
 Vibration     2          0.595              1.980              5.133
 Vibration     3          0.597              1.973              4.417
 Vibration     4          0.601              1.958              3.702
 Vibration     5          0.613              1.920              2.892
 Vibration     6          0.620              1.897              2.614
 Vibration     7          0.631              1.862              2.291
 Vibration     8          0.639              1.837              2.116
 Vibration     9          0.646              1.816              1.987
 Vibration    10          0.661              1.767              1.748
 Vibration    11          0.682              1.706              1.519
 Vibration    12          0.722              1.589              1.198
 Vibration    13          0.749              1.515              1.044
 Vibration    14          0.757              1.493              1.003
 Vibration    15          0.769              1.462              0.948
 Vibration    16          0.774              1.449              0.928
 Vibration    17          0.809              1.361              0.796
 Vibration    18          0.847              1.270              0.681
 Vibration    19          0.898              1.155              0.558
 Vibration    20          0.961              1.026              0.445

                           ! Non-Optimized Parameters !
 Normal termination of Gaussian 16 at Sat Feb 10 13:15:04 2024.
