 Gaussian 16, Revision A.03,
 Gaussian 16:  ES64L-G16RevA.03 25-Dec-2016

 ----------------------------------------------------------------
 #P UB3LYP/6-311++G(d,p) SCRF=(PCM,Solvent=n,n-DiMethylFormamide)
 ----------------------------------------------------------------

 -------
 Reduced
 -------
 Symbolic Z-matrix:
 Charge = -2 Multiplicity = 1

                         Standard orientation:
 ---------------------------------------------------------------------
 Center     Atomic      Atomic             Coordinates (Angstroms)
 Number     Number       Type             X           Y           Z
 ---------------------------------------------------------------------
      1          6           0       -0.614236    1.327679   -0.023143
      2          6           0        0.800547    1.150100   -0.086242
      3          6           0        1.404104   -0.101928   -0.068246
      4          6           0        0.614227   -1.327682    0.022630
      5          6           0       -0.800541   -1.150090    0.085999
      6          6           0       -1.404099    0.101936    0.067992
      7          8           0       -1.201655    2.471160   -0.051918
      8          8           0        1.201674   -2.471134    0.051947
      9          7           0       -2.782376    0.325924    0.188921
     10          6           0       -3.769433   -0.590956   -0.334871
     11          6           0       -5.176700   -0.235333    0.151694
     12          7           0        2.782403   -0.325894   -0.188989
     13          6           0        3.769367    0.590915    0.335113
     14          6           0        5.176725    0.235319   -0.151207
     15          1           0        1.394972    2.057381   -0.148743
     16          1           0       -1.394957   -2.057364    0.148700
     17          1           0       -2.947778    1.311226   -0.014015
     18          1           0       -3.519393   -1.602625   -0.006435
     19          1           0       -3.769764   -0.620961   -1.445043
     20          1           0       -5.231062   -0.266935    1.244286
     21          1           0       -5.923471   -0.928644   -0.252634
     22          1           0       -5.463274    0.773460   -0.167582
     23          1           0        2.947793   -1.311228    0.013791
     24          1           0        3.769466    0.620795    1.445288
     25          1           0        3.519414    1.602624    0.006735
     26          1           0        5.463216   -0.773514    0.168017
     27          1           0        5.923427    0.928572    0.253348
     28          1           0        5.231309    0.267039   -1.243784
 ---------------------------------------------------------------------

 SCF Done:  E(UB3LYP) =  -649.854842272     A.U. after   17 cycles

 The electronic state is 1-A.
 Alpha  occ. eigenvalues --  -19.00817 -19.00817 -14.27386 -14.27386 -10.18038
 Alpha  occ. eigenvalues --  -10.18038 -10.15236 -10.15235 -10.15094 -10.15094
 Alpha  occ. eigenvalues --  -10.13943 -10.13942 -10.10540 -10.10539  -0.93377
 Alpha  occ. eigenvalues --   -0.92936  -0.88184  -0.88050  -0.76144  -0.73822
 Alpha  occ. eigenvalues --   -0.71753  -0.66761  -0.62749  -0.61171  -0.58487
 Alpha  occ. eigenvalues --   -0.53249  -0.52856  -0.47590  -0.45331  -0.45190
 Alpha  occ. eigenvalues --   -0.44420  -0.43424  -0.41545  -0.39042  -0.38170
 Alpha  occ. eigenvalues --   -0.38096  -0.37251  -0.36395  -0.35636  -0.34657
 Alpha  occ. eigenvalues --   -0.34476  -0.34059  -0.33543  -0.33290  -0.30995
 Alpha  occ. eigenvalues --   -0.30010  -0.26490  -0.24599  -0.19472  -0.19236
 Alpha  occ. eigenvalues --   -0.18859  -0.15947  -0.08898
 Alpha virt. eigenvalues --    0.00041   0.00364   0.01626   0.01962   0.02294
 Alpha virt. eigenvalues --    0.02758   0.03088   0.03708   0.04700   0.04871
 Alpha virt. eigenvalues --    0.05177   0.06102   0.06145   0.06804   0.07260

  Beta  occ. eigenvalues --  -19.00817 -19.00817 -14.27386 -14.27386 -10.18038
  Beta  occ. eigenvalues --  -10.18038 -10.15236 -10.15235 -10.15094 -10.15094
  Beta  occ. eigenvalues --  -10.13943 -10.13942 -10.10540 -10.10539  -0.93377
  Beta  occ. eigenvalues --   -0.92936  -0.88184  -0.88050  -0.76144  -0.73822
  Beta  occ. eigenvalues --   -0.71753  -0.66761  -0.62749  -0.61171  -0.58487
  Beta  occ. eigenvalues --   -0.53249  -0.52856  -0.47590  -0.45331  -0.45190
  Beta  occ. eigenvalues --   -0.44420  -0.43424  -0.41545  -0.39042  -0.38170
  Beta  occ. eigenvalues --   -0.38096  -0.37251  -0.36395  -0.35636  -0.34657
  Beta  occ. eigenvalues --   -0.34476  -0.34059  -0.33543  -0.33290  -0.30995
  Beta  occ. eigenvalues --   -0.30010  -0.26490  -0.24599  -0.19472  -0.19236
  Beta  occ. eigenvalues --   -0.18859  -0.15947  -0.08898
  Beta virt. eigenvalues --    0.00041   0.00364   0.01626   0.01962   0.02294
  Beta virt. eigenvalues --    0.02758   0.03088   0.03708   0.04700   0.04871
  Beta virt. eigenvalues --    0.05177   0.06102   0.06145   0.06804   0.07260

 Mulliken charges and spin densities:
               1          2
     1  C   -0.414178  -0.000000
     2  C   -0.124512   0.000000
     3  C    0.059441  -0.000000
     4  C   -0.413970   0.000000
     5  C   -0.124442  -0.000000
     6  C    0.059498   0.000000
     7  O   -0.741019   0.000000
     8  O   -0.741016  -0.000000
     9  N   -0.144254  -0.000000
    10  C   -0.099333  -0.000000
    11  C   -0.568969   0.000000
    12  N   -0.144244   0.000000
    13  C   -0.099337   0.000000
    14  C   -0.568985  -0.000000
    15  H    0.117317   0.000000
    16  H    0.117329   0.000000
    17  H    0.263940  -0.000000
    18  H    0.132522   0.000000
    19  H    0.111841  -0.000000
    20  H    0.128389   0.000000
    21  H    0.136813   0.000000
    22  H    0.141844   0.000000
    23  H    0.263909  -0.000000
    24  H    0.111837   0.000000
    25  H    0.132531  -0.000000
    26  H    0.141848  -0.000000
    27  H    0.136808  -0.000000
    28  H    0.128392   0.000000
 Sum of Mulliken charges =  -2.00000  -0.00000

 Dipole moment (field-independent basis, Debye):
    X=             -0.0001    Y=             -0.0004    Z=              0.0007  Tot=              0.0008
 Quadrupole moment (field-independent basis, Debye-Ang):
   XX=           -107.5266   YY=           -141.3914   ZZ=            -99.0597
   XY=             21.6600   XZ=              5.4202   YZ=             -0.7113

 Normal termination of Gaussian 16 at Wed Jan 24 22:52:01 2024.
