 Gaussian 16, Revision A.03,
 Gaussian 16:  ES64L-G16RevA.03 25-Dec-2016

 ----------------------------------------------------------------------
 #P UB3LYP/6-311++G(d,p) nosym opt freq SCRF=(PCM,Solvent=n,n-DiMethylF
 ormamide)
 ----------------------------------------------------------------------

 -------
 Reduced
 -------
 Symbolic Z-matrix:
 Charge = -2 Multiplicity = 1

 SCF Done:  E(UB3LYP) =  -744.565255115     A.U. after   17 cycles
 SCF Done:  E(UB3LYP) =  -744.566929953     A.U. after   13 cycles
 SCF Done:  E(UB3LYP) =  -744.567216799     A.U. after   13 cycles
 SCF Done:  E(UB3LYP) =  -744.567224690     A.U. after   13 cycles
 SCF Done:  E(UB3LYP) =  -744.567265525     A.U. after   12 cycles
 SCF Done:  E(UB3LYP) =  -744.567271512     A.U. after   12 cycles
 SCF Done:  E(UB3LYP) =  -744.567277360     A.U. after   11 cycles
 SCF Done:  E(UB3LYP) =  -744.567278292     A.U. after   10 cycles
 SCF Done:  E(UB3LYP) =  -744.567278383     A.U. after    9 cycles
 Optimization completed.
    -- Stationary point found.
 Normal termination of Gaussian 16 at Sat Feb 10 18:45:30 2024.

 ----------------------------------------------------------------------
 #P Geom=AllCheck Guess=TCheck SCRF=Check GenChk UB3LYP/6-311++G(d,p) F
 req
 ----------------------------------------------------------------------

 Structure from the checkpoint file:  "151-an.chk"
 -------
 Reduced
 -------
 Charge = -2 Multiplicity = 1

                          Input orientation:
 ---------------------------------------------------------------------
 Center     Atomic      Atomic             Coordinates (Angstroms)
 Number     Number       Type             X           Y           Z
 ---------------------------------------------------------------------
      1          7           0       -4.525748   -0.945165   -0.772616
      2          6           0       -3.240097   -0.658972   -0.249283
      3          6           0       -3.041192   -0.731588    1.162700
      4          6           0       -1.790668   -0.517122    1.690795
      5          6           0       -0.653873   -0.229655    0.886843
      6          6           0        0.628606   -0.018550    1.509572
      7          8           0        0.793939   -0.083058    2.799777
      8          6           0        1.707299    0.268142    0.604684
      9          6           0        3.018371    0.494931    1.111704
     10          6           0        4.090144    0.774243    0.294686
     11          6           0        3.897715    0.841078   -1.116081
     12          6           0        2.647091    0.627629   -1.646548
     13          6           0        1.508221    0.337501   -0.835749
     14          6           0        0.229784    0.127570   -1.450374
     15          8           0        0.053383    0.192936   -2.747268
     16          6           0       -0.848242   -0.159708   -0.546809
     17          6           0       -2.163353   -0.378620   -1.061089
     18          1           0       -5.280919   -0.638022   -0.171331
     19          1           0       -4.666710   -0.580482   -1.706687
     20          1           0       -3.884182   -0.956777    1.810267
     21          1           0       -1.639209   -0.566135    2.763616
     22          1           0        3.147557    0.438825    2.187367
     23          1           0        5.076065    0.941862    0.717617
     24          1           0        4.738826    1.059797   -1.767601
     25          1           0        2.488999    0.675368   -2.718512
     26          1           0       -2.291810   -0.316026   -2.137011
 ---------------------------------------------------------------------

 SCF Done:  E(UB3LYP) =  -744.567278383     A.U. after    1 cycles

 Alpha  occ. eigenvalues --  -19.01775 -19.01159 -14.30379 -10.18841 -10.17229
 Alpha  occ. eigenvalues --  -10.16490 -10.14893 -10.14785 -10.14668 -10.14509
 Alpha  occ. eigenvalues --  -10.14439 -10.14313 -10.13616 -10.13568 -10.13349
 Alpha  occ. eigenvalues --  -10.13293 -10.13250  -0.92889  -0.91931  -0.89947
 Alpha  occ. eigenvalues --   -0.82124  -0.80983  -0.74677  -0.72023  -0.71830
 Alpha  occ. eigenvalues --   -0.69753  -0.63487  -0.60964  -0.58426  -0.56302
 Alpha  occ. eigenvalues --   -0.52544  -0.51057  -0.49971  -0.48054  -0.45214
 Alpha  occ. eigenvalues --   -0.43687  -0.42622  -0.41400  -0.39947  -0.39577
 Alpha  occ. eigenvalues --   -0.38186  -0.37453  -0.36850  -0.35931  -0.35474
 Alpha  occ. eigenvalues --   -0.35042  -0.32102  -0.31895  -0.31503  -0.31279
 Alpha  occ. eigenvalues --   -0.29400  -0.27390  -0.23071  -0.22050  -0.21717
 Alpha  occ. eigenvalues --   -0.19782  -0.19313  -0.19087  -0.10420
 Alpha virt. eigenvalues --   -0.02475  -0.00125   0.00502   0.00802   0.01441
 Alpha virt. eigenvalues --    0.02108   0.02247   0.02500   0.04224   0.04506
 Alpha virt. eigenvalues --    0.04982   0.05108   0.06116   0.06646   0.06804

  Beta  occ. eigenvalues --  -19.01775 -19.01159 -14.30379 -10.18841 -10.17229
  Beta  occ. eigenvalues --  -10.16490 -10.14893 -10.14785 -10.14668 -10.14509
  Beta  occ. eigenvalues --  -10.14439 -10.14313 -10.13616 -10.13568 -10.13349
  Beta  occ. eigenvalues --  -10.13293 -10.13250  -0.92889  -0.91931  -0.89947
  Beta  occ. eigenvalues --   -0.82124  -0.80983  -0.74677  -0.72023  -0.71830
  Beta  occ. eigenvalues --   -0.69753  -0.63487  -0.60964  -0.58426  -0.56302
  Beta  occ. eigenvalues --   -0.52544  -0.51057  -0.49971  -0.48054  -0.45214
  Beta  occ. eigenvalues --   -0.43687  -0.42622  -0.41400  -0.39947  -0.39577
  Beta  occ. eigenvalues --   -0.38186  -0.37453  -0.36850  -0.35931  -0.35474
  Beta  occ. eigenvalues --   -0.35042  -0.32102  -0.31895  -0.31503  -0.31279
  Beta  occ. eigenvalues --   -0.29400  -0.27390  -0.23071  -0.22050  -0.21717
  Beta  occ. eigenvalues --   -0.19782  -0.19313  -0.19087  -0.10420
  Beta virt. eigenvalues --   -0.02475  -0.00125   0.00502   0.00802   0.01441
  Beta virt. eigenvalues --    0.02108   0.02247   0.02500   0.04224   0.04506
  Beta virt. eigenvalues --    0.04982   0.05108   0.06116   0.06646   0.06804

 Mulliken charges and spin densities:
               1          2
     1  N   -0.395074   0.000000
     2  C   -0.472908  -0.000000
     3  C   -0.226003  -0.000000
     4  C    0.006812   0.000000
     5  C    0.233107  -0.000000
     6  C   -0.425951   0.000000
     7  O   -0.673633  -0.000000
     8  C    0.257276  -0.000000
     9  C   -0.034510  -0.000000
    10  C   -0.505186  -0.000000
    11  C   -0.497722  -0.000000
    12  C   -0.041559   0.000000
    13  C    0.308842   0.000000
    14  C   -0.716112  -0.000000
    15  O   -0.697970   0.000000
    16  C    0.437314   0.000000
    17  C   -0.132065   0.000000
    18  H    0.256341  -0.000000
    19  H    0.263764   0.000000
    20  H    0.172824  -0.000000
    21  H    0.145928  -0.000000
    22  H    0.143344  -0.000000
    23  H    0.153097  -0.000000
    24  H    0.154861   0.000000
    25  H    0.143857   0.000000
    26  H    0.141327  -0.000000
 Sum of Mulliken charges =  -2.00000   0.00000

 Dipole moment (field-independent basis, Debye):
    X=             -6.0826    Y=              0.5171    Z=              0.2155  Tot=              6.1083
 Quadrupole moment (field-independent basis, Debye-Ang):
   XX=           -117.1627   YY=           -116.1612   ZZ=           -161.1369
   XY=             -8.0672   XZ=             -4.7168   YZ=              1.5335

  Exact polarizability: 566.445  83.304 178.406  -5.202 -17.371 372.127
 Approx polarizability: 616.115  90.017 195.008  -2.174 -20.556 436.110

                      1                      2                      3
                      A                      A                      A
 Frequencies --     55.9971               103.3273               134.7926
 Red. masses --      6.3571                 4.0709                 4.9013
 Frc consts  --      0.0117                 0.0256                 0.0525
 IR Inten    --     22.1506                 2.8373                 1.2114

                      4                      5                      6
                      A                      A                      A
 Frequencies --    161.8307               190.0887               208.2650
 Red. masses --      6.7339                 4.8955                 5.2667
 Frc consts  --      0.1039                 0.1042                 0.1346
 IR Inten    --      7.2800                20.9759                 3.6622

                      7                      8                      9
                      A                      A                      A
 Frequencies --    259.6857               272.9061               310.5804
 Red. masses --      1.0936                 5.4037                 5.2143
 Frc consts  --      0.0435                 0.2371                 0.2963
 IR Inten    --     67.3003                15.8475                10.5395

                     10                     11                     12
                      A                      A                      A
 Frequencies --    336.5100               361.7569               383.5920
 Red. masses --      8.0059                 8.7064                 4.9689
 Frc consts  --      0.5341                 0.6713                 0.4308
 IR Inten    --      1.8350                 4.2685                10.5637

                     13                     14                     15
                      A                      A                      A
 Frequencies --    404.9057               431.6651               447.4093
 Red. masses --      5.6582                 3.6481                 5.1518
 Frc consts  --      0.5466                 0.4005                 0.6076
 IR Inten    --      0.7444                19.3867                 5.3800

                     16                     17                     18
                      A                      A                      A
 Frequencies --    474.3905               495.5234               538.8383
 Red. masses --      2.7936                12.5144                 3.7649
 Frc consts  --      0.3704                 1.8105                 0.6441
 IR Inten    --      0.5743                 2.4191                49.1261

                     19                     20                     21
                      A                      A                      A
 Frequencies --    571.4160               632.1050               636.5870
 Red. masses --      6.3637                 6.5852                 3.0768
 Frc consts  --      1.2242                 1.5502                 0.7346
 IR Inten    --     55.1454                16.8030               113.0904

                     22                     23                     24
                      A                      A                      A
 Frequencies --    659.7574               689.4219               690.4752
 Red. masses --      6.4447                 2.0311                 6.1220
 Frc consts  --      1.6528                 0.5688                 1.7196
 IR Inten    --     30.4170               166.0749                 3.1470

                     25                     26                     27
                      A                      A                      A
 Frequencies --    712.1873               729.2330               759.4433
 Red. masses --      2.3662                 3.4875                 2.9032
 Frc consts  --      0.7071                 1.0927                 0.9865
 IR Inten    --    391.8029               150.5570                31.2627

                     28                     29                     30
                      A                      A                      A
 Frequencies --    769.6269               785.6698               814.5020
 Red. masses --      2.0470                 1.8392                 2.2388
 Frc consts  --      0.7144                 0.6689                 0.8751
 IR Inten    --     24.0624                52.6320                35.0645

                     31                     32                     33
                      A                      A                      A
 Frequencies --    849.2923               858.4276               884.1613
 Red. masses --      1.9714                 5.7118                 1.5743
 Frc consts  --      0.8378                 2.4799                 0.7251
 IR Inten    --      1.4735                41.5656                52.7092

                     34                     35                     36
                      A                      A                      A
 Frequencies --    923.6978               971.2672               973.3598
 Red. masses --      5.8157                 1.3474                 1.4288
 Frc consts  --      2.9235                 0.7489                 0.7976
 IR Inten    --     26.1641                 0.1415                 8.5815

                     37                     38                     39
                      A                      A                      A
 Frequencies --    975.5617               978.6296              1010.3507
 Red. masses --      2.5669                 1.2523                 2.0330
 Frc consts  --      1.4394                 0.7066                 1.2228
 IR Inten    --     14.8225                 0.1415               113.0271

                     40                     41                     42
                      A                      A                      A
 Frequencies --   1077.9084              1100.6250              1107.2005
 Red. masses --      3.9231                 1.5356                 1.7767
 Frc consts  --      2.6856                 1.0960                 1.2833
 IR Inten    --    786.3516               169.3599                95.1257

                     43                     44                     45
                      A                      A                      A
 Frequencies --   1136.2202              1141.1423              1168.9630
 Red. masses --      1.4881                 1.8039                 1.5206
 Frc consts  --      1.1319                 1.3840                 1.2242
 IR Inten    --      3.1119               126.3275               535.4932

                     46                     47                     48
                      A                      A                      A
 Frequencies --   1194.9602              1208.3386              1230.4684
 Red. masses --      1.6009                 2.7634                 3.1067
 Frc consts  --      1.3469                 2.3772                 2.7713
 IR Inten    --     44.1222               620.9154               161.6251

                     49                     50                     51
                      A                      A                      A
 Frequencies --   1271.0597              1307.0942              1340.2105
 Red. masses --      2.8956                 6.1026                 4.1705
 Frc consts  --      2.7563                 6.1430                 4.4135
 IR Inten    --    133.5666                26.0260              2439.7029

                     52                     53                     54
                      A                      A                      A
 Frequencies --   1355.0119              1363.6707              1440.1387
 Red. masses --      6.1539                 1.9837                 4.4784
 Frc consts  --      6.6571                 2.1735                 5.4725
 IR Inten    --    856.2902                68.7197                72.2247

                     55                     56                     57
                      A                      A                      A
 Frequencies --   1452.2706              1462.4221              1486.9292
 Red. masses --      3.4930                 3.4174                 3.1604
 Frc consts  --      4.3406                 4.3062                 4.1169
 IR Inten    --     39.6432               155.3348                91.9623

                     58                     59                     60
                      A                      A                      A
 Frequencies --   1504.8923              1532.5689              1576.8817
 Red. masses --      5.3543                 5.3111                 7.5178
 Frc consts  --      7.1443                 7.3498                11.0139
 IR Inten    --      4.5809                46.5078                19.3218

                     61                     62                     63
                      A                      A                      A
 Frequencies --   1602.1967              1627.6551              1644.3116
 Red. masses --      5.2146                 4.3826                 1.2043
 Frc consts  --      7.8868                 6.8409                 1.9185
 IR Inten    --     41.2254               387.5586               185.1355

                     64                     65                     66
                      A                      A                      A
 Frequencies --   3135.4905              3139.9925              3150.7665
 Red. masses --      1.0843                 1.0873                 1.0883
 Frc consts  --      6.2810                 6.3163                 6.3653
 IR Inten    --     26.9867                33.9299                25.9248

                     67                     68                     69
                      A                      A                      A
 Frequencies --   3158.5655              3167.2557              3170.2573
 Red. masses --      1.0881                 1.0912                 1.0920
 Frc consts  --      6.3957                 6.4494                 6.4665
 IR Inten    --     47.4076                44.7900                86.8341

                     70                     71                     72
                      A                      A                      A
 Frequencies --   3171.9144              3525.8929              3613.7097
 Red. masses --      1.0942                 1.0488                 1.0963
 Frc consts  --      6.4864                 7.6825                 8.4348
 IR Inten    --     65.7611                 7.2613                13.0047

 - Thermochemistry -
 -------------------
 Temperature   298.150 Kelvin.  Pressure   1.00000 Atm.
 Atom     1 has atomic number  7 and mass  14.00307

 Molecular mass:   223.06333 amu.
 Principal axes and moments of inertia in atomic units:
                           1         2         3
     Eigenvalues --  1778.800855290.553297067.16215
           X            0.97992   0.03004  -0.19711
           Y            0.19877  -0.06995   0.97755
           Z           -0.01557   0.99710   0.07451
 This molecule is an asymmetric top.
 Rotational symmetry number  1.
 Warning -- assumption of classical behavior for rotation
           may cause significant error
 Rotational temperatures (Kelvin)      0.04869     0.01637     0.01226
 Rotational constants (GHZ):           1.01458     0.34113     0.25537
 Zero-point vibrational energy     502516.6 (Joules/Mol)
                                  120.10436 (Kcal/Mol)
 Warning -- explicit consideration of  19 degrees of freedom as
           vibrations may cause significant error
 Vibrational temperatures:     80.57   148.66   193.94   232.84   273.50
          (Kelvin)            299.65   373.63   392.65   446.86   484.16
                              520.49   551.90   582.57   621.07   643.72
                              682.54   712.95   775.27   822.14   909.46
                              915.91   949.24   991.92   993.44  1024.68
                             1049.20  1092.67  1107.32  1130.40  1171.89
                             1221.94  1235.09  1272.11  1329.00  1397.44
                             1400.45  1403.62  1408.03  1453.67  1550.87
                             1583.55  1593.01  1634.77  1641.85  1681.88
                             1719.28  1738.53  1770.37  1828.77  1880.62
                             1928.26  1949.56  1962.02  2072.04  2089.49
                             2104.10  2139.36  2165.20  2205.02  2268.78
                             2305.20  2341.83  2365.80  4511.27  4517.75
                             4533.25  4544.47  4556.97  4561.29  4563.68
                             5072.97  5199.32

 Zero-point correction=                           0.191398 (Hartree/Particle)
 Thermal correction to Energy=                    0.204187
 Thermal correction to Enthalpy=                  0.205131
 Thermal correction to Gibbs Free Energy=         0.152662
 Sum of electronic and zero-point Energies=           -744.375880
 Sum of electronic and thermal Energies=              -744.363092
 Sum of electronic and thermal Enthalpies=            -744.362148
 Sum of electronic and thermal Free Energies=         -744.414616

                     E (Thermal)             CV                S
                      KCal/Mol        Cal/Mol-Kelvin    Cal/Mol-Kelvin
 Total                  128.129             52.684            110.430
 Electronic               0.000              0.000              0.000
 Translational            0.889              2.981             42.109
 Rotational               0.889              2.981             32.564
 Vibrational            126.352             46.722             35.757
 Vibration     1          0.596              1.975              4.594
 Vibration     2          0.605              1.947              3.391
 Vibration     3          0.613              1.919              2.877
 Vibration     4          0.622              1.889              2.528
 Vibration     5          0.633              1.854              2.227
 Vibration     6          0.642              1.828              2.059
 Vibration     7          0.668              1.746              1.664
 Vibration     8          0.676              1.723              1.578
 Vibration     9          0.699              1.654              1.359
 Vibration    10          0.717              1.603              1.229
 Vibration    11          0.736              1.551              1.115
 Vibration    12          0.753              1.505              1.025
 Vibration    13          0.770              1.460              0.945
 Vibration    14          0.793              1.401              0.853
 Vibration    15          0.807              1.367              0.804
 Vibration    16          0.831              1.307              0.725
 Vibration    17          0.851              1.260              0.669
 Vibration    18          0.894              1.164              0.568
 Vibration    19          0.928              1.093              0.502

 Optimization completed.
    -- Stationary point found.
 Normal termination of Gaussian 16 at Sat Feb 10 19:28:48 2024.
