 Gaussian 16, Revision A.03,
 Gaussian 16:  ES64L-G16RevA.03 25-Dec-2016

 ----------------------------------------------------------------------
 #P UB3LYP/6-311++G(d,p) nosym opt freq SCRF=(PCM,Solvent=n,n-DiMethylF
 ormamide)
 ----------------------------------------------------------------------

 --------
 Oxidized
 --------
 Symbolic Z-matrix:
 Charge =  0 Multiplicity = 1

 SCF Done:  E(UB3LYP) =  -770.008391077     A.U. after   15 cycles
 SCF Done:  E(UB3LYP) =  -770.008468905     A.U. after   12 cycles
 SCF Done:  E(UB3LYP) =  -770.008452206     A.U. after   12 cycles
 SCF Done:  E(UB3LYP) =  -770.008451854     A.U. after   12 cycles
 SCF Done:  E(UB3LYP) =  -770.008482585     A.U. after   10 cycles
 SCF Done:  E(UB3LYP) =  -770.008483376     A.U. after   10 cycles
 SCF Done:  E(UB3LYP) =  -770.008484963     A.U. after    9 cycles
 Optimization completed.
    -- Stationary point found.
 Normal termination of Gaussian 16 at Sun Feb 11 00:11:06 2024.

 ----------------------------------------------------------------------
 #P Geom=AllCheck Guess=TCheck SCRF=Check GenChk UB3LYP/6-311++G(d,p) F
 req
 ----------------------------------------------------------------------

 Structure from the checkpoint file:  "240.chk"
 --------
 Oxidized
 --------
 Charge =  0 Multiplicity = 1

                          Input orientation:
 ---------------------------------------------------------------------
 Center     Atomic      Atomic             Coordinates (Angstroms)
 Number     Number       Type             X           Y           Z
 ---------------------------------------------------------------------
      1          8           0        2.718443   -2.710086   -1.352335
      2          6           0        2.216488   -1.731874   -0.806808
      3          6           0        0.751971   -1.585734   -0.742306
      4          6           0        0.111458   -0.548128   -0.165354
      5          6           0       -1.399430   -0.481950   -0.149764
      6          6           0       -1.962842    0.724036   -0.940640
      7          6           0       -3.497342    0.684693   -0.978085
      8          6           0       -4.098270    0.619390    0.432761
      9          6           0       -3.531508   -0.565590    1.226786
     10          6           0       -1.997139   -0.533753    1.277627
     11          6           0        0.925210    0.546115    0.463240
     12          8           0        0.387376    1.504107    1.000407
     13          6           0        2.414838    0.438103    0.417513
     14          6           0        3.193468    1.445848    0.992602
     15          6           0        4.582642    1.361887    0.959022
     16          6           0        5.205426    0.269773    0.350485
     17          6           0        4.437540   -0.738666   -0.224785
     18          6           0        3.043750   -0.659724   -0.194319
     19          1           0        0.193070   -2.393226   -1.204881
     20          1           0       -1.740776   -1.386718   -0.668029
     21          1           0       -1.629722    1.653247   -0.471093
     22          1           0       -1.561322    0.713071   -1.959235
     23          1           0       -3.873233    1.564290   -1.510672
     24          1           0       -3.824734   -0.191982   -1.551878
     25          1           0       -3.872125    1.552205    0.965188
     26          1           0       -5.189256    0.547662    0.375218
     27          1           0       -3.860535   -1.503685    0.761246
     28          1           0       -3.931586   -0.565973    2.245892
     29          1           0       -1.619619   -1.418706    1.800298
     30          1           0       -1.665827    0.341763    1.842027
     31          1           0        2.700299    2.287886    1.461480
     32          1           0        5.181181    2.146661    1.406486
     33          1           0        6.286941    0.206766    0.325686
     34          1           0        4.905168   -1.591711   -0.700372
 ---------------------------------------------------------------------

 SCF Done:  E(UB3LYP) =  -770.008484963     A.U. after    1 cycles

 Alpha  occ. eigenvalues --  -19.13709 -19.13453 -10.28697 -10.28280 -10.21859
 Alpha  occ. eigenvalues --  -10.20957 -10.20848 -10.20384 -10.19977 -10.19951
 Alpha  occ. eigenvalues --  -10.19917 -10.19884 -10.18805 -10.16630 -10.16627
 Alpha  occ. eigenvalues --  -10.16349 -10.16347 -10.16174  -1.06960  -1.06372
 Alpha  occ. eigenvalues --   -0.89197  -0.85722  -0.82533  -0.78391  -0.77964
 Alpha  occ. eigenvalues --   -0.74332  -0.74319  -0.69523  -0.65493  -0.64319
 Alpha  occ. eigenvalues --   -0.61177  -0.60652  -0.58530  -0.56263  -0.53673
 Alpha  occ. eigenvalues --   -0.53136  -0.50227  -0.48657  -0.47303  -0.46423
 Alpha  occ. eigenvalues --   -0.45426  -0.45301  -0.45263  -0.44127  -0.44034
 Alpha  occ. eigenvalues --   -0.43490  -0.42301  -0.42033  -0.39122  -0.39073
 Alpha  occ. eigenvalues --   -0.38167  -0.38110  -0.37656  -0.37074  -0.34791
 Alpha  occ. eigenvalues --   -0.34604  -0.32431  -0.31358  -0.31194  -0.29278
 Alpha  occ. eigenvalues --   -0.28513  -0.28021  -0.27808  -0.27455
 Alpha virt. eigenvalues --   -0.12752  -0.05878  -0.03387  -0.00726  -0.00084
 Alpha virt. eigenvalues --    0.00467   0.01172   0.01399   0.01695   0.02142
 Alpha virt. eigenvalues --    0.03036   0.03298   0.03524   0.03820   0.04004

  Beta  occ. eigenvalues --  -19.13709 -19.13453 -10.28697 -10.28280 -10.21859
  Beta  occ. eigenvalues --  -10.20957 -10.20848 -10.20384 -10.19977 -10.19951
  Beta  occ. eigenvalues --  -10.19917 -10.19884 -10.18805 -10.16630 -10.16627
  Beta  occ. eigenvalues --  -10.16349 -10.16347 -10.16174  -1.06960  -1.06372
  Beta  occ. eigenvalues --   -0.89197  -0.85722  -0.82533  -0.78391  -0.77964
  Beta  occ. eigenvalues --   -0.74332  -0.74319  -0.69523  -0.65493  -0.64319
  Beta  occ. eigenvalues --   -0.61177  -0.60652  -0.58530  -0.56263  -0.53673
  Beta  occ. eigenvalues --   -0.53136  -0.50227  -0.48657  -0.47303  -0.46423
  Beta  occ. eigenvalues --   -0.45426  -0.45301  -0.45263  -0.44127  -0.44034
  Beta  occ. eigenvalues --   -0.43490  -0.42301  -0.42033  -0.39122  -0.39073
  Beta  occ. eigenvalues --   -0.38167  -0.38110  -0.37656  -0.37074  -0.34791
  Beta  occ. eigenvalues --   -0.34604  -0.32431  -0.31358  -0.31194  -0.29278
  Beta  occ. eigenvalues --   -0.28513  -0.28021  -0.27808  -0.27455
  Beta virt. eigenvalues --   -0.12752  -0.05878  -0.03387  -0.00726  -0.00084
  Beta virt. eigenvalues --    0.00467   0.01172   0.01399   0.01695   0.02142
  Beta virt. eigenvalues --    0.03036   0.03298   0.03524   0.03820   0.04004

 Mulliken charges and spin densities:
               1          2
     1  O   -0.297363   0.000000
     2  C   -0.570816   0.000000
     3  C   -0.225323   0.000000
     4  C    0.586103  -0.000000
     5  C    0.678139  -0.000000
     6  C   -0.561038   0.000000
     7  C   -0.366559  -0.000000
     8  C   -0.417236   0.000000
     9  C   -0.364688  -0.000000
    10  C   -0.560523   0.000000
    11  C   -0.699682   0.000000
    12  O   -0.234517  -0.000000
    13  C   -0.193775  -0.000000
    14  C    0.182932  -0.000000
    15  C   -0.441228  -0.000000
    16  C   -0.319503   0.000000
    17  C    0.126398   0.000000
    18  C    0.819732   0.000000
    19  H    0.239203   0.000000
    20  H    0.196175  -0.000000
    21  H    0.182206   0.000000
    22  H    0.176215  -0.000000
    23  H    0.177432  -0.000000
    24  H    0.133820   0.000000
    25  H    0.118077  -0.000000
    26  H    0.178877   0.000000
    27  H    0.133694   0.000000
    28  H    0.177515  -0.000000
    29  H    0.176292  -0.000000
    30  H    0.182036   0.000000
    31  H    0.187934   0.000000
    32  H    0.208494   0.000000
    33  H    0.210436   0.000000
    34  H    0.180542  -0.000000
 Sum of Mulliken charges =   0.00000  -0.00000

 Dipole moment (field-independent basis, Debye):
    X=              0.2723    Y=              1.4243    Z=              0.7870  Tot=              1.6498
 Quadrupole moment (field-independent basis, Debye-Ang):
   XX=            -88.6206   YY=           -116.8658   ZZ=           -110.5930
   XY=             13.6531   XZ=              7.9312   YZ=             -4.5221

  Exact polarizability: 328.758 -16.730 267.855  -7.667  55.632 199.941
 Approx polarizability: 346.513 -33.786 334.783 -17.375  82.667 233.814

                      1                      2                      3
                      A                      A                      A
 Frequencies --     31.1634                47.6040                73.0913
 Red. masses --      5.1378                 3.9903                 3.5558
 Frc consts  --      0.0029                 0.0053                 0.0112
 IR Inten    --      5.8124                 0.1371                 0.1518

                      4                      5                      6
                      A                      A                      A
 Frequencies --    111.6872               121.9016               182.8698
 Red. masses --      4.9241                 5.1766                 5.5075
 Frc consts  --      0.0362                 0.0453                 0.1085
 IR Inten    --      4.0391                 6.0441                 0.1943

                      7                      8                      9
                      A                      A                      A
 Frequencies --    186.3143               214.7998               225.0911
 Red. masses --      3.2339                 3.7336                 5.1946
 Frc consts  --      0.0661                 0.1015                 0.1551
 IR Inten    --      1.2771                 0.7173                 0.4470

                     10                     11                     12
                      A                      A                      A
 Frequencies --    231.8128               281.1698               335.6141
 Red. masses --      1.9044                 6.0918                 1.8254
 Frc consts  --      0.0603                 0.2837                 0.1211
 IR Inten    --      0.1245                 0.4457                 0.0156

                     13                     14                     15
                      A                      A                      A
 Frequencies --    381.1560               405.4177               436.8664
 Red. masses --     10.7458                 3.4892                 2.8449
 Frc consts  --      0.9198                 0.3379                 0.3199
 IR Inten    --     29.2685                 0.3789                 7.8330

                     16                     17                     18
                      A                      A                      A
 Frequencies --    437.5821               454.6797               458.3804
 Red. masses --      3.2219                 4.2725                 4.4713
 Frc consts  --      0.3635                 0.5204                 0.5535
 IR Inten    --      0.3026                 0.6042                11.0848

                     19                     20                     21
                      A                      A                      A
 Frequencies --    464.7678               500.4260               509.8582
 Red. masses --      4.6162                 2.9866                 3.9867
 Frc consts  --      0.5875                 0.4407                 0.6106
 IR Inten    --      1.7443                 1.8686                 1.3672

                     22                     23                     24
                      A                      A                      A
 Frequencies --    567.5239               654.3103               684.6453
 Red. masses --      3.6588                 4.5114                 3.7051
 Frc consts  --      0.6943                 1.1380                 1.0233
 IR Inten    --     28.9354                 1.5367                12.3752

                     25                     26                     27
                      A                      A                      A
 Frequencies --    695.0568               727.4324               744.0649
 Red. masses --      5.6426                 3.0297                 4.8171
 Frc consts  --      1.6061                 0.9446                 1.5713
 IR Inten    --      1.1265                59.3821                 3.2648

                     28                     29                     30
                      A                      A                      A
 Frequencies --    789.4301               790.0188               796.8184
 Red. masses --      3.8313                 1.6505                 1.5036
 Frc consts  --      1.4068                 0.6069                 0.5625
 IR Inten    --      1.5732                55.7227                 0.4518

                     31                     32                     33
                      A                      A                      A
 Frequencies --    816.1887               818.3278               846.5785
 Red. masses --      4.0794                 3.2362                 2.2332
 Frc consts  --      1.6011                 1.2769                 0.9430
 IR Inten    --      2.9985                 0.9572                 2.1469

                     34                     35                     36
                      A                      A                      A
 Frequencies --    896.2183               900.8150               914.1540
 Red. masses --      1.9027                 1.8091                 1.3911
 Frc consts  --      0.9004                 0.8649                 0.6849
 IR Inten    --     22.5002                 0.7144                 0.5921

                     37                     38                     39
                      A                      A                      A
 Frequencies --    923.7515               938.9134               944.5125
 Red. masses --      1.4108                 1.6671                 3.6190
 Frc consts  --      0.7093                 0.8659                 1.9022
 IR Inten    --      4.3288                10.5589                84.2322

                     40                     41                     42
                      A                      A                      A
 Frequencies --   1000.7483              1021.5654              1023.3883
 Red. masses --      1.3904                 3.0671                 1.3336
 Frc consts  --      0.8204                 1.8858                 0.8229
 IR Inten    --      1.0561                34.3420                 0.0012

                     43                     44                     45
                      A                      A                      A
 Frequencies --   1032.6380              1052.3090              1052.4895
 Red. masses --      1.8934                 1.7171                 2.2548
 Frc consts  --      1.1896                 1.1203                 1.4716
 IR Inten    --      9.0735                 0.3335                 6.6635

                     46                     47                     48
                      A                      A                      A
 Frequencies --   1085.0916              1092.1440              1097.8532
 Red. masses --      2.7563                 1.0654                 3.1948
 Frc consts  --      1.9121                 0.7487                 2.2687
 IR Inten    --      0.3498                 0.1086                20.6638

                     49                     50                     51
                      A                      A                      A
 Frequencies --   1124.7754              1155.0234              1178.3038
 Red. masses --      2.1110                 2.3619                 1.3669
 Frc consts  --      1.5735                 1.8565                 1.1182
 IR Inten    --     22.1976                22.3509                23.2535

                     52                     53                     54
                      A                      A                      A
 Frequencies --   1183.6445              1193.3685              1242.9717
 Red. masses --      1.6579                 1.4081                 1.6782
 Frc consts  --      1.3685                 1.1815                 1.5276
 IR Inten    --     14.4458                 0.8063                74.1005

                     55                     56                     57
                      A                      A                      A
 Frequencies --   1258.1223              1276.2284              1284.8446
 Red. masses --      1.6548                 1.8502                 1.2681
 Frc consts  --      1.5433                 1.7755                 1.2334
 IR Inten    --     39.0781               239.6419                 1.0990

                     58                     59                     60
                      A                      A                      A
 Frequencies --   1289.2199              1315.9849              1330.5189
 Red. masses --      1.3104                 2.6687                 1.7812
 Frc consts  --      1.2832                 2.7231                 1.8578
 IR Inten    --      9.4174               331.2021                11.5042

                     61                     62                     63
                      A                      A                      A
 Frequencies --   1331.7952              1354.5109              1358.8327
 Red. masses --      1.2711                 1.2898                 5.6721
 Frc consts  --      1.3283                 1.3943                 6.1706
 IR Inten    --      0.0105                 0.0521                20.3825

                     64                     65                     66
                      A                      A                      A
 Frequencies --   1364.8058              1366.8293              1374.1271
 Red. masses --      1.3606                 1.7911                 1.4380
 Frc consts  --      1.4933                 1.9716                 1.5998
 IR Inten    --      0.1366                34.1693                 0.0106

                     67                     68                     69
                      A                      A                      A
 Frequencies --   1379.8848              1409.3898              1480.5755
 Red. masses --      1.4491                 1.4250                 1.2169
 Frc consts  --      1.6256                 1.6677                 1.5717
 IR Inten    --     10.0300                 6.3261                 2.6211

                     70                     71                     72
                      A                      A                      A
 Frequencies --   1480.6432              1481.5825              1486.9498
 Red. masses --      1.0950                 1.9098                 1.0876
 Frc consts  --      1.4144                 2.4699                 1.4167
 IR Inten    --      1.8616                 4.1259                13.9245

                     73                     74                     75
                      A                      A                      A
 Frequencies --   1487.1978              1499.2926              1504.0650
 Red. masses --      1.0901                 1.0972                 2.6491
 Frc consts  --      1.4206                 1.4532                 3.5308
 IR Inten    --     10.0147                 1.1671                 9.6639

                     76                     77                     78
                      A                      A                      A
 Frequencies --   1610.2879              1620.7714              1650.6055
 Red. masses --      6.6190                 5.9398                 9.0767
 Frc consts  --     10.1123                 9.1931                14.5702
 IR Inten    --      8.5946               269.5921               129.4786

                     79                     80                     81
                      A                      A                      A
 Frequencies --   1687.4245              1700.2689              2997.5573
 Red. masses --     10.2489                11.4388                 1.0714
 Frc consts  --     17.1939                19.4834                 5.6718
 IR Inten    --    740.7726               253.5166                30.3046

                     82                     83                     84
                      A                      A                      A
 Frequencies --   2999.5568              3003.6611              3004.9842
 Red. masses --      1.0654                 1.0609                 1.0824
 Frc consts  --      5.6479                 5.6391                 5.7586
 IR Inten    --     27.9331                69.4853                50.1021

                     85                     86                     87
                      A                      A                      A
 Frequencies --   3026.1772              3028.4180              3045.0442
 Red. masses --      1.0636                 1.0660                 1.0960
 Frc consts  --      5.7390                 5.7602                 5.9873
 IR Inten    --     65.7773                29.9741               125.6078

                     88                     89                     90
                      A                      A                      A
 Frequencies --   3047.1160              3049.3429              3076.5469
 Red. masses --      1.0911                 1.1008                 1.1005
 Frc consts  --      5.9687                 6.0306                 6.1371
 IR Inten    --    101.3028                66.5665                 3.3654

                     91                     92                     93
                      A                      A                      A
 Frequencies --   3080.8019              3167.5640              3178.3977
 Red. masses --      1.0994                 1.0913                 1.0873
 Frc consts  --      6.1480                 6.4515                 6.4719
 IR Inten    --    112.3037                12.7851                 3.0009

                     94                     95                     96
                      A                      A                      A
 Frequencies --   3190.3423              3201.3110              3205.0046
 Red. masses --      1.0910                 1.0929                 1.0956
 Frc consts  --      6.5426                 6.5993                 6.6305
 IR Inten    --      9.0175                 5.1702                16.8915

 - Thermochemistry -
 -------------------
 Temperature   298.150 Kelvin.  Pressure   1.00000 Atm.
 Atom     1 has atomic number  8 and mass  15.99491

 Molecular mass:   240.11503 amu.
 Principal axes and moments of inertia in atomic units:
                           1         2         3
     Eigenvalues --  1864.649227655.604448780.89589
           X            0.99884   0.04684  -0.01074
           Y           -0.04609   0.87055  -0.48992
           Z           -0.01360   0.48985   0.87170
 This molecule is an asymmetric top.
 Rotational symmetry number  1.
 Warning -- assumption of classical behavior for rotation
           may cause significant error
 Rotational temperatures (Kelvin)      0.04645     0.01131     0.00986
 Rotational constants (GHZ):           0.96787     0.23574     0.20553
 Zero-point vibrational energy     740272.6 (Joules/Mol)
                                  176.92940 (Kcal/Mol)
 Warning -- explicit consideration of  22 degrees of freedom as
           vibrations may cause significant error
 Vibrational temperatures:     44.84    68.49   105.16   160.69   175.39
          (Kelvin)            263.11   268.06   309.05   323.86   333.53
                              404.54   482.87   548.40   583.31   628.55
                              629.58   654.18   659.51   668.70   720.00
                              733.57   816.54   941.41   985.05  1000.03
                             1046.61  1070.54  1135.81  1136.66  1146.44
                             1174.31  1177.39  1218.04  1289.46  1296.07
                             1315.26  1329.07  1350.89  1358.94  1439.85
                             1469.80  1472.43  1485.74  1514.04  1514.30
                             1561.20  1571.35  1579.57  1618.30  1661.82
                             1695.32  1703.00  1716.99  1788.36  1810.16
                             1836.21  1848.60  1854.90  1893.41  1914.32
                             1916.16  1948.84  1955.06  1963.65  1966.56
                             1977.06  1985.35  2027.80  2130.22  2130.32
                             2131.67  2139.39  2139.75  2157.15  2164.01
                             2316.85  2331.93  2374.85  2427.83  2446.31
                             4312.82  4315.69  4321.60  4323.50  4353.99
                             4357.22  4381.14  4384.12  4387.32  4426.46
                             4432.59  4557.42  4573.01  4590.19  4605.97
                             4611.29

 Zero-point correction=                           0.281955 (Hartree/Particle)
 Thermal correction to Energy=                    0.296723
 Thermal correction to Enthalpy=                  0.297667
 Thermal correction to Gibbs Free Energy=         0.239530
 Sum of electronic and zero-point Energies=           -769.726530
 Sum of electronic and thermal Energies=              -769.711762
 Sum of electronic and thermal Enthalpies=            -769.710818
 Sum of electronic and thermal Free Energies=         -769.768955

                     E (Thermal)             CV                S
                      KCal/Mol        Cal/Mol-Kelvin    Cal/Mol-Kelvin
 Total                  186.196             59.236            122.359
 Electronic               0.000              0.000              0.000
 Translational            0.889              2.981             42.329
 Rotational               0.889              2.981             33.194
 Vibrational            184.419             53.274             46.836
 Vibration     1          0.594              1.983              5.754
 Vibration     2          0.595              1.978              4.915
 Vibration     3          0.599              1.967              4.068
 Vibration     4          0.607              1.940              3.239
 Vibration     5          0.609              1.931              3.070
 Vibration     6          0.630              1.863              2.299
 Vibration     7          0.632              1.859              2.264
 Vibration     8          0.645              1.818              2.002
 Vibration     9          0.650              1.803              1.918
 Vibration    10          0.653              1.792              1.865
 Vibration    11          0.681              1.708              1.527
 Vibration    12          0.717              1.604              1.233
 Vibration    13          0.751              1.510              1.035
 Vibration    14          0.770              1.458              0.943
 Vibration    15          0.797              1.390              0.837
 Vibration    16          0.798              1.388              0.834
 Vibration    17          0.813              1.351              0.782
 Vibration    18          0.816              1.342              0.771
 Vibration    19          0.822              1.328              0.752
 Vibration    20          0.856              1.249              0.657
 Vibration    21          0.865              1.228              0.634
 Vibration    22          0.923              1.102              0.509

                           ! Non-Optimized Parameters !
 Normal termination of Gaussian 16 at Sun Feb 11 01:05:53 2024.
