 Gaussian 16, Revision A.03,
 Gaussian 16:  ES64L-G16RevA.03 25-Dec-2016

 ----------------------------------------------
 #P UB3LYP/6-311++G(d,p) nosym opt freq SCF=YQC
 ----------------------------------------------

 -------
 Reduced
 -------
 Symbolic Z-matrix:
 Charge = -2 Multiplicity = 1

 SCF Done:  E(UB3LYP) =  -1302.19511789     a.u. after    8 cycles
 SCF Done:  E(UB3LYP) =  -1302.19857875     A.U. after   33 cycles
 SCF Done:  E(UB3LYP) =  -1302.20107527     a.u. after    6 cycles
 SCF Done:  E(UB3LYP) =  -1302.22234265     a.u. after   85 cycles
 SCF Done:  E(UB3LYP) =  -1302.22250539     A.U. after   27 cycles
 SCF Done:  E(UB3LYP) =  -1302.22492470     a.u. after   47 cycles
 SCF Done:  E(UB3LYP) =  -1302.22516109     A.U. after   27 cycles
 SCF Done:  E(UB3LYP) =  -1302.22539651     a.u. after   28 cycles
 SCF Done:  E(UB3LYP) =  -1302.22550584     A.U. after   31 cycles
 SCF Done:  E(UB3LYP) =  -1302.22566681     a.u. after   17 cycles
 SCF Done:  E(UB3LYP) =  -1302.22575136     A.U. after   26 cycles
 SCF Done:  E(UB3LYP) =  -1302.22569474     a.u. after    5 cycles
 SCF Done:  E(UB3LYP) =  -1302.22575756     A.U. after   25 cycles
 SCF Done:  E(UB3LYP) =  -1302.22567231     a.u. after   12 cycles
 SCF Done:  E(UB3LYP) =  -1302.22574081     A.U. after   28 cycles
 SCF Done:  E(UB3LYP) =  -1302.22569782     a.u. after    5 cycles
 SCF Done:  E(UB3LYP) =  -1302.22576512     A.U. after   30 cycles
 Optimization completed.
    -- Stationary point found.
 Normal termination of Gaussian 16 at Thu Dec 21 21:54:09 2023.

 ----------------------------------------------------------------------
 #P Geom=AllCheck Guess=TCheck SCRF=Check GenChk UB3LYP/6-311++G(d,p) F
 req
 ----------------------------------------------------------------------

 Structure from the checkpoint file:  "135-an.chk"
 -------
 Reduced
 -------
 Charge = -2 Multiplicity = 1

                          Input orientation:
 ---------------------------------------------------------------------
 Center     Atomic      Atomic             Coordinates (Angstroms)
 Number     Number       Type             X           Y           Z
 ---------------------------------------------------------------------
      1          6           0        5.566110   -4.608366   -1.014463
      2          6           0        6.466206   -4.104430   -1.969842
      3          6           0        6.164009   -2.814669   -2.573448
      4          6           0        4.384318   -3.952066   -0.584609
      5          6           0        4.120728   -2.641160   -1.228293
      6          6           0        5.010357   -2.141435   -2.174730
      7          6           0        3.453956   -4.476796    0.411132
      8          6           0        2.301837   -3.629527    0.688667
      9          6           0        2.057402   -2.357764    0.054293
     10          6           0        2.956503   -1.814076   -0.928839
     11          6           0        1.356788   -4.083500    1.645489
     12          6           0        0.234320   -3.355050    1.977804
     13          6           0       -0.003176   -2.099043    1.349711
     14          6           0        0.893634   -1.628526    0.416132
     15          6           0        7.673785   -4.752199   -2.394053
     16          6           0        8.500598   -4.201973   -3.339380
     17          6           0        8.187482   -2.944600   -3.945541
     18          6           0        7.047765   -2.285327   -3.557453
     19          8           0        3.595820   -5.588372    1.018068
     20          8           0        2.757692   -0.687161   -1.503516
     21         17           0        6.017591   -6.198850   -0.321862
     22          1           0        4.757679   -1.178853   -2.608688
     23          1           0        1.566677   -5.043395    2.105857
     24          1           0       -0.467802   -3.736621    2.716819
     25          1           0       -0.886623   -1.517492    1.606764
     26          1           0        0.746123   -0.676221   -0.083405
     27          1           0        7.931064   -5.703987   -1.948616
     28          1           0        9.405169   -4.728700   -3.634555
     29          1           0        8.848700   -2.521303   -4.697265
     30          1           0        6.789987   -1.325485   -3.999077
 ---------------------------------------------------------------------

 SCF Done:  E(UB3LYP) =  -1302.22576512     a.u. after    1 cycles
 SCF Done:  E(UB3LYP) =  -1302.22576512     A.U. after    2 cycles

 Alpha  occ. eigenvalues -- -101.31349 -18.80239 -18.79359 -10.00304  -9.96939
 Alpha  occ. eigenvalues --   -9.96795  -9.96524  -9.96466  -9.96330  -9.96140
 Alpha  occ. eigenvalues --   -9.96133  -9.95706  -9.94591  -9.94500  -9.94137
 Alpha  occ. eigenvalues --   -9.93785  -9.93765  -9.93542  -9.93247  -9.92299
 Alpha  occ. eigenvalues --   -9.92229  -9.22835  -6.99261  -6.98376  -6.98259
 Alpha  occ. eigenvalues --   -0.72254  -0.71798  -0.65993  -0.62324  -0.61403
 Alpha  occ. eigenvalues --   -0.58828  -0.54461  -0.53909  -0.51202  -0.50439
 Alpha  occ. eigenvalues --   -0.49045  -0.42530  -0.42320  -0.39043  -0.37878
 Alpha  occ. eigenvalues --   -0.35198  -0.32787  -0.31501  -0.29344  -0.27598
 Alpha  occ. eigenvalues --   -0.26977  -0.23617  -0.22860  -0.22231  -0.21785
 Alpha  occ. eigenvalues --   -0.20435  -0.19363  -0.18782  -0.18309  -0.17191
 Alpha  occ. eigenvalues --   -0.16733  -0.15465  -0.15358  -0.13958  -0.13449
 Alpha  occ. eigenvalues --   -0.13021  -0.11351  -0.11252  -0.10865  -0.09558
 Alpha  occ. eigenvalues --   -0.09125  -0.07747  -0.07483  -0.05894  -0.01698
 Alpha  occ. eigenvalues --   -0.01129  -0.00368   0.00680   0.02044   0.03444
 Alpha  occ. eigenvalues --    0.11902
 Alpha virt. eigenvalues --    0.13263   0.15290   0.15305   0.15505   0.17123
 Alpha virt. eigenvalues --    0.17664   0.18964   0.19668   0.19801   0.20393
 Alpha virt. eigenvalues --    0.20994   0.22269   0.22824   0.23104   0.23737

  Beta  occ. eigenvalues -- -101.31349 -18.80239 -18.79359 -10.00304  -9.96939
  Beta  occ. eigenvalues --   -9.96795  -9.96524  -9.96466  -9.96330  -9.96140
  Beta  occ. eigenvalues --   -9.96133  -9.95706  -9.94591  -9.94500  -9.94137
  Beta  occ. eigenvalues --   -9.93785  -9.93765  -9.93542  -9.93247  -9.92299
  Beta  occ. eigenvalues --   -9.92229  -9.22835  -6.99261  -6.98376  -6.98259
  Beta  occ. eigenvalues --   -0.72254  -0.71798  -0.65993  -0.62324  -0.61403
  Beta  occ. eigenvalues --   -0.58828  -0.54461  -0.53909  -0.51202  -0.50439
  Beta  occ. eigenvalues --   -0.49045  -0.42530  -0.42320  -0.39043  -0.37878
  Beta  occ. eigenvalues --   -0.35198  -0.32787  -0.31501  -0.29344  -0.27598
  Beta  occ. eigenvalues --   -0.26977  -0.23617  -0.22860  -0.22231  -0.21785
  Beta  occ. eigenvalues --   -0.20435  -0.19363  -0.18782  -0.18309  -0.17191
  Beta  occ. eigenvalues --   -0.16733  -0.15465  -0.15358  -0.13958  -0.13449
  Beta  occ. eigenvalues --   -0.13021  -0.11351  -0.11252  -0.10865  -0.09558
  Beta  occ. eigenvalues --   -0.09125  -0.07747  -0.07483  -0.05894  -0.01698
  Beta  occ. eigenvalues --   -0.01129  -0.00368   0.00680   0.02044   0.03444
  Beta  occ. eigenvalues --    0.11902
  Beta virt. eigenvalues --    0.13263   0.15290   0.15305   0.15505   0.17123
  Beta virt. eigenvalues --    0.17664   0.18964   0.19668   0.19801   0.20393
  Beta virt. eigenvalues --    0.20994   0.22269   0.22824   0.23104   0.23737

 Mulliken charges and spin densities:
               1          2
     1  C    0.498649   0.000000
     2  C    0.480503  -0.000000
     3  C    1.247919   0.000000
     4  C    0.121414   0.000000
     5  C    0.882551  -0.000000
     6  C    0.126361  -0.000000
     7  C   -2.120850   0.000000
     8  C    0.007074  -0.000000
     9  C    0.653671   0.000000
    10  C   -1.002536  -0.000000
    11  C    0.087924   0.000000
    12  C   -0.441351  -0.000000
    13  C   -0.445613   0.000000
    14  C    0.103863  -0.000000
    15  C   -1.526729  -0.000000
    16  C   -0.252588   0.000000
    17  C    0.143189   0.000000
    18  C   -0.530402  -0.000000
    19  O   -0.356016   0.000000
    20  O   -0.462900  -0.000000
    21  Cl   0.502865   0.000000
    22  H    0.101622   0.000000
    23  H    0.142898  -0.000000
    24  H    0.083251   0.000000
    25  H    0.083888  -0.000000
    26  H    0.131110   0.000000
    27  H    0.130537   0.000000
    28  H   -0.154647  -0.000000
    29  H   -0.353495  -0.000000
    30  H    0.117838   0.000000
 Sum of Mulliken charges =  -2.00000   0.00000

 Dipole moment (field-independent basis, Debye):
    X=            -40.0726    Y=             32.6480    Z=              7.6454  Tot=             52.2509
 Quadrupole moment (field-independent basis, Debye-Ang):
   XX=           -380.2945   YY=           -291.9554   ZZ=           -187.7314
   XY=            151.7128   XZ=             71.5220   YZ=            -12.8924

  Exact polarizability:2744.338-139.729 520.229********-186.0581583.051
 Approx polarizability:3786.952-234.272 672.501********-126.5102083.003

                      1                      2                      3
                      A                      A                      A
 Frequencies --     15.5423                36.7223                88.1248
 Red. masses --     12.4929                 6.7528                 4.5315
 Frc consts  --      0.0018                 0.0054                 0.0207
 IR Inten    --      1.8046                 1.4472                 3.5672

                      4                      5                      6
                      A                      A                      A
 Frequencies --    123.6929               133.4600               157.7284
 Red. masses --      4.6186                 6.0964                 6.6345
 Frc consts  --      0.0416                 0.0640                 0.0972
 IR Inten    --      2.1562                 5.1826                17.9216

                      7                      8                      9
                      A                      A                      A
 Frequencies --    179.4924               236.1022               267.6389
 Red. masses --      6.6306                11.1138                 6.1182
 Frc consts  --      0.1259                 0.3650                 0.2582
 IR Inten    --      1.0160                 0.2915                80.3287

                     10                     11                     12
                      A                      A                      A
 Frequencies --    269.4336               288.6529               303.2604
 Red. masses --      5.8358                 6.1886                 7.7639
 Frc consts  --      0.2496                 0.3038                 0.4207
 IR Inten    --      8.8965                 7.7437               121.2452

                     13                     14                     15
                      A                      A                      A
 Frequencies --    323.9580               374.3560               394.5881
 Red. masses --     12.4275                11.1117                 8.4825
 Frc consts  --      0.7684                 0.9175                 0.7781
 IR Inten    --      0.1544               310.1070                 3.0963

                     16                     17                     18
                      A                      A                      A
 Frequencies --    399.5122               422.2601               461.7494
 Red. masses --      7.4466                 3.3809                 3.1498
 Frc consts  --      0.7003                 0.3552                 0.3957
 IR Inten    --     17.4865                20.3617                31.7660

                     19                     20                     21
                      A                      A                      A
 Frequencies --    469.3162               484.2518               508.2580
 Red. masses --     12.2328                 6.8134                 4.4796
 Frc consts  --      1.5875                 0.9414                 0.6818
 IR Inten    --   2225.5724                98.4261                 0.7682

                     22                     23                     24
                      A                      A                      A
 Frequencies --    537.8604               575.8339               587.4042
 Red. masses --      4.0579                 7.7110                 7.4439
 Frc consts  --      0.6917                 1.5064                 1.5133
 IR Inten    --      1.3344                21.2668                 2.1618

                     25                     26                     27
                      A                      A                      A
 Frequencies --    593.2196               646.8308               670.7390
 Red. masses --      4.8167                 6.6596                 6.3684
 Frc consts  --      0.9987                 1.6416                 1.6881
 IR Inten    --     55.9050                 2.1720                28.7248

                     28                     29                     30
                      A                      A                      A
 Frequencies --    692.6390               693.5576               723.9231
 Red. masses --      1.8378                 5.3037                 7.0501
 Frc consts  --      0.5195                 1.5031                 2.1769
 IR Inten    --     70.2420                39.2630                94.5844

                     31                     32                     33
                      A                      A                      A
 Frequencies --    731.0153               740.6659               746.9130
 Red. masses --      2.8760                 5.3841                 1.5630
 Frc consts  --      0.9055                 1.7402                 0.5137
 IR Inten    --     13.0041               173.1075                 4.7553

                     34                     35                     36
                      A                      A                      A
 Frequencies --    760.2591               784.6219               801.4303
 Red. masses --      2.6305                 1.7290                 1.6067
 Frc consts  --      0.8958                 0.6271                 0.6080
 IR Inten    --      8.5525                 0.9505                21.2122

                     37                     38                     39
                      A                      A                      A
 Frequencies --    817.6502               828.0056               861.1659
 Red. masses --      6.0979                 3.5110                 6.7947
 Frc consts  --      2.4020                 1.4182                 2.9689
 IR Inten    --    148.5742                 1.7684                 4.8348

                     40                     41                     42
                      A                      A                      A
 Frequencies --    922.8262               939.0247               943.4975
 Red. masses --      1.2838                 4.8516                 1.2985
 Frc consts  --      0.6442                 2.5205                 0.6810
 IR Inten    --     13.9331               525.9611                 8.1073

                     43                     44                     45
                      A                      A                      A
 Frequencies --    954.2490               960.6606               968.6217
 Red. masses --      1.3901                 1.2875                 7.3746
 Frc consts  --      0.7458                 0.7000                 4.0766
 IR Inten    --     46.0845                 5.1441               997.4707

                     46                     47                     48
                      A                      A                      A
 Frequencies --    970.8348              1008.4074              1015.5457
 Red. masses --      1.3259                 2.4082                 2.0338
 Frc consts  --      0.7363                 1.4428                 1.2358
 IR Inten    --      3.5490               105.5443               938.2831

                     49                     50                     51
                      A                      A                      A
 Frequencies --   1064.9563              1090.7452              1115.7798
 Red. masses --      4.9063                 2.6999                 1.7066
 Frc consts  --      3.2784                 1.8925                 1.2518
 IR Inten    --    916.5883               169.9648                57.2197

                     52                     53                     54
                      A                      A                      A
 Frequencies --   1135.2111              1154.1715              1164.4524
 Red. masses --      1.5196                 2.0059                 1.2298
 Frc consts  --      1.1538                 1.5743                 0.9825
 IR Inten    --    288.5670               173.6605              1160.9816

                     55                     56                     57
                      A                      A                      A
 Frequencies --   1181.6778              1201.2641              1217.3122
 Red. masses --      2.2718                 2.4598                 2.6989
 Frc consts  --      1.8691                 2.0914                 2.3563
 IR Inten    --    508.3094               960.5874               460.6918

                     58                     59                     60
                      A                      A                      A
 Frequencies --   1254.7652              1270.9092              1307.9709
 Red. masses --      2.2692                 2.1617                 2.2996
 Frc consts  --      2.1050                 2.0572                 2.3179
 IR Inten    --    469.0698               180.7807               372.4679

                     61                     62                     63
                      A                      A                      A
 Frequencies --   1336.8391              1351.6445              1370.9191
 Red. masses --      4.5381                 6.7917                 3.1323
 Frc consts  --      4.7784                 7.3106                 3.4684
 IR Inten    --   2188.7258               866.6889                65.3738

                     64                     65                     66
                      A                      A                      A
 Frequencies --   1384.8739              1424.6887              1452.1739
 Red. masses --      4.0754                 3.5202                 3.1764
 Frc consts  --      4.6051                 4.2097                 3.9466
 IR Inten    --    569.0431              1123.6987              1797.5018

                     67                     68                     69
                      A                      A                      A
 Frequencies --   1463.8533              1467.3698              1473.2225
 Red. masses --      2.6696                 4.2778                 5.2015
 Frc consts  --      3.3704                 5.4269                 6.6515
 IR Inten    --   1405.4080              1742.7956              6497.4097

                     70                     71                     72
                      A                      A                      A
 Frequencies --   1494.6339              1515.1490              1547.3160
 Red. masses --      3.2527                 6.8949                 6.6405
 Frc consts  --      4.2812                 9.3259                 9.3672
 IR Inten    --    759.7776               262.1678              6021.9745

                     73                     74                     75
                      A                      A                      A
 Frequencies --   1563.0362              1591.3879              1604.8817
 Red. masses --      6.6145                 5.3271                 5.2110
 Frc consts  --      9.5210                 7.9487                 7.9078
 IR Inten    --   1843.9727                36.0880                36.3781

                     76                     77                     78
                      A                      A                      A
 Frequencies --   3096.5467              3111.6725              3119.6668
 Red. masses --      1.0828                 1.0832                 1.0908
 Frc consts  --      6.1174                 6.1793                 6.2546
 IR Inten    --     48.1819               382.3522               606.7294

                     79                     80                     81
                      A                      A                      A
 Frequencies --   3126.0391              3143.9327              3157.9957
 Red. masses --      1.0879                 1.0952                 1.0885
 Frc consts  --      6.2635                 6.3783                 6.3958
 IR Inten    --    363.5261               371.0789                30.0716

                     82                     83                     84
                      A                      A                      A
 Frequencies --   3162.1411              3166.4360              3194.1201
 Red. masses --      1.0908                 1.0910                 1.0902
 Frc consts  --      6.4262                 6.4447                 6.5530
 IR Inten    --    127.5403               321.4896                20.7502

 - Thermochemistry -
 -------------------
 Temperature   298.150 Kelvin.  Pressure   1.00000 Atm.
 Atom     1 has atomic number  6 and mass  12.00000

 Molecular mass:   292.02911 amu.
 Principal axes and moments of inertia in atomic units:
                           1         2         3
     Eigenvalues --  3051.177408994.42767**********
           X            0.85040  -0.11179   0.51413
           Y           -0.16374   0.87241   0.46053
           Z           -0.50002  -0.47582   0.72359
 This molecule is an asymmetric top.
 Rotational symmetry number  1.
 Warning -- assumption of classical behavior for rotation
           may cause significant error
 Rotational temperatures (Kelvin)      0.02839     0.00963     0.00719
 Rotational constants (GHZ):           0.59149     0.20065     0.14983
 Zero-point vibrational energy     549655.7 (Joules/Mol)
                                  131.37087 (Kcal/Mol)
 Warning -- explicit consideration of  25 degrees of freedom as
           vibrations may cause significant error
 Vibrational temperatures:     22.36    52.84   126.79   177.97   192.02
          (Kelvin)            226.94   258.25   339.70   385.07   387.65
                              415.31   436.32   466.10   538.61   567.72
                              574.81   607.54   664.35   675.24   696.73
                              731.27   773.86   828.50   845.14   853.51
                              930.65   965.04   996.55   997.87  1041.56
                             1051.77  1065.65  1074.64  1093.84  1128.90
                             1153.08  1176.42  1191.32  1239.03  1327.74
                             1351.05  1357.48  1372.95  1382.18  1393.63
                             1396.81  1450.87  1461.14  1532.23  1569.34
                             1605.36  1633.32  1660.60  1675.39  1700.17
                             1728.35  1751.44  1805.33  1828.55  1881.88
                             1923.41  1944.71  1972.45  1992.52  2049.81
                             2089.35  2106.16  2111.22  2119.64  2150.44
                             2179.96  2226.24  2248.86  2289.65  2309.07
                             4455.24  4477.00  4488.50  4497.67  4523.42
                             4543.65  4549.62  4555.80  4595.63

 Zero-point correction=                           0.209353 (Hartree/Particle)
 Thermal correction to Energy=                    0.224921
 Thermal correction to Enthalpy=                  0.225865
 Thermal correction to Gibbs Free Energy=         0.165286
 Sum of electronic and zero-point Energies=          -1302.016412
 Sum of electronic and thermal Energies=             -1302.000844
 Sum of electronic and thermal Enthalpies=           -1301.999900
 Sum of electronic and thermal Free Energies=        -1302.060479

                     E (Thermal)             CV                S
                      KCal/Mol        Cal/Mol-Kelvin    Cal/Mol-Kelvin
 Total                  141.140             63.283            127.498
 Electronic               0.000              0.000              0.000
 Translational            0.889              2.981             42.912
 Rotational               0.889              2.981             34.157
 Vibrational            139.363             57.322             50.429
 Vibration     1          0.593              1.986              7.135
 Vibration     2          0.594              1.982              5.428
 Vibration     3          0.601              1.958              3.701
 Vibration     4          0.610              1.929              3.042
 Vibration     5          0.613              1.920              2.896
 Vibration     6          0.621              1.894              2.577
 Vibration     7          0.629              1.867              2.334
 Vibration     8          0.655              1.785              1.832
 Vibration     9          0.673              1.733              1.611
 Vibration    10          0.674              1.729              1.600
 Vibration    11          0.685              1.695              1.482
 Vibration    12          0.695              1.668              1.399
 Vibration    13          0.709              1.628              1.290
 Vibration    14          0.745              1.525              1.062
 Vibration    15          0.762              1.482              0.983
 Vibration    16          0.766              1.471              0.964
 Vibration    17          0.785              1.422              0.884
 Vibration    18          0.819              1.335              0.761
 Vibration    19          0.826              1.318              0.739
 Vibration    20          0.840              1.285              0.699
 Vibration    21          0.863              1.232              0.638
 Vibration    22          0.893              1.166              0.570
 Vibration    23          0.932              1.084              0.493
 Vibration    24          0.945              1.059              0.472
 Vibration    25          0.951              1.046              0.461

                           ! Non-Optimized Parameters !
 Normal termination of Gaussian 16 at Thu Dec 21 22:53:49 2023.
