 Gaussian 16, Revision A.03,
 Gaussian 16:  ES64L-G16RevA.03 25-Dec-2016

 ----------------------------------------------------------------
 #P UB3LYP/6-311++G(d,p) SCRF=(PCM,Solvent=n,n-DiMethylFormamide)
 ----------------------------------------------------------------

 -------
 Reduced
 -------
 Symbolic Z-matrix:
 Charge = -2 Multiplicity = 1

                         Standard orientation:
 ---------------------------------------------------------------------
 Center     Atomic      Atomic             Coordinates (Angstroms)
 Number     Number       Type             X           Y           Z
 ---------------------------------------------------------------------
      1          6           0        4.152304   -1.846248    0.136906
      2          7           0        2.792423   -1.501154   -0.158908
      3          6           0        2.313841   -0.209008   -0.067007
      4          6           0        3.176375    0.887232   -0.013827
      5          6           0        2.658029    2.206964    0.016539
      6          6           0        1.301310    2.426004    0.006907
      7          6           0        0.376996    1.345397   -0.013298
      8          6           0       -1.038277    1.666714    0.002653
      9          8           0       -1.473134    2.873435    0.017039
     10          6           0       -1.927429    0.525092    0.000241
     11          6           0       -3.329848    0.729732    0.013561
     12          6           0       -4.227150   -0.318846    0.020919
     13          6           0       -3.740368   -1.656954    0.017407
     14          6           0       -2.380743   -1.889891    0.005196
     15          6           0       -1.432415   -0.833026   -0.007570
     16          6           0       -0.025431   -1.144330   -0.023142
     17          8           0        0.376819   -2.388328   -0.006063
     18          6           0        0.872247   -0.016603   -0.043991
     19          1           0        4.507377   -1.440936    1.105307
     20          1           0        4.860492   -1.488292   -0.628225
     21          1           0        4.245349   -2.936338    0.179385
     22          1           0        2.017988   -2.187904   -0.056891
     23          1           0        4.249622    0.730200   -0.032456
     24          1           0        3.350396    3.047371    0.045806
     25          1           0        0.879856    3.424791    0.025393
     26          1           0       -3.665293    1.762430    0.018816
     27          1           0       -5.298824   -0.126855    0.030437
     28          1           0       -4.439262   -2.491894    0.024217
     29          1           0       -1.980790   -2.898733    0.003794
 ---------------------------------------------------------------------

 SCF Done:  E(UB3LYP) =  -783.883175226     A.U. after   17 cycles

 The electronic state is 1-A.
 Alpha  occ. eigenvalues --  -19.02480 -19.01691 -14.28320 -10.18589 -10.18164
 Alpha  occ. eigenvalues --  -10.17511 -10.17009 -10.14794 -10.14744 -10.14454
 Alpha  occ. eigenvalues --  -10.14431 -10.14309 -10.13873 -10.13409 -10.13273
 Alpha  occ. eigenvalues --  -10.13134 -10.13086 -10.12801  -0.94435  -0.93588
 Alpha  occ. eigenvalues --   -0.89936  -0.82349  -0.80648  -0.74818  -0.72130
 Alpha  occ. eigenvalues --   -0.71765  -0.70293  -0.65749  -0.63205  -0.59923
 Alpha  occ. eigenvalues --   -0.58712  -0.54866  -0.52909  -0.50293  -0.49284
 Alpha  occ. eigenvalues --   -0.47020  -0.44484  -0.43778  -0.42730  -0.42124
 Alpha  occ. eigenvalues --   -0.41801  -0.40586  -0.39716  -0.37848  -0.37557
 Alpha  occ. eigenvalues --   -0.37129  -0.36251  -0.35470  -0.34407  -0.33953
 Alpha  occ. eigenvalues --   -0.32583  -0.32359  -0.31230  -0.30246  -0.29961
 Alpha  occ. eigenvalues --   -0.26690  -0.22803  -0.22425  -0.21341  -0.20445
 Alpha  occ. eigenvalues --   -0.19397  -0.17622  -0.10325
 Alpha virt. eigenvalues --   -0.01837  -0.00079   0.00561   0.00597   0.01211
 Alpha virt. eigenvalues --    0.02227   0.02347   0.03157   0.03746   0.03887
 Alpha virt. eigenvalues --    0.04254   0.04750   0.05487   0.06162   0.06562

  Beta  occ. eigenvalues --  -19.02480 -19.01691 -14.28320 -10.18589 -10.18164
  Beta  occ. eigenvalues --  -10.17511 -10.17009 -10.14794 -10.14744 -10.14454
  Beta  occ. eigenvalues --  -10.14431 -10.14309 -10.13873 -10.13409 -10.13273
  Beta  occ. eigenvalues --  -10.13134 -10.13086 -10.12801  -0.94435  -0.93588
  Beta  occ. eigenvalues --   -0.89936  -0.82349  -0.80648  -0.74818  -0.72130
  Beta  occ. eigenvalues --   -0.71765  -0.70293  -0.65749  -0.63205  -0.59923
  Beta  occ. eigenvalues --   -0.58712  -0.54866  -0.52909  -0.50293  -0.49284
  Beta  occ. eigenvalues --   -0.47020  -0.44484  -0.43778  -0.42730  -0.42124
  Beta  occ. eigenvalues --   -0.41801  -0.40586  -0.39716  -0.37848  -0.37557
  Beta  occ. eigenvalues --   -0.37129  -0.36251  -0.35470  -0.34407  -0.33953
  Beta  occ. eigenvalues --   -0.32583  -0.32359  -0.31230  -0.30246  -0.29961
  Beta  occ. eigenvalues --   -0.26690  -0.22803  -0.22425  -0.21341  -0.20445
  Beta  occ. eigenvalues --   -0.19397  -0.17622  -0.10325
  Beta virt. eigenvalues --   -0.01837  -0.00079   0.00561   0.00597   0.01211
  Beta virt. eigenvalues --    0.02227   0.02347   0.03157   0.03746   0.03887
  Beta virt. eigenvalues --    0.04254   0.04750   0.05487   0.06162   0.06562

 Mulliken charges and spin densities:
               1          2
     1  C   -0.377032  -0.000000
     2  N   -0.294869  -0.000000
     3  C    0.149871  -0.000000
     4  C   -0.128188   0.000000
     5  C   -0.517669   0.000000
     6  C   -0.145397  -0.000000
     7  C    0.521683  -0.000000
     8  C   -0.535666  -0.000000
     9  O   -0.652113  -0.000000
    10  C    0.134027  -0.000000
    11  C   -0.057867   0.000000
    12  C   -0.483683   0.000000
    13  C   -0.542136   0.000000
    14  C   -0.030814   0.000000
    15  C    0.071151   0.000000
    16  C   -0.327174  -0.000000
    17  O   -0.634864   0.000000
    18  C    0.014985   0.000000
    19  H    0.138764   0.000000
    20  H    0.139078  -0.000000
    21  H    0.142575   0.000000
    22  H    0.395621   0.000000
    23  H    0.138987   0.000000
    24  H    0.156739   0.000000
    25  H    0.131789  -0.000000
    26  H    0.138353   0.000000
    27  H    0.154830  -0.000000
    28  H    0.155117   0.000000
    29  H    0.143903   0.000000
 Sum of Mulliken charges =  -2.00000   0.00000

 Dipole moment (field-independent basis, Debye):
    X=              5.0409    Y=             -4.7542    Z=              0.4266  Tot=              6.9423
 Quadrupole moment (field-independent basis, Debye-Ang):
   XX=           -138.9842   YY=           -162.8338   ZZ=           -120.2224
   XY=              8.0282   XZ=              1.2937   YZ=             -1.0515

 Normal termination of Gaussian 16 at Sun Jan 14 01:31:18 2024.
