 Q-Chem 5.4, Q-Chem, Inc., Pleasanton, CA (2021)
 Q-Chem 5.4.0 for Intel X86 EM64T Linux

User input:
--------------------------------------------------------------
$molecule
-1 2
C                 -1.9325660000      3.0532710000      0.2295580000
C                 -2.8669730000      2.2384850000      0.8414190000
C                 -2.5621400000      0.8870120000      1.1016470000
C                 -0.6670480000      2.5500750000     -0.1426180000
C                 -0.3569670000      1.1846820000      0.1199260000
C                 -1.3244870000      0.3775180000      0.7432940000
C                  0.3105410000      3.4038200000     -0.7834930000
C                  1.5766680000      2.7982380000     -1.1263020000
C                  1.9067790000      1.4797070000     -0.8939270000
C                  0.9527710000      0.6046620000     -0.2470030000
O                  0.1381360000      4.6356110000     -1.0642400000
O                  1.2162480000     -0.6022370000     -0.0051260000
H                 -2.1436340000      4.0956720000      0.0189130000
H                 -3.8367930000      2.6391520000      1.1223180000
H                 -3.2966620000      0.2476250000      1.5822990000
H                 -1.0627510000     -0.6575280000      0.9320340000
C                  3.2523700000      0.9230190000     -1.2814350000
O                  2.4480640000      3.6626720000     -1.7236010000
H                  3.6481590000      1.4825390000     -2.1353260000
H                  3.1153990000     -0.1193870000     -1.5866460000
H                  1.9218140000      4.4923880000     -1.7511090000
C                  4.2803860000      0.9618110000     -0.1339760000
C                  5.6372340000      0.3636240000     -0.5205810000
C                  6.6713670000      0.3940240000      0.6107660000
C                  8.0251930000     -0.2073140000      0.2183140000
H                  3.8673160000      0.4137770000      0.7195980000
H                  4.4169420000      2.0010330000      0.1886320000
H                  6.0393000000      0.9036800000     -1.3892020000
H                  5.4929240000     -0.6749850000     -0.8476820000
H                  6.2704710000     -0.1454510000      1.4776330000
H                  6.8150010000      1.4309770000      0.9392640000
H                  7.9184940000     -1.2549970000     -0.0826040000
H                  8.7403320000     -0.1707250000      1.0468050000
H                  8.4668410000      0.3328100000     -0.6261080000
$end

$rem
BASIS  =  6-311++G(d,p)
GUI  =  2
JOB_TYPE  =  SP
METHOD  =  B3LYP
SCF_CONVERGENCE  = 8
SOLVENT_METHOD = sm12
$end

$smx
solvent dimethylformamide
charges CM5
$end

--------------------------------------------------------------

             Standard Nuclear Orientation (Angstroms)
    I     Atom           X                Y                Z
 ----------------------------------------------------------------
    1      C      -1.9325660000     3.0532710000     0.2295580000
    2      C      -2.8669730000     2.2384850000     0.8414190000
    3      C      -2.5621400000     0.8870120000     1.1016470000
    4      C      -0.6670480000     2.5500750000    -0.1426180000
    5      C      -0.3569670000     1.1846820000     0.1199260000
    6      C      -1.3244870000     0.3775180000     0.7432940000
    7      C       0.3105410000     3.4038200000    -0.7834930000
    8      C       1.5766680000     2.7982380000    -1.1263020000
    9      C       1.9067790000     1.4797070000    -0.8939270000
   10      C       0.9527710000     0.6046620000    -0.2470030000
   11      O       0.1381360000     4.6356110000    -1.0642400000
   12      O       1.2162480000    -0.6022370000    -0.0051260000
   13      H      -2.1436340000     4.0956720000     0.0189130000
   14      H      -3.8367930000     2.6391520000     1.1223180000
   15      H      -3.2966620000     0.2476250000     1.5822990000
   16      H      -1.0627510000    -0.6575280000     0.9320340000
   17      C       3.2523700000     0.9230190000    -1.2814350000
   18      O       2.4480640000     3.6626720000    -1.7236010000
   19      H       3.6481590000     1.4825390000    -2.1353260000
   20      H       3.1153990000    -0.1193870000    -1.5866460000
   21      H       1.9218140000     4.4923880000    -1.7511090000
   22      C       4.2803860000     0.9618110000    -0.1339760000
   23      C       5.6372340000     0.3636240000    -0.5205810000
   24      C       6.6713670000     0.3940240000     0.6107660000
   25      C       8.0251930000    -0.2073140000     0.2183140000
   26      H       3.8673160000     0.4137770000     0.7195980000
   27      H       4.4169420000     2.0010330000     0.1886320000
   28      H       6.0393000000     0.9036800000    -1.3892020000
   29      H       5.4929240000    -0.6749850000    -0.8476820000
   30      H       6.2704710000    -0.1454510000     1.4776330000
   31      H       6.8150010000     1.4309770000     0.9392640000
   32      H       7.9184940000    -1.2549970000    -0.0826040000
   33      H       8.7403320000    -0.1707250000     1.0468050000
   34      H       8.4668410000     0.3328100000    -0.6261080000
 ----------------------------------------------------------------

   18    -807.2176942616      6.82e-09  Convergence criterion met
 Total energy in the final basis set =     -807.3039731367

                    Orbital Energies (a.u.)
 --------------------------------------------------------------

 Alpha MOs
 -- Occupied --
-19.1447 -19.0863 -19.0736 -10.2244 -10.2241 -10.2219 -10.1820 -10.1807
-10.1806 -10.1791 -10.1784 -10.1777 -10.1668 -10.1656 -10.1654 -10.1651
-10.1640 -10.1597  -1.0643  -0.9987  -0.9957  -0.8642  -0.8189  -0.7996
 -0.7677  -0.7576  -0.7333  -0.6900  -0.6645  -0.6276  -0.6154  -0.5881
 -0.5795  -0.5735  -0.5417  -0.5083  -0.4888  -0.4773  -0.4639  -0.4596
 -0.4415  -0.4347  -0.4339  -0.4270  -0.4157  -0.4088  -0.4032  -0.3949
 -0.3894  -0.3837  -0.3721  -0.3714  -0.3587  -0.3511  -0.3455  -0.3444
 -0.3355  -0.3310  -0.3257  -0.3231  -0.2711  -0.2641  -0.2590  -0.2385
 -0.2313  -0.1525

 Beta MOs
 -- Occupied --
-19.1442 -19.0796 -19.0680 -10.2234 -10.2232 -10.2193 -10.1820 -10.1803
-10.1798 -10.1787 -10.1782 -10.1770 -10.1668 -10.1656 -10.1650 -10.1647
-10.1639 -10.1597  -1.0622  -0.9890  -0.9844  -0.8619  -0.8169  -0.7977
 -0.7660  -0.7556  -0.7323  -0.6862  -0.6588  -0.6264  -0.6135  -0.5866
 -0.5793  -0.5711  -0.5401  -0.5061  -0.4869  -0.4759  -0.4629  -0.4586
 -0.4382  -0.4337  -0.4283  -0.4251  -0.4106  -0.4049  -0.4001  -0.3934
 -0.3825  -0.3803  -0.3712  -0.3632  -0.3551  -0.3460  -0.3425  -0.3360
 -0.3305  -0.3286  -0.3245  -0.3214  -0.2569  -0.2530  -0.2508  -0.2332
 -0.2213

          Ground-State Mulliken Net Atomic Charges

     Atom                 Charge (a.u.)    Spin (a.u.)
  --------------------------------------------------------
      1 C                     0.228741       0.074862
      2 C                     0.848816       0.001567
      3 C                     0.856299       0.075188
      4 C                    -0.747148       0.005074
      5 C                    -1.054297       0.072747
      6 C                    -0.169564      -0.000440
      7 C                    -1.444847       0.137295
      8 C                    -0.612860       0.061840
      9 C                     1.191557       0.049500
     10 C                    -2.046162       0.049308
     11 O                    -0.373473       0.248688
     12 O                    -0.292841       0.210144
     13 H                     0.171131      -0.003998
     14 H                     0.357751      -0.000675
     15 H                     0.341572      -0.005303
     16 H                     0.141316      -0.000301
     17 C                    -0.069087       0.010059
     18 O                    -0.141390       0.015843
     19 H                     0.197096      -0.000842
     20 H                     0.141436       0.002608
     21 H                     0.297536      -0.003931
     22 C                    -0.923431      -0.000596
     23 C                     0.545109       0.002123
     24 C                     0.300156      -0.001881
     25 C                     0.075389       0.000068
     26 H                     0.076181      -0.001813
     27 H                     0.091034       0.002364
     28 H                     0.137450      -0.000360
     29 H                     0.129645       0.000749
     30 H                     0.107930      -0.000044
     31 H                     0.113473       0.000091
     32 H                     0.137773      -0.000020
     33 H                     0.248845       0.000080
     34 H                     0.138864       0.000004
  --------------------------------------------------------
  Sum of atomic charges =    -1.000000

                    Cartesian Multipole Moments
 -----------------------------------------------------------------
    Charge (ESU x 10^10)
                -4.8032
    Dipole Moment (Debye)
         X      -3.8186      Y      -9.0859      Z       2.5988
       Tot      10.1926
    Quadrupole Moments (Debye-Ang)
        XX    -125.4929     XY      -1.9248     YY    -156.5799
        XZ       2.7038     YZ       9.7867     ZZ    -118.3076

 Total job time:  1057.22s(wall), 8201.25s(cpu)
        *  Thank you very much for using Q-Chem.  Have a nice day.  *
