 Q-Chem 5.4, Q-Chem, Inc., Pleasanton, CA (2021)
 Q-Chem 5.4.0 for Intel X86 EM64T Linux

User input:
--------------------------------------------------------------
$molecule
-2 1
C                 -1.8796210000     -3.6834530000      1.3027530000
C                 -0.5136360000     -3.8799830000      1.0630230000
C                  0.3463560000     -2.8422910000      0.6089170000
C                 -0.1028270000     -1.5193980000      0.3177220000
C                 -1.5212030000     -1.3134620000      0.5737230000
C                 -2.3238670000     -2.3425300000      1.0161940000
O                 -2.7788100000     -4.5176900000      1.7637760000
O                  0.6281680000     -0.5676920000     -0.1415220000
O                 -3.6748520000     -2.1920400000      1.2793900000
C                 -2.0762570000      0.0601690000      0.3041530000
Br                 0.1651620000     -5.6584530000      1.5135630000
Br                 2.2182970000     -3.1972530000      0.1848410000
H                 -1.5227070000      0.8221770000      0.8688300000
H                 -3.1364940000      0.1113810000      0.5676140000
H                 -1.9548590000      0.3350410000     -0.7533040000
H                 -3.8611040000     -3.1196940000      1.5960780000
$end
$rem
MAX_SCF_CYCLES=200
BASIS  =  6-311++G(d,p)
GUI  =  2
JOB_TYPE  =  SP
METHOD  =  B3LYP
SOLVENT_METHOD = COSMO
$end
$solvent
dielectric 37.219
opticaldielectric 1.43
$end

--------------------------------------------------------------

             Standard Nuclear Orientation (Angstroms)
    I     Atom           X                Y                Z
 ----------------------------------------------------------------
    1      C       1.0422277337    -1.4972060013     0.0478502749
    2      C      -0.1118587969    -0.7037871878     0.0237587728
    3      C      -0.0697170684     0.7163586681    -0.0395895402
    4      C       1.1434788834     1.4678444887    -0.0451057851
    5      C       2.3429084127     0.6427471868    -0.0272208116
    6      C       2.2634401087    -0.7317472767     0.0317774076
    7      O       1.1630580341    -2.8019573056     0.0554993781
    8      O       1.2265561746     2.7500582658    -0.0504951591
    9      O       3.3755039978    -1.5565199213     0.0437705776
   10      C       3.6687966371     1.3564416614    -0.0438239750
   11      Br     -1.8005837154    -1.6890693158    -0.0405516869
   12      Br     -1.7055015614     1.7783069141     0.0408877727
   13      H       3.7398430201     2.0271194620    -0.9104713128
   14      H       4.4964362091     0.6419175462    -0.0684185159
   15      H       3.7797021155     2.0049312235     0.8368965598
   16      H       2.9004022261    -2.4338417181     0.0541538305
 ----------------------------------------------------------------

   11   -5643.2408857086      5.04e-06  Convergence criterion met
 Total energy in the final basis set =    -5643.2408857086
    5   -5643.5188311758      8.35e-06  Convergence criterion met
 Total energy in the final basis set =    -5643.5188311758

                    Orbital Energies (a.u.)
 --------------------------------------------------------------

 Alpha MOs
 -- Occupied --
********-482.8075 -62.4642 -62.4603 -56.2844 -56.2809 -56.2807 -56.2805
-56.2771 -56.2769 -19.1197 -19.0466 -19.0324 -10.1960 -10.1949 -10.1939
-10.1906 -10.1862 -10.1442 -10.1436  -8.6728  -8.6690  -6.5035  -6.4995
 -6.4920  -6.4912  -6.4882  -6.4874  -2.6145  -2.6114  -2.6108  -2.6106
 -2.6076  -2.6069  -2.6016  -2.6015  -2.5979  -2.5978  -1.0340  -0.9517
 -0.9468  -0.8236  -0.7751  -0.7675  -0.7176  -0.6597  -0.6411  -0.5548
 -0.5431  -0.4992  -0.4599  -0.4197  -0.4139  -0.3967  -0.3821  -0.3794
 -0.3763  -0.3727  -0.3534  -0.3391  -0.3258  -0.3241  -0.2956  -0.2880
 -0.2829  -0.2616  -0.2366  -0.2347  -0.2122  -0.1978  -0.1386

          Ground-State Mulliken Net Atomic Charges

     Atom                 Charge (a.u.)
  ----------------------------------------
      1 C                    -0.727924
      2 C                     0.821420
      3 C                    -0.024031
      4 C                    -0.830621
      5 C                     1.882375
      6 C                    -1.486546
      7 O                    -0.690246
      8 O                    -0.649688
      9 O                    -0.365752
     10 C                    -0.180687
     11 Br                   -0.249434
     12 Br                   -0.282399
     13 H                     0.159514
     14 H                     0.169266
     15 H                     0.157769
     16 H                     0.296984
  ----------------------------------------
  Sum of atomic charges =    -2.000000

                    Cartesian Multipole Moments
 -----------------------------------------------------------------
    Charge (ESU x 10^10)
                -9.6064
    Dipole Moment (Debye)
         X      -6.9897      Y      -0.4223      Z       0.0013
       Tot       7.0024
    Quadrupole Moments (Debye-Ang)
        XX    -130.0231     XY       1.4916     YY    -161.1116
        XZ      -0.1162     YZ       0.9693     ZZ    -103.1230

 Total job time:  30.12s(wall), 211.29s(cpu)
        *  Thank you very much for using Q-Chem.  Have a nice day.  *
