 Gaussian 16, Revision A.03,
 Gaussian 16:  ES64L-G16RevA.03 25-Dec-2016

 --------------------------------------
 #P UB3LYP/6-311++G(d,p) nosym opt freq
 --------------------------------------

 -------
 Radical
 -------
 Symbolic Z-matrix:
 Charge = -1 Multiplicity = 2

 SCF Done:  E(UB3LYP) =  -801.332305239     A.U. after   23 cycles
 SCF Done:  E(UB3LYP) =  -801.362648681     A.U. after   18 cycles
 SCF Done:  E(UB3LYP) =  -801.372250695     A.U. after   18 cycles
 SCF Done:  E(UB3LYP) =  -801.374269929     A.U. after   16 cycles
 SCF Done:  E(UB3LYP) =  -801.374813234     A.U. after   15 cycles
 SCF Done:  E(UB3LYP) =  -801.374881434     A.U. after   14 cycles
 SCF Done:  E(UB3LYP) =  -801.374904012     A.U. after   14 cycles
 SCF Done:  E(UB3LYP) =  -801.374905300     A.U. after   13 cycles
 SCF Done:  E(UB3LYP) =  -801.374907287     A.U. after   12 cycles
 Optimization completed.
    -- Stationary point found.
 Normal termination of Gaussian 16 at Sat Jan  6 02:31:21 2024.

 ----------------------------------------------------------------------
 #P Geom=AllCheck Guess=TCheck SCRF=Check GenChk UB3LYP/6-311++G(d,p) F
 req
 ----------------------------------------------------------------------

 Structure from the checkpoint file:  "336-rad.chk"
 -------
 Radical
 -------
 Charge = -1 Multiplicity = 2

                          Input orientation:
 ---------------------------------------------------------------------
 Center     Atomic      Atomic             Coordinates (Angstroms)
 Number     Number       Type             X           Y           Z
 ---------------------------------------------------------------------
      1          8           0        0.120423    0.417096    2.680946
      2          6           0        0.080305    0.218877    1.406009
      3          6           0       -1.187496    0.112550    0.708976
      4          6           0       -2.430408    0.220767    1.392748
      5          6           0       -3.625781    0.112623    0.685507
      6          6           0       -3.625969   -0.102632   -0.698520
      7          6           0       -2.417240   -0.211177   -1.384630
      8          6           0       -1.225942   -0.102840   -0.676878
      9          8           0       -0.068053   -0.221474   -1.429351
     10          6           0        1.167827   -0.125969   -0.802137
     11          6           0        2.282235   -0.252914   -1.608564
     12          6           0        3.571687   -0.167115   -1.042392
     13          6           0        3.697601    0.046001    0.332454
     14          6           0        2.572228    0.173166    1.139717
     15          6           0        1.261560    0.091126    0.596906
     16          8           0       -2.436127    0.429060    2.733157
     17          1           0       -4.559397    0.198695    1.230140
     18          1           0       -4.553825   -0.187335   -1.251892
     19          8           0       -2.406281   -0.423924   -2.752384
     20          1           0        2.143730   -0.417714   -2.671647
     21          1           0        4.447766   -0.266472   -1.673584
     22          1           0        4.685950    0.113573    0.778418
     23          1           0        2.655208    0.338618    2.206778
     24          1           0       -1.458537    0.466709    2.988465
     25          1           0       -1.478590   -0.466454   -3.016417
 ---------------------------------------------------------------------

 SCF Done:  E(UB3LYP) =  -801.374907287     A.U. after    1 cycles

 Alpha  occ. eigenvalues --  -19.06101 -19.03713 -18.99350 -18.94045 -10.12003
 Alpha  occ. eigenvalues --  -10.11474 -10.10648 -10.10167 -10.08749 -10.05377
 Alpha  occ. eigenvalues --  -10.05342 -10.05273 -10.05246 -10.05201 -10.05130
 Alpha  occ. eigenvalues --  -10.04545 -10.04351  -0.97899  -0.93974  -0.91364
 Alpha  occ. eigenvalues --   -0.85362  -0.73753  -0.72631  -0.65536  -0.64564
 Alpha  occ. eigenvalues --   -0.62261  -0.60262  -0.53821  -0.52975  -0.48223
 Alpha  occ. eigenvalues --   -0.47520  -0.43822  -0.43601  -0.42043  -0.39878
 Alpha  occ. eigenvalues --   -0.36375  -0.35685  -0.34939  -0.34416  -0.31649
 Alpha  occ. eigenvalues --   -0.30802  -0.29734  -0.28702  -0.28585  -0.28082
 Alpha  occ. eigenvalues --   -0.27529  -0.27454  -0.25589  -0.24526  -0.24029
 Alpha  occ. eigenvalues --   -0.23143  -0.22524  -0.21279  -0.18391  -0.14265
 Alpha  occ. eigenvalues --   -0.13538  -0.11988  -0.11413  -0.07992   0.01164
 Alpha virt. eigenvalues --    0.07992   0.08925   0.09455   0.09615   0.10390
 Alpha virt. eigenvalues --    0.11083   0.11398   0.12683   0.13163   0.13767
 Alpha virt. eigenvalues --    0.14813   0.15290   0.15305   0.16564   0.17173

  Beta  occ. eigenvalues --  -19.05988 -19.03730 -18.99273 -18.93514 -10.11909
  Beta  occ. eigenvalues --  -10.11322 -10.10712 -10.10016 -10.08331 -10.05371
  Beta  occ. eigenvalues --  -10.05309 -10.05268 -10.05188 -10.05177 -10.05032
  Beta  occ. eigenvalues --  -10.04616 -10.04077  -0.97710  -0.93982  -0.91155
  Beta  occ. eigenvalues --   -0.84392  -0.73519  -0.72404  -0.65126  -0.64287
  Beta  occ. eigenvalues --   -0.61986  -0.60135  -0.53503  -0.52552  -0.48037
  Beta  occ. eigenvalues --   -0.47248  -0.43593  -0.43411  -0.41807  -0.39793
  Beta  occ. eigenvalues --   -0.36296  -0.35504  -0.34788  -0.33839  -0.31471
  Beta  occ. eigenvalues --   -0.30670  -0.29595  -0.28629  -0.28294  -0.27763
  Beta  occ. eigenvalues --   -0.27258  -0.26772  -0.25470  -0.23879  -0.23505
  Beta  occ. eigenvalues --   -0.23047  -0.21108  -0.20841  -0.17877  -0.13561
  Beta  occ. eigenvalues --   -0.12081  -0.10988  -0.10721  -0.07597
  Beta virt. eigenvalues --    0.07107   0.07973   0.08910   0.09437   0.10302
  Beta virt. eigenvalues --    0.10369   0.11395   0.12000   0.12674   0.13159
  Beta virt. eigenvalues --    0.14260   0.14835   0.15302   0.15397   0.17074

 Mulliken charges and spin densities:
               1          2
     1  O   -0.471583   0.196809
     2  C   -0.161699   0.252845
     3  C    1.278436  -0.081013
     4  C   -0.158598   0.125584
     5  C    0.046993  -0.061589
     6  C    0.033495   0.150465
     7  C   -1.105934  -0.050308
     8  C   -0.340085   0.087844
     9  O   -0.171914   0.024660
    10  C   -1.263547   0.059200
    11  C   -0.382411  -0.009376
    12  C   -0.431501   0.228654
    13  C   -0.210769  -0.082776
    14  C    0.158326   0.246140
    15  C    1.394464  -0.064314
    16  O   -0.364757   0.021926
    17  H    0.148022   0.003386
    18  H    0.151064  -0.011950
    19  O   -0.285856  -0.002241
    20  H    0.123211  -0.001540
    21  H    0.118074  -0.017436
    22  H    0.114410   0.005553
    23  H    0.176522  -0.015513
    24  H    0.334832  -0.004926
    25  H    0.270806  -0.000084
 Sum of Mulliken charges =  -1.00000   1.00000

 Dipole moment (field-independent basis, Debye):
    X=              2.4029    Y=             -0.7244    Z=             -4.6165  Tot=              5.2546
 Quadrupole moment (field-independent basis, Debye-Ang):
   XX=           -128.9111   YY=           -106.7858   ZZ=           -126.2285
   XY=              0.1507   XZ=              0.7322   YZ=             -3.1046

  Exact polarizability: 357.605  -2.928  97.346 -16.189  16.035 197.899
 Approx polarizability: 544.714  -5.142 152.418 -29.066  32.479 356.063

                      1                      2                      3
                      A                      A                      A
 Frequencies --     50.7185                89.5921               147.6574
 Red. masses --      6.8740                 5.7319                 7.0425
 Frc consts  --      0.0104                 0.0271                 0.0905
 IR Inten    --      0.4429                 0.0017                 0.5925

                      4                      5                      6
                      A                      A                      A
 Frequencies --    153.2963               189.6822               249.1131
 Red. masses --      7.3237                 5.7820                 5.2974
 Frc consts  --      0.1014                 0.1226                 0.1937
 IR Inten    --      0.0002                 0.4121                 0.0002

                      7                      8                      9
                      A                      A                      A
 Frequencies --    250.6487               294.9764               340.8947
 Red. masses --      7.7944                 6.1917                 6.5631
 Frc consts  --      0.2885                 0.3174                 0.4494
 IR Inten    --      0.2895                 4.1177                11.2718

                     10                     11                     12
                      A                      A                      A
 Frequencies --    353.8436               364.1553               387.4996
 Red. masses --      1.6653                 3.2817                 2.8080
 Frc consts  --      0.1229                 0.2564                 0.2484
 IR Inten    --     52.4850                24.1901                17.5433

                     13                     14                     15
                      A                      A                      A
 Frequencies --    393.0594               436.0755               475.1937
 Red. masses --      9.7304                 7.0735                10.5213
 Frc consts  --      0.8857                 0.7925                 1.3998
 IR Inten    --      6.8253                 5.2573                 0.1695

                     16                     17                     18
                      A                      A                      A
 Frequencies --    480.1316               518.1580               525.2546
 Red. masses --      4.1465                 5.8183                 4.3529
 Frc consts  --      0.5632                 0.9204                 0.7076
 IR Inten    --      0.0007                13.9779                 3.1928

                     19                     20                     21
                      A                      A                      A
 Frequencies --    537.5038               576.6399               612.7633
 Red. masses --      9.2203                 4.4512                 4.4193
 Frc consts  --      1.5695                 0.8720                 0.9777
 IR Inten    --     10.6024                19.0250                 0.1585

                     22                     23                     24
                      A                      A                      A
 Frequencies --    640.0750               645.1303               665.2032
 Red. masses --      7.8691                 5.9432                 6.3657
 Frc consts  --      1.8995                 1.4573                 1.6596
 IR Inten    --      4.3101                13.1743                 2.3210

                     25                     26                     27
                      A                      A                      A
 Frequencies --    667.7086               695.3013               709.6270
 Red. masses --      6.6526                 1.5159                 2.9354
 Frc consts  --      1.7475                 0.4318                 0.8709
 IR Inten    --      7.7319                58.3399                14.6862

                     28                     29                     30
                      A                      A                      A
 Frequencies --    750.6996               765.7694               810.0197
 Red. masses --      7.8471                 1.5939                 1.4081
 Frc consts  --      2.6055                 0.5507                 0.5443
 IR Inten    --     25.2878                42.1996                 3.8276

                     31                     32                     33
                      A                      A                      A
 Frequencies --    834.5233               843.2992               866.8039
 Red. masses --      6.9511                 1.3361                 1.2742
 Frc consts  --      2.8522                 0.5598                 0.5641
 IR Inten    --     86.5142                15.2439                 3.8588

                     34                     35                     36
                      A                      A                      A
 Frequencies --    896.0053               930.8791               948.9841
 Red. masses --      6.8539                 1.2482                 1.0507
 Frc consts  --      3.2420                 0.6373                 0.5575
 IR Inten    --     23.0779                 1.3711                69.4504

                     37                     38                     39
                      A                      A                      A
 Frequencies --    995.2290              1023.7557              1052.8930
 Red. masses --      5.9178                 2.9457                 2.0223
 Frc consts  --      3.4535                 1.8190                 1.3209
 IR Inten    --     66.2215                17.0101                76.0738

                     40                     41                     42
                      A                      A                      A
 Frequencies --   1097.0928              1145.4637              1155.2333
 Red. masses --      2.0101                 1.4877                 1.2058
 Frc consts  --      1.4255                 1.1501                 0.9481
 IR Inten    --     62.2299                27.4548                 1.2312

                     43                     44                     45
                      A                      A                      A
 Frequencies --   1168.8660              1212.4314              1229.2510
 Red. masses --      2.4476                 4.1498                 2.2284
 Frc consts  --      1.9702                 3.5941                 1.9839
 IR Inten    --     84.0095               208.8825                97.1009

                     46                     47                     48
                      A                      A                      A
 Frequencies --   1262.8718              1269.8759              1296.6355
 Red. masses --      2.0853                 2.2339                 4.7752
 Frc consts  --      1.9595                 2.1225                 4.7302
 IR Inten    --     16.8854                63.8288                91.6651

                     49                     50                     51
                      A                      A                      A
 Frequencies --   1311.7365              1355.7897              1369.7551
 Red. masses --      5.7239                 4.0948                 2.8484
 Frc consts  --      5.8028                 4.4347                 3.1488
 IR Inten    --    411.7410                16.6732               125.5604

                     52                     53                     54
                      A                      A                      A
 Frequencies --   1415.6076              1434.3528              1462.0045
 Red. masses --      3.9214                 4.3544                 2.5164
 Frc consts  --      4.6300                 5.2782                 3.1691
 IR Inten    --    180.1154                27.2868                67.7292

                     55                     56                     57
                      A                      A                      A
 Frequencies --   1481.1464              1520.8218              1543.3942
 Red. masses --      2.9174                 3.6632                 3.8310
 Frc consts  --      3.7709                 4.9919                 5.3767
 IR Inten    --     34.0647               540.4114               152.6159

                     58                     59                     60
                      A                      A                      A
 Frequencies --   1565.9170              1591.8997              1630.1004
 Red. masses --      4.2221                 3.3270                 3.7670
 Frc consts  --      6.0998                 4.9675                 5.8977
 IR Inten    --    103.2388                56.6126                69.7407

                     61                     62                     63
                      A                      A                      A
 Frequencies --   1668.3372              2903.9980              3136.4682
 Red. masses --      3.7821                 1.0744                 1.0855
 Frc consts  --      6.2023                 5.3383                 6.2919
 IR Inten    --      5.2766               446.7411                36.4448

                     64                     65                     66
                      A                      A                      A
 Frequencies --   3158.2127              3166.5044              3175.3564
 Red. masses --      1.0878                 1.0867                 1.0942
 Frc consts  --      6.3924                 6.4198                 6.5002
 IR Inten    --     29.0306                26.8188                31.6544

                     67                     68                     69
                      A                      A                      A
 Frequencies --   3184.9254              3192.1429              3791.2304
 Red. masses --      1.0934                 1.0910                 1.0652
 Frc consts  --      6.5350                 6.5500                 9.0209
 IR Inten    --     16.9449                 6.4805                34.9630

 - Thermochemistry -
 -------------------
 Temperature   298.150 Kelvin.  Pressure   1.00000 Atm.
 Atom     1 has atomic number  8 and mass  15.99491

 Molecular mass:   228.04226 amu.
 Principal axes and moments of inertia in atomic units:
                           1         2         3
     Eigenvalues --  2150.814954470.706786621.52167
           X            0.99881   0.04875   0.00154
           Y           -0.00901   0.15334   0.98813
           Z           -0.04793   0.98697  -0.15360
 This molecule is an asymmetric top.
 Rotational symmetry number  1.
 Warning -- assumption of classical behavior for rotation
           may cause significant error
 Rotational temperatures (Kelvin)      0.04027     0.01937     0.01308
 Rotational constants (GHZ):           0.83910     0.40368     0.27256
 Zero-point vibrational energy     466939.5 (Joules/Mol)
                                  111.60122 (Kcal/Mol)
 Warning -- explicit consideration of  21 degrees of freedom as
           vibrations may cause significant error
 Vibrational temperatures:     72.97   128.90   212.45   220.56   272.91
          (Kelvin)            358.42   360.63   424.41   490.47   509.10
                              523.94   557.53   565.52   627.42   683.70
                              690.80   745.51   755.72   773.35   829.66
                              881.63   920.93   928.20   957.08   960.68
                             1000.38  1021.00  1080.09  1101.77  1165.44
                             1200.69  1213.32  1247.14  1289.15  1339.33
                             1365.38  1431.91  1472.96  1514.88  1578.47
                             1648.07  1662.12  1681.74  1744.42  1768.62
                             1816.99  1827.07  1865.57  1887.30  1950.68
                             1970.77  2036.74  2063.71  2103.50  2131.04
                             2188.12  2220.60  2253.01  2290.39  2345.35
                             2400.37  4178.21  4512.68  4543.96  4555.89
                             4568.63  4582.40  4592.78  5454.73

 Zero-point correction=                           0.177848 (Hartree/Particle)
 Thermal correction to Energy=                    0.190626
 Thermal correction to Enthalpy=                  0.191570
 Thermal correction to Gibbs Free Energy=         0.138403
 Sum of electronic and zero-point Energies=           -801.197059
 Sum of electronic and thermal Energies=              -801.184281
 Sum of electronic and thermal Enthalpies=            -801.183337
 Sum of electronic and thermal Free Energies=         -801.236504

                     E (Thermal)             CV                S
                      KCal/Mol        Cal/Mol-Kelvin    Cal/Mol-Kelvin
 Total                  119.619             52.617            111.899
 Electronic               0.000              0.000              1.377
 Translational            0.889              2.981             42.175
 Rotational               0.889              2.981             32.521
 Vibrational            117.842             46.656             35.825
 Vibration     1          0.595              1.977              4.789
 Vibration     2          0.602              1.957              3.669
 Vibration     3          0.617              1.905              2.702
 Vibration     4          0.619              1.899              2.631
 Vibration     5          0.633              1.854              2.231
 Vibration     6          0.662              1.764              1.737
 Vibration     7          0.663              1.762              1.726
 Vibration     8          0.689              1.683              1.445
 Vibration     9          0.720              1.594              1.208
 Vibration    10          0.730              1.567              1.149
 Vibration    11          0.738              1.546              1.104
 Vibration    12          0.756              1.497              1.010
 Vibration    13          0.760              1.485              0.989
 Vibration    14          0.797              1.392              0.839
 Vibration    15          0.832              1.305              0.723
 Vibration    16          0.836              1.294              0.710
 Vibration    17          0.873              1.210              0.614
 Vibration    18          0.880              1.194              0.598
 Vibration    19          0.893              1.167              0.571
 Vibration    20          0.933              1.082              0.492
 Vibration    21          0.972              1.005              0.428

 Optimization completed.
    -- Stationary point found.
 Normal termination of Gaussian 16 at Sat Jan  6 03:11:21 2024.
