 Q-Chem 5.4, Q-Chem, Inc., Pleasanton, CA (2021)
 Q-Chem 5.4.0 for Intel X86 EM64T Linux

User input:
--------------------------------------------------------------
$molecule
-1 2
C                 -2.9696990000      3.7214940000      0.1799420000
C                 -4.2311950000      3.1641880000      0.2359650000
C                 -4.3852070000      1.7612770000      0.1785240000
C                 -1.8163530000      2.9135510000      0.0655370000
C                 -1.9719370000      1.4977160000      0.0075280000
C                 -3.2728040000      0.9514320000      0.0665370000
C                 -0.5005540000      3.5526110000      0.0097180000
C                  0.6441690000      2.6501990000     -0.1061750000
C                  0.4917070000      1.2343280000     -0.1648790000
C                 -0.8238050000      0.5949710000     -0.1120820000
C                  1.9435030000      3.2015290000     -0.1701830000
C                  3.0343770000      2.3791840000     -0.2840060000
C                  2.9092370000      0.9791850000     -0.3464570000
C                  1.6458690000      0.4294550000     -0.2839600000
O                 -0.3600380000      4.8008460000      0.0571290000
O                 -0.9597390000     -0.6517910000     -0.1679120000
H                 -3.3606160000     -0.1280070000      0.0204330000
H                  1.5020690000     -0.6438030000     -0.3265580000
H                 -2.8221970000      4.7945340000      0.2221210000
H                  2.0497520000      4.2788440000     -0.1368140000
H                  3.7910990000      0.3561880000     -0.4329640000
H                 -5.3774820000      1.3221470000      0.2228540000
O                  4.3035470000      2.9887350000     -0.4486970000
C                  5.2838880000      2.7942320000      0.4624660000
C                  6.5176580000      3.5703660000      0.0584220000
O                  5.1917850000      2.1117940000      1.4506840000
H                 -5.1055050000      3.8024130000      0.3242890000
H                  6.2919540000      4.6395870000      0.0510650000
H                  6.8225620000      3.2936090000     -0.9532170000
H                  7.3220560000      3.3670650000      0.7629220000
$end
$rem
MAX_SCF_CYCLES=200
BASIS  =  6-311++G(d,p)
GUI  =  2
JOB_TYPE  =  SP
METHOD  =  B3LYP
SOLVENT_METHOD = PCM
$end
$pcm
theory = CPCM
$end
$solvent
dielectric 37.219
opticaldielectric 1.43
$end

--------------------------------------------------------------

             Standard Nuclear Orientation (Angstroms)
    I     Atom           X                Y                Z
 ----------------------------------------------------------------
    1      C      -2.9696990000     3.7214940000     0.1799420000
    2      C      -4.2311950000     3.1641880000     0.2359650000
    3      C      -4.3852070000     1.7612770000     0.1785240000
    4      C      -1.8163530000     2.9135510000     0.0655370000
    5      C      -1.9719370000     1.4977160000     0.0075280000
    6      C      -3.2728040000     0.9514320000     0.0665370000
    7      C      -0.5005540000     3.5526110000     0.0097180000
    8      C       0.6441690000     2.6501990000    -0.1061750000
    9      C       0.4917070000     1.2343280000    -0.1648790000
   10      C      -0.8238050000     0.5949710000    -0.1120820000
   11      C       1.9435030000     3.2015290000    -0.1701830000
   12      C       3.0343770000     2.3791840000    -0.2840060000
   13      C       2.9092370000     0.9791850000    -0.3464570000
   14      C       1.6458690000     0.4294550000    -0.2839600000
   15      O      -0.3600380000     4.8008460000     0.0571290000
   16      O      -0.9597390000    -0.6517910000    -0.1679120000
   17      H      -3.3606160000    -0.1280070000     0.0204330000
   18      H       1.5020690000    -0.6438030000    -0.3265580000
   19      H      -2.8221970000     4.7945340000     0.2221210000
   20      H       2.0497520000     4.2788440000    -0.1368140000
   21      H       3.7910990000     0.3561880000    -0.4329640000
   22      H      -5.3774820000     1.3221470000     0.2228540000
   23      O       4.3035470000     2.9887350000    -0.4486970000
   24      C       5.2838880000     2.7942320000     0.4624660000
   25      C       6.5176580000     3.5703660000     0.0584220000
   26      O       5.1917850000     2.1117940000     1.4506840000
   27      H      -5.1055050000     3.8024130000     0.3242890000
   28      H       6.2919540000     4.6395870000     0.0510650000
   29      H       6.8225620000     3.2936090000    -0.9532170000
   30      H       7.3220560000     3.3670650000     0.7629220000
 ----------------------------------------------------------------

    8    -917.0502864956      6.60e-06  Convergence criterion met
 Total energy in the final basis set =     -917.0502864956

                    Orbital Energies (a.u.)
 --------------------------------------------------------------

 Alpha MOs
 -- Occupied --
-19.1846 -19.1269 -19.0806 -19.0800 -10.3184 -10.2416 -10.2294 -10.2281
-10.1807 -10.1804 -10.1782 -10.1775 -10.1771 -10.1766 -10.1755 -10.1750
-10.1734 -10.1728 -10.1709 -10.1708  -1.1237  -1.0425  -1.0083  -1.0057
 -0.8690  -0.8556  -0.7952  -0.7701  -0.7550  -0.7517  -0.7344  -0.6763
 -0.6521  -0.6344  -0.5981  -0.5904  -0.5594  -0.5365  -0.5176  -0.5011
 -0.4921  -0.4910  -0.4740  -0.4617  -0.4579  -0.4366  -0.4289  -0.4266
 -0.4234  -0.4175  -0.4169  -0.4146  -0.4042  -0.3897  -0.3854  -0.3849
 -0.3693  -0.3589  -0.3534  -0.3439  -0.3377  -0.3284  -0.2975  -0.2707
 -0.2634  -0.2585  -0.2518  -0.2498  -0.2422  -0.1457

 Beta MOs
 -- Occupied --
-19.1846 -19.1269 -19.0755 -19.0747 -10.3184 -10.2411 -10.2276 -10.2261
-10.1802 -10.1795 -10.1783 -10.1774 -10.1766 -10.1763 -10.1748 -10.1742
-10.1729 -10.1724 -10.1709 -10.1706  -1.1236  -1.0425  -0.9992  -0.9961
 -0.8666  -0.8542  -0.7920  -0.7684  -0.7530  -0.7499  -0.7331  -0.6701
 -0.6501  -0.6321  -0.5969  -0.5889  -0.5569  -0.5347  -0.5163  -0.5005
 -0.4914  -0.4901  -0.4713  -0.4604  -0.4573  -0.4360  -0.4266  -0.4234
 -0.4184  -0.4147  -0.4119  -0.4108  -0.4021  -0.3889  -0.3841  -0.3668
 -0.3621  -0.3574  -0.3521  -0.3389  -0.3340  -0.3238  -0.2973  -0.2595
 -0.2507  -0.2496  -0.2470  -0.2446  -0.2374

          Ground-State Mulliken Net Atomic Charges

     Atom                 Charge (a.u.)    Spin (a.u.)
  --------------------------------------------------------
      1 C                     0.067554       0.034376
      2 C                    -0.474108       0.030598
      3 C                    -0.472761       0.039991
      4 C                     0.276484       0.024460
      5 C                     0.163744       0.026788
      6 C                     0.096736       0.025757
      7 C                    -0.635743       0.115105
      8 C                     0.434922       0.055541
      9 C                     0.190642       0.037421
     10 C                    -0.485018       0.103141
     11 C                     0.046748       0.026310
     12 C                    -0.739002       0.032065
     13 C                     0.132793       0.045895
     14 C                     0.151734       0.020983
     15 O                    -0.473101       0.203227
     16 O                    -0.472139       0.192880
     17 H                     0.174219      -0.001292
     18 H                     0.185966      -0.001068
     19 H                     0.171563      -0.001888
     20 H                     0.198416      -0.002009
     21 H                     0.236746      -0.003561
     22 H                     0.198559      -0.003257
     23 O                    -0.029959       0.000859
     24 C                     0.168089       0.000169
     25 C                    -0.562452       0.000747
     26 O                    -0.327169      -0.000649
     27 H                     0.199773      -0.002680
     28 H                     0.198832       0.000051
     29 H                     0.197491       0.000071
     30 H                     0.180441      -0.000033
  --------------------------------------------------------
  Sum of atomic charges =    -1.000001

                    Cartesian Multipole Moments
 -----------------------------------------------------------------
    Charge (ESU x 10^10)
                -4.8032
    Dipole Moment (Debye)
         X       2.1643      Y      -8.9036      Z      -1.9051
       Tot       9.3589
    Quadrupole Moments (Debye-Ang)
        XX    -108.3919     XY       7.9312     YY    -163.3638
        XZ     -12.5826     YZ      -3.1310     ZZ    -126.6738

 Total job time:  68.80s(wall), 450.86s(cpu)
        *  Thank you very much for using Q-Chem.  Have a nice day.  *
