 Q-Chem 5.4, Q-Chem, Inc., Pleasanton, CA (2021)
 Q-Chem 5.4.0 for Intel X86 EM64T Linux

User input:
--------------------------------------------------------------
$molecule
0 1
C                 -2.4881650000      1.4032700000      0.3575710000
C                 -2.0058200000     -0.0592030000      0.4343500000
C                 -2.7728100000     -0.9600880000     -0.5543030000
C                 -0.5036300000     -0.1773190000      0.2722420000
C                  0.2831110000     -0.6506490000      1.2559590000
C                  1.7507610000     -0.7830430000      1.1420390000
O                  2.4139140000     -1.2203150000      2.0702960000
C                  2.4035650000     -0.3674300000     -0.1402180000
C                  1.6246280000      0.1060850000     -1.1270920000
C                  0.1546610000      0.2388630000     -1.0130900000
O                 -0.4908670000      0.6789670000     -1.9529360000
C                  3.8908920000     -0.5097980000     -0.2335560000
H                 -2.3377400000      1.8158360000     -0.6406000000
H                 -3.5552650000      1.4504900000      0.5923340000
H                 -1.9590290000      2.0331580000      1.0779210000
H                 -2.2228150000     -0.4230430000      1.4451090000
H                 -2.6323220000     -0.6255490000     -1.5826680000
H                 -2.4444410000     -2.0003460000     -0.4788220000
H                 -3.8417580000     -0.9292350000     -0.3253200000
H                 -0.1284830000     -0.9684110000      2.2090550000
H                  2.0351690000      0.4239840000     -2.0802590000
H                  4.3820420000      0.0723640000      0.5511160000
H                  4.2567670000     -0.1795280000     -1.2063900000
H                  4.1876350000     -1.5499540000     -0.0727370000
$end

$rem
BASIS  =  6-311++G(d,p)
GUI  =  2
JOB_TYPE  =  SP
METHOD  =  B3LYP
SCF_CONVERGENCE  = 8
SOLVENT_METHOD = sm12
$end

$smx
solvent dimethylformamide
charges CM5
$end

--------------------------------------------------------------

             Standard Nuclear Orientation (Angstroms)
    I     Atom           X                Y                Z
 ----------------------------------------------------------------
    1      C      -2.4881650000     1.4032700000     0.3575710000
    2      C      -2.0058200000    -0.0592030000     0.4343500000
    3      C      -2.7728100000    -0.9600880000    -0.5543030000
    4      C      -0.5036300000    -0.1773190000     0.2722420000
    5      C       0.2831110000    -0.6506490000     1.2559590000
    6      C       1.7507610000    -0.7830430000     1.1420390000
    7      O       2.4139140000    -1.2203150000     2.0702960000
    8      C       2.4035650000    -0.3674300000    -0.1402180000
    9      C       1.6246280000     0.1060850000    -1.1270920000
   10      C       0.1546610000     0.2388630000    -1.0130900000
   11      O      -0.4908670000     0.6789670000    -1.9529360000
   12      C       3.8908920000    -0.5097980000    -0.2335560000
   13      H      -2.3377400000     1.8158360000    -0.6406000000
   14      H      -3.5552650000     1.4504900000     0.5923340000
   15      H      -1.9590290000     2.0331580000     1.0779210000
   16      H      -2.2228150000    -0.4230430000     1.4451090000
   17      H      -2.6323220000    -0.6255490000    -1.5826680000
   18      H      -2.4444410000    -2.0003460000    -0.4788220000
   19      H      -3.8417580000    -0.9292350000    -0.3253200000
   20      H      -0.1284830000    -0.9684110000     2.2090550000
   21      H       2.0351690000     0.4239840000    -2.0802590000
   22      H       4.3820420000     0.0723640000     0.5511160000
   23      H       4.2567670000    -0.1795280000    -1.2063900000
   24      H       4.1876350000    -1.5499540000    -0.0727370000
 ----------------------------------------------------------------

   15    -538.8714833188      2.37e-09  Convergence criterion met
 Total energy in the final basis set =     -538.8843367695

                    Orbital Energies (a.u.)
 --------------------------------------------------------------

 Alpha MOs
 -- Occupied --
-19.1352 -19.1347 -10.2811 -10.2791 -10.2156 -10.2141 -10.2005 -10.1993
-10.1922 -10.1732 -10.1611 -10.1611  -1.0664  -1.0645  -0.8662  -0.8267
 -0.7758  -0.7249  -0.6886  -0.6861  -0.6253  -0.6139  -0.5602  -0.5277
 -0.4905  -0.4789  -0.4569  -0.4556  -0.4448  -0.4402  -0.4284  -0.4181
 -0.4123  -0.4042  -0.4024  -0.3856  -0.3844  -0.3594  -0.3516  -0.3449
 -0.3006  -0.2827  -0.2825  -0.2708

          Ground-State Mulliken Net Atomic Charges

     Atom                 Charge (a.u.)
  ----------------------------------------
      1 C                    -0.668950
      2 C                     0.420050
      3 C                    -0.667775
      4 C                     1.229002
      5 C                    -0.047165
      6 C                    -1.356429
      7 O                    -0.311061
      8 C                     1.110741
      9 C                    -0.383826
     10 C                    -1.416908
     11 O                    -0.287171
     12 C                     0.120717
     13 H                     0.119757
     14 H                     0.179084
     15 H                     0.136293
     16 H                     0.250006
     17 H                     0.119356
     18 H                     0.136185
     19 H                     0.179027
     20 H                     0.274214
     21 H                     0.251149
     22 H                     0.189700
     23 H                     0.234215
     24 H                     0.189789
  ----------------------------------------
  Sum of atomic charges =     0.000000

                    Cartesian Multipole Moments
 -----------------------------------------------------------------
    Charge (ESU x 10^10)
                -0.0000
    Dipole Moment (Debye)
         X      -0.0071      Y       0.0319      Z      -0.0828
       Tot       0.0890
    Quadrupole Moments (Debye-Ang)
        XX     -66.3508     XY       3.7355     YY     -74.5456
        XZ     -11.5085     YZ       4.9857     ZZ     -81.4885

 Total job time:  338.02s(wall), 2476.89s(cpu)
        *  Thank you very much for using Q-Chem.  Have a nice day.  *
