 Q-Chem 5.4, Q-Chem, Inc., Pleasanton, CA (2021)
 Q-Chem 5.4.0 for Intel X86 EM64T Linux

User input:
--------------------------------------------------------------
$molecule
-1 2
C                 -3.9106470000     -4.0097940000     -1.3046340000
C                 -2.6600900000     -4.7190590000     -1.2824500000
C                 -1.4780750000     -4.0464000000     -1.5458070000
C                 -1.4624600000     -2.6181240000     -1.8616070000
C                 -2.7270730000     -1.9005260000     -1.8840640000
C                 -3.8767880000     -2.5887270000     -1.6148700000
O                 -5.0576340000     -4.5275880000     -1.0737420000
O                 -0.3753380000     -2.0189880000     -2.1096650000
C                 -0.1368200000     -4.7410770000     -1.5445270000
C                  0.3297230000     -5.1718210000     -2.9493080000
C                  1.7146100000     -5.8283630000     -2.9524080000
C                  2.1939250000     -6.2507190000     -4.3460790000
C                  3.5834450000     -6.8987140000     -4.3544650000
C                  4.0612770000     -7.3195940000     -5.7490560000
C                  5.4520470000     -7.9644630000     -5.7582750000
C                  5.9286760000     -8.3843720000     -7.1535280000
C                  7.3195120000     -9.0284740000     -7.1633990000
C                  7.7964450000     -9.4480850000     -8.5585620000
C                 -2.7161490000     -0.4310750000     -2.2040750000
C                 -2.7139180000     -6.1943100000     -0.9563080000
O                 -5.1134990000     -2.0045040000     -1.6132160000
H                 -0.1599340000     -5.6192040000     -0.8894690000
H                  0.6071690000     -4.0452980000     -1.1437050000
H                  0.3429630000     -4.2834280000     -3.5885840000
H                 -0.4044620000     -5.8636120000     -3.3820030000
H                  1.7049450000     -6.7077130000     -2.2928930000
H                  2.4415050000     -5.1296720000     -2.5176170000
H                  2.2009980000     -5.3720640000     -5.0039500000
H                  1.4673700000     -6.9493580000     -4.7821990000
H                  3.5773050000     -7.7768800000     -3.6948430000
H                  4.3098290000     -6.1992350000     -3.9199780000
H                  4.0658950000     -6.4418660000     -6.4085500000
H                  3.3356030000     -8.0199210000     -6.1833910000
H                  5.4478540000     -8.8423640000     -5.0987150000
H                  6.1776900000     -7.2639010000     -5.3244900000
H                  5.9325890000     -7.5065480000     -7.8129200000
H                  5.2031610000     -9.0850520000     -7.5873530000
H                  7.3166590000     -9.9070050000     -6.5045530000
H                  8.0459600000     -8.3282470000     -6.7300980000
C                  9.1870720000    -10.0903030000     -8.5579880000
H                  7.8002190000     -8.5706790000     -9.2169330000
H                 -2.1061850000      0.1219570000     -1.4809340000
H                 -3.7284170000     -0.0233310000     -2.1997160000
H                 -2.2612190000     -0.2491120000     -3.1840170000
H                 -3.7566030000     -6.5066210000     -0.8829550000
H                 -2.2255130000     -6.4195460000      0.0004750000
H                 -2.2192240000     -6.8048460000     -1.7199580000
H                  7.0715520000    -10.1483390000     -8.9916390000
H                  9.9403520000     -9.4011640000     -8.1625660000
H                  9.4973110000    -10.3777830000     -9.5669970000
H                  9.2062060000    -10.9907140000     -7.9353710000
H                 -5.6906990000     -2.7681340000     -1.3885990000
$end
$rem
MAX_SCF_CYCLES=200
BASIS  =  6-311++G(d,p)
GUI  =  2
JOB_TYPE  =  SP
METHOD  =  B3LYP
THRESH = 14
SCF_ALGORITHM = DIIS_GDM
SOLVENT_METHOD = PCM
$end
$pcm
theory = CPCM
$end
$solvent
dielectric 37.219
opticaldielectric 1.43
$end

--------------------------------------------------------------

             Standard Nuclear Orientation (Angstroms)
    I     Atom           X                Y                Z
 ----------------------------------------------------------------
    1      C      -3.9106470000    -4.0097940000    -1.3046340000
    2      C      -2.6600900000    -4.7190590000    -1.2824500000
    3      C      -1.4780750000    -4.0464000000    -1.5458070000
    4      C      -1.4624600000    -2.6181240000    -1.8616070000
    5      C      -2.7270730000    -1.9005260000    -1.8840640000
    6      C      -3.8767880000    -2.5887270000    -1.6148700000
    7      O      -5.0576340000    -4.5275880000    -1.0737420000
    8      O      -0.3753380000    -2.0189880000    -2.1096650000
    9      C      -0.1368200000    -4.7410770000    -1.5445270000
   10      C       0.3297230000    -5.1718210000    -2.9493080000
   11      C       1.7146100000    -5.8283630000    -2.9524080000
   12      C       2.1939250000    -6.2507190000    -4.3460790000
   13      C       3.5834450000    -6.8987140000    -4.3544650000
   14      C       4.0612770000    -7.3195940000    -5.7490560000
   15      C       5.4520470000    -7.9644630000    -5.7582750000
   16      C       5.9286760000    -8.3843720000    -7.1535280000
   17      C       7.3195120000    -9.0284740000    -7.1633990000
   18      C       7.7964450000    -9.4480850000    -8.5585620000
   19      C      -2.7161490000    -0.4310750000    -2.2040750000
   20      C      -2.7139180000    -6.1943100000    -0.9563080000
   21      O      -5.1134990000    -2.0045040000    -1.6132160000
   22      H      -0.1599340000    -5.6192040000    -0.8894690000
   23      H       0.6071690000    -4.0452980000    -1.1437050000
   24      H       0.3429630000    -4.2834280000    -3.5885840000
   25      H      -0.4044620000    -5.8636120000    -3.3820030000
   26      H       1.7049450000    -6.7077130000    -2.2928930000
   27      H       2.4415050000    -5.1296720000    -2.5176170000
   28      H       2.2009980000    -5.3720640000    -5.0039500000
   29      H       1.4673700000    -6.9493580000    -4.7821990000
   30      H       3.5773050000    -7.7768800000    -3.6948430000
   31      H       4.3098290000    -6.1992350000    -3.9199780000
   32      H       4.0658950000    -6.4418660000    -6.4085500000
   33      H       3.3356030000    -8.0199210000    -6.1833910000
   34      H       5.4478540000    -8.8423640000    -5.0987150000
   35      H       6.1776900000    -7.2639010000    -5.3244900000
   36      H       5.9325890000    -7.5065480000    -7.8129200000
   37      H       5.2031610000    -9.0850520000    -7.5873530000
   38      H       7.3166590000    -9.9070050000    -6.5045530000
   39      H       8.0459600000    -8.3282470000    -6.7300980000
   40      C       9.1870720000   -10.0903030000    -8.5579880000
   41      H       7.8002190000    -8.5706790000    -9.2169330000
   42      H      -2.1061850000     0.1219570000    -1.4809340000
   43      H      -3.7284170000    -0.0233310000    -2.1997160000
   44      H      -2.2612190000    -0.2491120000    -3.1840170000
   45      H      -3.7566030000    -6.5066210000    -0.8829550000
   46      H      -2.2255130000    -6.4195460000     0.0004750000
   47      H      -2.2192240000    -6.8048460000    -1.7199580000
   48      H       7.0715520000   -10.1483390000    -8.9916390000
   49      H       9.9403520000    -9.4011640000    -8.1625660000
   50      H       9.4973110000   -10.3777830000    -9.5669970000
   51      H       9.2062060000   -10.9907140000    -7.9353710000
   52      H      -5.6906990000    -2.7681340000    -1.3885990000
 ----------------------------------------------------------------

   16    -968.2097669705      7.27e-06  Convergence criterion met
 Total energy in the final basis set =     -968.2097669705

                    Orbital Energies (a.u.)
 --------------------------------------------------------------

 Alpha MOs
 -- Occupied --
-19.1383 -19.0831 -19.0711 -10.2153 -10.2142 -10.2139 -10.1643 -10.1606
-10.1574 -10.1574 -10.1548 -10.1546 -10.1544 -10.1542 -10.1540 -10.1537
-10.1533 -10.1531 -10.1528 -10.1527 -10.1513 -10.1512  -1.0579  -0.9936
 -0.9913  -0.8268  -0.8074  -0.7953  -0.7811  -0.7663  -0.7431  -0.7151
 -0.7045  -0.6839  -0.6543  -0.6365  -0.6218  -0.5904  -0.5728  -0.5693
 -0.5664  -0.5632  -0.5475  -0.5177  -0.4849  -0.4795  -0.4667  -0.4476
 -0.4414  -0.4366  -0.4272  -0.4255  -0.4196  -0.4171  -0.4093  -0.4069
 -0.4032  -0.3990  -0.3899  -0.3891  -0.3879  -0.3787  -0.3756  -0.3698
 -0.3633  -0.3615  -0.3558  -0.3480  -0.3465  -0.3417  -0.3350  -0.3321
 -0.3246  -0.3225  -0.3207  -0.3167  -0.3159  -0.3142  -0.3131  -0.2934
 -0.2625  -0.2567  -0.2346  -0.2160  -0.1555

 Beta MOs
 -- Occupied --
-19.1378 -19.0767 -19.0652 -10.2134 -10.2124 -10.2124 -10.1640 -10.1584
-10.1574 -10.1571 -10.1548 -10.1546 -10.1544 -10.1542 -10.1540 -10.1537
-10.1532 -10.1530 -10.1528 -10.1528 -10.1514 -10.1512  -1.0558  -0.9831
 -0.9805  -0.8218  -0.8072  -0.7948  -0.7803  -0.7656  -0.7423  -0.7135
 -0.7025  -0.6809  -0.6523  -0.6316  -0.6204  -0.5897  -0.5727  -0.5686
 -0.5663  -0.5612  -0.5445  -0.5147  -0.4831  -0.4793  -0.4666  -0.4475
 -0.4379  -0.4286  -0.4267  -0.4245  -0.4184  -0.4138  -0.4074  -0.4055
 -0.4017  -0.3956  -0.3888  -0.3863  -0.3840  -0.3771  -0.3736  -0.3693
 -0.3624  -0.3548  -0.3501  -0.3455  -0.3387  -0.3336  -0.3303  -0.3278
 -0.3240  -0.3215  -0.3204  -0.3165  -0.3156  -0.3142  -0.3126  -0.2925
 -0.2512  -0.2365  -0.2288  -0.2097

          Ground-State Mulliken Net Atomic Charges

     Atom                 Charge (a.u.)    Spin (a.u.)
  --------------------------------------------------------
      1 C                    -0.791967       0.140975
      2 C                     1.019013       0.036174
      3 C                     0.783270       0.170721
      4 C                    -0.663898       0.092189
      5 C                     0.983554       0.013304
      6 C                    -0.932973       0.062777
      7 O                    -0.552729       0.229465
      8 O                    -0.495565       0.220153
      9 C                    -0.387850       0.006011
     10 C                    -0.956034      -0.005031
     11 C                    -0.372700       0.006514
     12 C                    -0.030649      -0.002941
     13 C                     0.037478      -0.000668
     14 C                     0.059666      -0.000080
     15 C                    -0.053108       0.000300
     16 C                    -0.302695       0.000031
     17 C                    -0.499114       0.000025
     18 C                    -0.298938      -0.000003
     19 C                    -0.459003       0.004803
     20 C                    -0.643891       0.003295
     21 O                    -0.325724       0.015271
     22 H                     0.168634       0.000702
     23 H                     0.206978       0.005212
     24 H                     0.190602      -0.002167
     25 H                     0.137571      -0.000218
     26 H                     0.117487      -0.000059
     27 H                     0.126714      -0.000389
     28 H                     0.128472      -0.000007
     29 H                     0.133345      -0.000099
     30 H                     0.137642      -0.000021
     31 H                     0.135929      -0.000008
     32 H                     0.134534       0.000006
     33 H                     0.133712       0.000004
     34 H                     0.133498      -0.000002
     35 H                     0.133267       0.000006
     36 H                     0.131774       0.000000
     37 H                     0.131445      -0.000000
     38 H                     0.128699       0.000000
     39 H                     0.128535      -0.000001
     40 C                    -0.712170       0.000001
     41 H                     0.135346      -0.000000
     42 H                     0.167646       0.002277
     43 H                     0.178616      -0.000167
     44 H                     0.166530       0.001793
     45 H                     0.177976      -0.001352
     46 H                     0.181027       0.002481
     47 H                     0.170318       0.001920
     48 H                     0.135057       0.000000
     49 H                     0.144695       0.000000
     50 H                     0.152240       0.000001
     51 H                     0.144726      -0.000000
     52 H                     0.303010      -0.003201
  --------------------------------------------------------
  Sum of atomic charges =    -1.000000

                    Cartesian Multipole Moments
 -----------------------------------------------------------------
    Charge (ESU x 10^10)
                -4.8032
    Dipole Moment (Debye)
         X      13.4494      Y      13.6015      Z       8.0029
       Tot      20.7348
    Quadrupole Moments (Debye-Ang)
        XX    -211.6567     XY     -48.6222     YY    -189.0898
        XZ     -16.4832     YZ     -20.1013     ZZ    -158.7389

 Total job time:  656.06s(wall), 3260.77s(cpu)
        *  Thank you very much for using Q-Chem.  Have a nice day.  *
