 Gaussian 16, Revision A.03,
 Gaussian 16:  ES64L-G16RevA.03 25-Dec-2016

 ----------------------------------------------------------------
 #P UB3LYP/6-311++G(d,p) SCRF=(PCM,Solvent=n,n-DiMethylFormamide)
 ----------------------------------------------------------------

 ------------------
 Radical PCM in DMF
 ------------------
 Symbolic Z-matrix:
 Charge = -1 Multiplicity = 2

                         Standard orientation:
 ---------------------------------------------------------------------
 Center     Atomic      Atomic             Coordinates (Angstroms)
 Number     Number       Type             X           Y           Z
 ---------------------------------------------------------------------
      1          8           0        2.452935   -1.233803    0.000063
      2          6           0        1.208082   -0.681854    0.000028
      3          6           0        0.058498   -1.431176    0.000022
      4          6           0       -1.213726   -0.780651   -0.000036
      5          8           0       -2.350471   -1.356999   -0.000104
      6          6           0       -1.208042    0.681900    0.000018
      7          6           0       -0.058505    1.431193    0.000142
      8          6           0        1.213752    0.780625   -0.000021
      9          8           0        2.350442    1.357166   -0.000186
     10          8           0       -2.452981    1.233648    0.000049
     11          1           0        3.024924   -0.433037    0.000388
     12          1           0        0.094937   -2.514859    0.000022
     13          1           0       -0.094808    2.514876    0.000073
     14          1           0       -3.024809    0.432715    0.000016
 ---------------------------------------------------------------------

 SCF Done:  E(UB3LYP) =  -532.243431635     A.U. after   16 cycles

 The electronic state is 2-A.
 Alpha  occ. eigenvalues --  -19.14821 -19.14819 -19.08802 -19.08801 -10.22912
 Alpha  occ. eigenvalues --  -10.22910 -10.22791 -10.22789 -10.16001 -10.16000
 Alpha  occ. eigenvalues --   -1.06885  -1.06696  -0.99813  -0.99811  -0.82439
 Alpha  occ. eigenvalues --   -0.74099  -0.68327  -0.60959  -0.59589  -0.55131
 Alpha  occ. eigenvalues --   -0.50114  -0.48504  -0.45221  -0.44239  -0.44162
 Alpha  occ. eigenvalues --   -0.41637  -0.40998  -0.40207  -0.37727  -0.36625
 Alpha  occ. eigenvalues --   -0.35321  -0.34932  -0.27052  -0.26586  -0.25808
 Alpha  occ. eigenvalues --   -0.22836  -0.16237
 Alpha virt. eigenvalues --   -0.00037   0.00100   0.01324   0.01694   0.03036
 Alpha virt. eigenvalues --    0.03168   0.05431   0.05776   0.06265   0.07947
 Alpha virt. eigenvalues --    0.08317   0.08435   0.09389   0.11950   0.12041

  Beta  occ. eigenvalues --  -19.14709 -19.14707 -19.08211 -19.08210 -10.22665
  Beta  occ. eigenvalues --  -10.22664 -10.22573 -10.22572 -10.16059 -10.16058
  Beta  occ. eigenvalues --   -1.06544  -1.06370  -0.98818  -0.98797  -0.81869
  Beta  occ. eigenvalues --   -0.73938  -0.67165  -0.60576  -0.59233  -0.54898
  Beta  occ. eigenvalues --   -0.49677  -0.48295  -0.45100  -0.44067  -0.42612
  Beta  occ. eigenvalues --   -0.41096  -0.39811  -0.39508  -0.37506  -0.34664
  Beta  occ. eigenvalues --   -0.34490  -0.33593  -0.26038  -0.25235  -0.24590
  Beta  occ. eigenvalues --   -0.22175
  Beta virt. eigenvalues --   -0.09010   0.00016   0.01370   0.01423   0.01711
  Beta virt. eigenvalues --    0.03196   0.05481   0.05755   0.05854   0.06422
  Beta virt. eigenvalues --    0.07978   0.08450   0.08502   0.09536   0.12016

 Mulliken charges and spin densities:
               1          2
     1  O   -0.289244   0.033825
     2  C   -0.171289   0.190501
     3  C    0.203978  -0.074023
     4  C   -0.192892   0.143152
     5  O   -0.539959   0.210031
     6  C   -0.171310   0.190417
     7  C    0.204033  -0.074054
     8  C   -0.192778   0.143149
     9  O   -0.539991   0.210098
    10  O   -0.289282   0.033810
    11  H    0.287081  -0.002729
    12  H    0.202281  -0.000725
    13  H    0.202279  -0.000723
    14  H    0.287092  -0.002729
 Sum of Mulliken charges =  -1.00000   1.00000

 Dipole moment (field-independent basis, Debye):
    X=              0.0005    Y=             -0.0010    Z=              0.0011  Tot=              0.0015
 Quadrupole moment (field-independent basis, Debye-Ang):
   XX=            -86.3227   YY=            -74.5251   ZZ=            -61.1403
   XY=             -8.4538   XZ=              0.0028   YZ=             -0.0000

 Normal termination of Gaussian 16 at Wed Jan 24 22:48:44 2024.
