 Gaussian 16, Revision A.03,
 Gaussian 16:  ES64L-G16RevA.03 25-Dec-2016

 --------------------------------------
 #P UB3LYP/6-311++G(d,p) nosym opt freq
 --------------------------------------

 -------
 Radical
 -------
 Symbolic Z-matrix:
 Charge = -1 Multiplicity = 2

 SCF Done:  E(UB3LYP) =  -805.949176901     A.U. after   24 cycles
 SCF Done:  E(UB3LYP) =  -805.968993704     A.U. after   17 cycles
 SCF Done:  E(UB3LYP) =  -805.971771897     A.U. after   17 cycles
 SCF Done:  E(UB3LYP) =  -805.972068453     A.U. after   17 cycles
 SCF Done:  E(UB3LYP) =  -805.972385369     A.U. after   20 cycles
 SCF Done:  E(UB3LYP) =  -805.973088373     A.U. after   20 cycles
 SCF Done:  E(UB3LYP) =  -805.973959871     A.U. after   20 cycles
 SCF Done:  E(UB3LYP) =  -805.974289567     A.U. after   16 cycles
 SCF Done:  E(UB3LYP) =  -805.974256126     A.U. after   16 cycles
 SCF Done:  E(UB3LYP) =  -805.974310287     A.U. after   17 cycles
 SCF Done:  E(UB3LYP) =  -805.974396802     A.U. after   16 cycles
 SCF Done:  E(UB3LYP) =  -805.974397960     A.U. after   12 cycles
 SCF Done:  E(UB3LYP) =  -805.974398360     A.U. after   12 cycles
 SCF Done:  E(UB3LYP) =  -805.974398522     A.U. after   10 cycles
 SCF Done:  E(UB3LYP) =  -805.974398616     A.U. after   11 cycles
 SCF Done:  E(UB3LYP) =  -805.974398647     A.U. after   10 cycles
 Optimization completed.
    -- Stationary point found.
 Normal termination of Gaussian 16 at Tue Dec 26 22:13:59 2023.

 ----------------------------------------------------------------------
 #P Geom=AllCheck Guess=TCheck SCRF=Check GenChk UB3LYP/6-311++G(d,p) F
 req
 ----------------------------------------------------------------------

 Structure from the checkpoint file:  "290-rad.chk"
 -------
 Radical
 -------
 Charge = -1 Multiplicity = 2

                          Input orientation:
 ---------------------------------------------------------------------
 Center     Atomic      Atomic             Coordinates (Angstroms)
 Number     Number       Type             X           Y           Z
 ---------------------------------------------------------------------
      1          8           0       -0.344746    2.169907    0.295134
      2          6           0       -0.535263    0.936360    0.105522
      3          6           0        0.548460    0.022034   -0.173498
      4          6           0        0.322103   -1.334366   -0.370898
      5          8           0        1.359650   -2.200011   -0.622720
      6          6           0       -0.990346   -1.947228   -0.352804
      7          8           0       -1.166626   -3.177081   -0.551502
      8          6           0       -2.101767   -1.027623   -0.082659
      9          6           0       -3.419129   -1.529768   -0.038123
     10          6           0       -4.492179   -0.696912    0.221418
     11          6           0       -4.278900    0.677946    0.446600
     12          6           0       -2.993462    1.189342    0.406875
     13          6           0       -1.887568    0.358010    0.145357
     14          6           0        1.940080    0.619719   -0.285598
     15          1           0       -3.554578   -2.590801   -0.214528
     16          1           0       -5.499879   -1.101689    0.251971
     17          1           0       -5.121132    1.332964    0.649958
     18          1           0       -2.796683    2.242153    0.574737
     19          6           0        2.926790    0.085668    0.722314
     20          6           0        4.177871   -0.364011    0.530928
     21          6           0        4.881108   -0.412678   -0.804183
     22          6           0        5.011275   -0.855415    1.691009
     23          1           0        2.180964   -1.774703   -0.345726
     24          1           0        1.805539    1.694048   -0.114988
     25          1           0        2.321326    0.503521   -1.307070
     26          1           0        2.545430    0.070900    1.742680
     27          1           0        4.242214   -0.110169   -1.633486
     28          1           0        5.252796   -1.423815   -1.012529
     29          1           0        5.758446    0.247087   -0.799759
     30          1           0        4.462261   -0.798386    2.633264
     31          1           0        5.930965   -0.264637    1.795287
     32          1           0        5.323972   -1.896821    1.541392
 ---------------------------------------------------------------------

 SCF Done:  E(UB3LYP) =  -805.974398647     A.U. after    1 cycles

 Alpha  occ. eigenvalues --  -19.02125 -18.93921 -18.93821 -10.09676 -10.09161
 Alpha  occ. eigenvalues --  -10.09085 -10.08670 -10.08614 -10.08522 -10.07513
 Alpha  occ. eigenvalues --  -10.06089 -10.05333 -10.05234 -10.04613 -10.04536
 Alpha  occ. eigenvalues --  -10.04456 -10.04381 -10.04049  -0.93292  -0.86400
 Alpha  occ. eigenvalues --   -0.85916  -0.73254  -0.73081  -0.68368  -0.64786
 Alpha  occ. eigenvalues --   -0.62460  -0.61559  -0.60564  -0.56299  -0.53123
 Alpha  occ. eigenvalues --   -0.49238  -0.47893  -0.43284  -0.42954  -0.42188
 Alpha  occ. eigenvalues --   -0.39154  -0.37956  -0.36100  -0.35596  -0.33876
 Alpha  occ. eigenvalues --   -0.33661  -0.31062  -0.30998  -0.30209  -0.29902
 Alpha  occ. eigenvalues --   -0.29611  -0.29184  -0.28749  -0.27468  -0.27416
 Alpha  occ. eigenvalues --   -0.25904  -0.25692  -0.24805  -0.23923  -0.22982
 Alpha  occ. eigenvalues --   -0.22617  -0.21335  -0.20897  -0.15384  -0.13558
 Alpha  occ. eigenvalues --   -0.13014  -0.10954  -0.10653  -0.10033  -0.01591
 Alpha virt. eigenvalues --    0.06029   0.08124   0.08490   0.08565   0.09402
 Alpha virt. eigenvalues --    0.10073   0.10491   0.11094   0.11426   0.11556
 Alpha virt. eigenvalues --    0.11675   0.12375   0.12521   0.13003   0.14210

  Beta  occ. eigenvalues --  -19.02057 -18.93360 -18.93077 -10.09482 -10.09161
  Beta  occ. eigenvalues --  -10.08955 -10.08669 -10.08614 -10.08377 -10.07508
  Beta  occ. eigenvalues --  -10.06095 -10.05304 -10.05175 -10.04633 -10.04527
  Beta  occ. eigenvalues --  -10.04395 -10.04293 -10.04000  -0.93096  -0.85433
  Beta  occ. eigenvalues --   -0.84644  -0.73183  -0.72937  -0.68069  -0.64549
  Beta  occ. eigenvalues --   -0.62289  -0.61558  -0.60399  -0.55873  -0.52613
  Beta  occ. eigenvalues --   -0.49025  -0.47754  -0.43172  -0.42794  -0.41987
  Beta  occ. eigenvalues --   -0.38978  -0.37908  -0.36013  -0.35589  -0.33699
  Beta  occ. eigenvalues --   -0.33484  -0.31059  -0.30758  -0.29859  -0.29798
  Beta  occ. eigenvalues --   -0.29417  -0.29095  -0.28325  -0.27042  -0.26919
  Beta  occ. eigenvalues --   -0.25508  -0.25129  -0.24600  -0.23436  -0.22492
  Beta  occ. eigenvalues --   -0.21342  -0.20898  -0.19485  -0.15332  -0.12372
  Beta  occ. eigenvalues --   -0.11486  -0.10383  -0.09560  -0.09296
  Beta virt. eigenvalues --    0.05036   0.06035   0.08122   0.08518   0.08601
  Beta virt. eigenvalues --    0.09914   0.10122   0.10485   0.11325   0.11435
  Beta virt. eigenvalues --    0.11684   0.12353   0.12442   0.12586   0.13013

 Mulliken charges and spin densities:
               1          2
     1  O   -0.385073   0.206045
     2  C   -1.230330   0.062164
     3  C    1.487716   0.047731
     4  C   -0.454786   0.152007
     5  O   -0.261748   0.017404
     6  C   -0.635173   0.068080
     7  O   -0.386340   0.279602
     8  C    0.646312   0.023034
     9  C   -0.049896   0.040834
    10  C   -0.376748   0.020582
    11  C   -0.403875   0.048038
    12  C    0.036379   0.002314
    13  C   -0.074856   0.033283
    14  C   -0.066802   0.004917
    15  H    0.153073  -0.003220
    16  H    0.121774  -0.001936
    17  H    0.119282  -0.003747
    18  H    0.159536  -0.000849
    19  C   -0.553154  -0.015210
    20  C    0.625709   0.019006
    21  C   -0.545483   0.001203
    22  C   -0.591956  -0.002169
    23  H    0.331874   0.000160
    24  H    0.231932  -0.001795
    25  H    0.125593   0.001918
    26  H    0.163500  -0.000973
    27  H    0.156851   0.000303
    28  H    0.129124   0.000186
    29  H    0.124829  -0.000127
    30  H    0.153029   0.000740
    31  H    0.118290  -0.000274
    32  H    0.131415   0.000749
 Sum of Mulliken charges =  -1.00000   1.00000

 Dipole moment (field-independent basis, Debye):
    X=              4.9739    Y=              3.4963    Z=              0.7084  Tot=              6.1209
 Quadrupole moment (field-independent basis, Debye-Ang):
   XX=           -123.4928   YY=           -148.9238   ZZ=           -113.6537
   XY=             -4.7606   XZ=             -1.0367   YZ=             -6.7659

  Exact polarizability: 324.276  -8.926 215.946  -8.091  15.697 129.556
 Approx polarizability: 422.606 -14.211 407.059 -20.912  38.671 199.005

                      1                      2                      3
                      A                      A                      A
 Frequencies --     30.2028                40.3688                53.2960
 Red. masses --      4.0232                 3.3453                 3.8429
 Frc consts  --      0.0022                 0.0032                 0.0064
 IR Inten    --      1.4012                 0.5165                 1.2184

                      4                      5                      6
                      A                      A                      A
 Frequencies --     86.2738               121.4863               140.1893
 Red. masses --      7.1475                 3.5183                 1.2225
 Frc consts  --      0.0313                 0.0306                 0.0142
 IR Inten    --      6.9955                 0.3793                 0.0738

                      7                      8                      9
                      A                      A                      A
 Frequencies --    149.9643               179.7549               185.1396
 Red. masses --      3.3802                 2.9709                 2.2603
 Frc consts  --      0.0448                 0.0566                 0.0456
 IR Inten    --      0.1300                 1.1400                 2.3078

                     10                     11                     12
                      A                      A                      A
 Frequencies --    194.9839               259.7685               274.3426
 Red. masses --      2.3751                 3.4662                 3.4015
 Frc consts  --      0.0532                 0.1378                 0.1508
 IR Inten    --      2.4899                 1.4203                 4.2930

                     13                     14                     15
                      A                      A                      A
 Frequencies --    301.4628               310.7574               347.6121
 Red. masses --      2.6641                 3.8071                 6.2752
 Frc consts  --      0.1427                 0.2166                 0.4468
 IR Inten    --      2.1416                 2.1422                 5.4016

                     16                     17                     18
                      A                      A                      A
 Frequencies --    379.7015               397.3895               413.5599
 Red. masses --      9.1931                 2.6378                 3.5286
 Frc consts  --      0.7809                 0.2454                 0.3556
 IR Inten    --     13.9043                 1.4181                 3.7360

                     19                     20                     21
                      A                      A                      A
 Frequencies --    419.4705               435.8559               450.0791
 Red. masses --      3.7414                 3.4257                 3.4957
 Frc consts  --      0.3879                 0.3834                 0.4172
 IR Inten    --      7.7781                 4.2487                 2.7460

                     22                     23                     24
                      A                      A                      A
 Frequencies --    461.9085               490.7676               512.2209
 Red. masses --      1.4502                 5.3283                 3.4049
 Frc consts  --      0.1823                 0.7561                 0.5263
 IR Inten    --     37.9995                 2.9650                11.4516

                     25                     26                     27
                      A                      A                      A
 Frequencies --    535.7176               571.4688               643.6616
 Red. masses --      5.1476                 4.8255                 5.9257
 Frc consts  --      0.8704                 0.9285                 1.4465
 IR Inten    --      5.0987                 4.7652                25.6415

                     28                     29                     30
                      A                      A                      A
 Frequencies --    674.3872               694.2739               709.2102
 Red. masses --      5.5461                 4.5013                 5.5168
 Frc consts  --      1.4861                 1.2783                 1.6349
 IR Inten    --      1.3580                12.1841                 3.8201

                     31                     32                     33
                      A                      A                      A
 Frequencies --    712.6319               776.4810               779.2324
 Red. masses --      2.7658                 1.9698                 2.8497
 Frc consts  --      0.8276                 0.6997                 1.0195
 IR Inten    --     38.2452                25.8506                 1.0803

                     34                     35                     36
                      A                      A                      A
 Frequencies --    787.4781               854.9610               868.3595
 Red. masses --      3.8998                 3.2124                 1.4510
 Frc consts  --      1.4248                 1.3835                 0.6446
 IR Inten    --      0.5958                 1.0863                 0.0857

                     37                     38                     39
                      A                      A                      A
 Frequencies --    872.6764               932.4516               959.5389
 Red. masses --      1.7791                 4.1321                 1.4054
 Frc consts  --      0.7983                 2.1168                 0.7624
 IR Inten    --     24.0053                34.3044                 1.2485

                     40                     41                     42
                      A                      A                      A
 Frequencies --    962.7399               976.9832               978.8625
 Red. masses --      2.8015                 1.3608                 1.2506
 Frc consts  --      1.5299                 0.7653                 0.7060
 IR Inten    --     23.5405                 2.9274                 0.0285

                     43                     44                     45
                      A                      A                      A
 Frequencies --   1020.2222              1024.9748              1038.2839
 Red. masses --      1.4243                 2.2681                 2.0264
 Frc consts  --      0.8735                 1.4039                 1.2871
 IR Inten    --      4.6281                 5.8808                19.0297

                     46                     47                     48
                      A                      A                      A
 Frequencies --   1063.6992              1099.6909              1106.5648
 Red. masses --      2.9730                 1.6412                 2.0989
 Frc consts  --      1.9819                 1.1694                 1.5142
 IR Inten    --     22.9947                 0.7418                 9.4527

                     49                     50                     51
                      A                      A                      A
 Frequencies --   1121.8178              1146.9084              1159.4789
 Red. masses --      2.0710                 1.3653                 2.0795
 Frc consts  --      1.5356                 1.0581                 1.6471
 IR Inten    --     20.1107                 4.3723                16.2896

                     52                     53                     54
                      A                      A                      A
 Frequencies --   1198.9026              1201.9481              1221.9497
 Red. masses --      2.4985                 2.0587                 2.4642
 Frc consts  --      2.1159                 1.7524                 2.1679
 IR Inten    --     77.0648                69.5452                17.2726

                     55                     56                     57
                      A                      A                      A
 Frequencies --   1258.6201              1268.6534              1301.6091
 Red. masses --      1.7522                 1.7517                 1.6373
 Frc consts  --      1.6354                 1.6611                 1.6343
 IR Inten    --    134.0817                34.2133                 7.3527

                     58                     59                     60
                      A                      A                      A
 Frequencies --   1323.2825              1356.9502              1376.5243
 Red. masses --      1.7586                 9.4700                 1.3356
 Frc consts  --      1.8143                10.2737                 1.4910
 IR Inten    --     13.3249                21.7490                 0.3918

                     61                     62                     63
                      A                      A                      A
 Frequencies --   1404.5223              1415.7989              1428.1957
 Red. masses --      1.3508                 1.2619                 2.9641
 Frc consts  --      1.5700                 1.4903                 3.5622
 IR Inten    --     10.7673                 0.6752                47.0896

                     64                     65                     66
                      A                      A                      A
 Frequencies --   1459.9673              1471.1353              1473.3556
 Red. masses --      2.4574                 1.5575                 1.2626
 Frc consts  --      3.0862                 1.9860                 1.6148
 IR Inten    --     80.9380                34.5020                14.1508

                     67                     68                     69
                      A                      A                      A
 Frequencies --   1475.4135              1487.1120              1492.0850
 Red. masses --      1.4861                 1.0607                 1.0466
 Frc consts  --      1.9060                 1.3821                 1.3728
 IR Inten    --     24.7609                 8.3372                 9.8604

                     70                     71                     72
                      A                      A                      A
 Frequencies --   1495.0111              1521.4110              1528.4871
 Red. masses --      1.0806                 8.4543                 6.4531
 Frc consts  --      1.4229                11.5298                 8.8827
 IR Inten    --      2.3761                88.3011               481.0358

                     73                     74                     75
                      A                      A                      A
 Frequencies --   1545.5809              1615.9994              1624.7049
 Red. masses --      5.0663                 8.0423                 5.9877
 Frc consts  --      7.1306                12.3741                 9.3124
 IR Inten    --     24.7298                 9.2066                10.8686

                     76                     77                     78
                      A                      A                      A
 Frequencies --   1707.3189              2988.6040              2996.8417
 Red. masses --      6.1860                 1.0400                 1.0425
 Frc consts  --     10.6241                 5.4727                 5.5161
 IR Inten    --      1.3578                57.2542               107.3398

                     79                     80                     81
                      A                      A                      A
 Frequencies --   3002.6281              3024.7960              3029.6936
 Red. masses --      1.0586                 1.0987                 1.0982
 Frc consts  --      5.6234                 5.9225                 5.9395
 IR Inten    --     99.6889                24.4393                38.2347

                     82                     83                     84
                      A                      A                      A
 Frequencies --   3040.2695              3091.9373              3114.1021
 Red. masses --      1.0996                 1.0968                 1.0875
 Frc consts  --      5.9883                 6.1779                 6.2135
 IR Inten    --      8.7702                22.9888                17.9056

                     85                     86                     87
                      A                      A                      A
 Frequencies --   3116.7887              3130.9320              3150.5535
 Red. masses --      1.0934                 1.0845                 1.0912
 Frc consts  --      6.2578                 6.2639                 6.3817
 IR Inten    --     27.1431                16.9844                54.9643

                     88                     89                     90
                      A                      A                      A
 Frequencies --   3180.1428              3182.6296              3760.6354
 Red. masses --      1.0912                 1.0927                 1.0657
 Frc consts  --      6.5018                 6.5214                 8.8799
 IR Inten    --     11.7692                29.0546               236.7348

 - Thermochemistry -
 -------------------
 Temperature   298.150 Kelvin.  Pressure   1.00000 Atm.
 Atom     1 has atomic number  8 and mass  15.99491

 Molecular mass:   242.09429 amu.
 Principal axes and moments of inertia in atomic units:
                           1         2         3
     Eigenvalues --  1976.789287735.388259142.69473
           X            0.99938   0.01721  -0.03063
           Y           -0.02279   0.98100  -0.19267
           Z            0.02673   0.19325   0.98079
 This molecule is an asymmetric top.
 Rotational symmetry number  1.
 Warning -- assumption of classical behavior for rotation
           may cause significant error
 Rotational temperatures (Kelvin)      0.04382     0.01120     0.00947
 Rotational constants (GHZ):           0.91297     0.23331     0.19740
 Zero-point vibrational energy     658989.3 (Joules/Mol)
                                  157.50222 (Kcal/Mol)
 Warning -- explicit consideration of  26 degrees of freedom as
           vibrations may cause significant error
 Vibrational temperatures:     43.46    58.08    76.68   124.13   174.79
          (Kelvin)            201.70   215.77   258.63   266.37   280.54
                              373.75   394.72   433.74   447.11   500.14
                              546.31   571.75   595.02   603.52   627.10
                              647.56   664.58   706.11   736.97   770.78
                              822.22   926.09   970.29   998.91  1020.40
                             1025.32  1117.18  1121.14  1133.01  1230.10
                             1249.38  1255.59  1341.59  1380.56  1385.17
                             1405.66  1408.36  1467.87  1474.71  1493.86
                             1530.43  1582.21  1592.10  1614.05  1650.15
                             1668.23  1724.95  1729.34  1758.11  1810.87
                             1825.31  1872.73  1903.91  1952.35  1980.51
                             2020.79  2037.02  2054.86  2100.57  2116.64
                             2119.83  2122.79  2139.62  2146.78  2150.99
                             2188.97  2199.15  2223.75  2325.06  2337.59
                             2456.45  4299.93  4311.79  4320.11  4352.01
                             4359.05  4374.27  4448.61  4480.50  4484.36
                             4504.71  4532.94  4575.52  4579.09  5410.72

 Zero-point correction=                           0.250996 (Hartree/Particle)
 Thermal correction to Energy=                    0.267530
 Thermal correction to Enthalpy=                  0.268474
 Thermal correction to Gibbs Free Energy=         0.205744
 Sum of electronic and zero-point Energies=           -805.723403
 Sum of electronic and thermal Energies=              -805.706869
 Sum of electronic and thermal Enthalpies=            -805.705925
 Sum of electronic and thermal Free Energies=         -805.768655

                     E (Thermal)             CV                S
                      KCal/Mol        Cal/Mol-Kelvin    Cal/Mol-Kelvin
 Total                  167.877             63.637            132.026
 Electronic               0.000              0.000              1.377
 Translational            0.889              2.981             42.354
 Rotational               0.889              2.981             33.302
 Vibrational            166.100             57.675             54.993
 Vibration     1          0.594              1.984              5.816
 Vibration     2          0.594              1.981              5.241
 Vibration     3          0.596              1.976              4.691
 Vibration     4          0.601              1.959              3.743
 Vibration     5          0.609              1.931              3.077
 Vibration     6          0.615              1.913              2.801
 Vibration     7          0.618              1.903              2.673
 Vibration     8          0.629              1.867              2.331
 Vibration     9          0.631              1.860              2.276
 Vibration    10          0.636              1.847              2.180
 Vibration    11          0.668              1.746              1.663
 Vibration    12          0.677              1.721              1.569
 Vibration    13          0.693              1.671              1.409
 Vibration    14          0.700              1.653              1.358
 Vibration    15          0.725              1.580              1.177
 Vibration    16          0.750              1.513              1.040
 Vibration    17          0.764              1.476              0.972
 Vibration    18          0.777              1.441              0.914
 Vibration    19          0.782              1.428              0.894
 Vibration    20          0.796              1.392              0.840
 Vibration    21          0.809              1.361              0.796
 Vibration    22          0.820              1.335              0.761
 Vibration    23          0.847              1.271              0.682
 Vibration    24          0.867              1.223              0.628
 Vibration    25          0.891              1.171              0.575
 Vibration    26          0.928              1.093              0.501

 Optimization completed.
    -- Stationary point found.
 Normal termination of Gaussian 16 at Tue Dec 26 23:34:39 2023.
