 Q-Chem 5.4, Q-Chem, Inc., Pleasanton, CA (2021)
 Q-Chem 5.4.0 for Intel X86 EM64T Linux

User input:
--------------------------------------------------------------
$molecule
-2 1
C                 -1.8778740000     -0.1869820000      1.3907530000
C                 -2.7347800000      0.6700110000      0.5882790000
C                 -2.1974910000      1.4804280000     -0.4106020000
C                 -0.8111870000      1.5913070000     -0.7234170000
C                  0.0457070000      0.7342320000      0.0789830000
C                 -0.4915800000     -0.0761620000      1.0778840000
O                 -0.2975840000      2.3464060000     -1.6288490000
O                 -2.3914800000     -0.9420350000      2.2962210000
Br                 0.6996360000     -1.1149740000      2.2371920000
Br                -3.3886900000      2.5191620000     -1.5699960000
N                  1.4314210000      0.8622440000     -0.2205660000
N                 -4.1204940000      0.5418890000      0.8877870000
C                 -4.7974590000      1.6875300000      1.5175770000
C                 -6.2966190000      1.3804300000      1.6416140000
C                 -7.0752650000      2.5385480000      2.2835500000
C                 -6.4829100000      2.9439620000      3.6414760000
C                 -4.9822860000      3.2516410000      3.5244680000
C                 -4.2168580000      2.0797240000      2.8931270000
C                  2.1082240000     -0.2834780000     -0.8503800000
C                  3.6075420000      0.0230930000     -0.9738220000
C                  1.5279460000     -0.6751420000     -2.2262150000
C                  2.2931580000     -1.8471900000     -2.8575820000
C                  4.3859750000     -1.1351610000     -1.6157770000
C                  3.7939340000     -1.5400260000     -2.9740040000
H                  1.4482360000      1.6473700000     -0.8798390000
H                 -4.1372620000     -0.2432610000      1.5470380000
H                 -4.6864430000      2.5432830000      0.8442520000
H                 -6.4220020000      0.4731090000      2.2504260000
H                 -6.6915890000      1.1485260000      0.6470030000
H                 -8.1352280000      2.2724290000      2.3979150000
H                 -7.0452900000      3.4059950000      1.6098070000
H                 -6.6227070000      2.1181130000      4.3533670000
H                 -7.0261890000      3.8058040000      4.0533390000
H                 -4.5698140000      3.4929360000      4.5134450000
H                 -4.8487180000      4.1499600000      2.9055560000
H                 -4.2561480000      1.2051480000      3.5552670000
H                 -3.1573840000      2.3228900000      2.7728090000
H                  1.9966640000     -1.1393360000     -0.1772840000
H                  4.0022400000      0.2546000000      0.0209870000
H                  3.7334730000      0.9305200000     -1.5823610000
H                  1.5677950000      0.1995700000     -2.8881430000
H                  0.4683390000     -0.9179280000     -2.1063210000
H                  1.8809360000     -2.0880920000     -3.8467600000
H                  2.1590510000     -2.7456110000     -2.2389350000
H                  4.3554430000     -2.0027590000     -0.9422550000
H                  5.4460780000     -0.8694130000     -1.7297150000
H                  4.3370380000     -2.4019640000     -3.3858950000
H                  3.9342730000     -0.7140540000     -3.6856470000
$end

$rem
BASIS  =  6-311++G(d,p)
GUI  =  2
JOB_TYPE  =  SP
METHOD  =  B3LYP
SCF_CONVERGENCE  = 8
SOLVENT_METHOD = sm12
$end

$smx
solvent dimethylformamide
charges CM5
$end

--------------------------------------------------------------

             Standard Nuclear Orientation (Angstroms)
    I     Atom           X                Y                Z
 ----------------------------------------------------------------
    1      C      -1.8778740000    -0.1869820000     1.3907530000
    2      C      -2.7347800000     0.6700110000     0.5882790000
    3      C      -2.1974910000     1.4804280000    -0.4106020000
    4      C      -0.8111870000     1.5913070000    -0.7234170000
    5      C       0.0457070000     0.7342320000     0.0789830000
    6      C      -0.4915800000    -0.0761620000     1.0778840000
    7      O      -0.2975840000     2.3464060000    -1.6288490000
    8      O      -2.3914800000    -0.9420350000     2.2962210000
    9      Br      0.6996360000    -1.1149740000     2.2371920000
   10      Br     -3.3886900000     2.5191620000    -1.5699960000
   11      N       1.4314210000     0.8622440000    -0.2205660000
   12      N      -4.1204940000     0.5418890000     0.8877870000
   13      C      -4.7974590000     1.6875300000     1.5175770000
   14      C      -6.2966190000     1.3804300000     1.6416140000
   15      C      -7.0752650000     2.5385480000     2.2835500000
   16      C      -6.4829100000     2.9439620000     3.6414760000
   17      C      -4.9822860000     3.2516410000     3.5244680000
   18      C      -4.2168580000     2.0797240000     2.8931270000
   19      C       2.1082240000    -0.2834780000    -0.8503800000
   20      C       3.6075420000     0.0230930000    -0.9738220000
   21      C       1.5279460000    -0.6751420000    -2.2262150000
   22      C       2.2931580000    -1.8471900000    -2.8575820000
   23      C       4.3859750000    -1.1351610000    -1.6157770000
   24      C       3.7939340000    -1.5400260000    -2.9740040000
   25      H       1.4482360000     1.6473700000    -0.8798390000
   26      H      -4.1372620000    -0.2432610000     1.5470380000
   27      H      -4.6864430000     2.5432830000     0.8442520000
   28      H      -6.4220020000     0.4731090000     2.2504260000
   29      H      -6.6915890000     1.1485260000     0.6470030000
   30      H      -8.1352280000     2.2724290000     2.3979150000
   31      H      -7.0452900000     3.4059950000     1.6098070000
   32      H      -6.6227070000     2.1181130000     4.3533670000
   33      H      -7.0261890000     3.8058040000     4.0533390000
   34      H      -4.5698140000     3.4929360000     4.5134450000
   35      H      -4.8487180000     4.1499600000     2.9055560000
   36      H      -4.2561480000     1.2051480000     3.5552670000
   37      H      -3.1573840000     2.3228900000     2.7728090000
   38      H       1.9966640000    -1.1393360000    -0.1772840000
   39      H       4.0022400000     0.2546000000     0.0209870000
   40      H       3.7334730000     0.9305200000    -1.5823610000
   41      H       1.5677950000     0.1995700000    -2.8881430000
   42      H       0.4683390000    -0.9179280000    -2.1063210000
   43      H       1.8809360000    -2.0880920000    -3.8467600000
   44      H       2.1590510000    -2.7456110000    -2.2389350000
   45      H       4.3554430000    -2.0027590000    -0.9422550000
   46      H       5.4460780000    -0.8694130000    -1.7297150000
   47      H       4.3370380000    -2.4019640000    -3.3858950000
   48      H       3.9342730000    -0.7140540000    -3.6856470000
 ----------------------------------------------------------------

   16   -6108.8644143866      5.61e-09  Convergence criterion met
 Total energy in the final basis set =    -6109.1170939385

                    Orbital Energies (a.u.)
 --------------------------------------------------------------

 Alpha MOs
 -- Occupied --
********-482.7924 -62.4448 -62.4448 -56.2650 -56.2650 -56.2617 -56.2617
-56.2614 -56.2614 -19.0104 -19.0104 -14.2798 -14.2798 -10.1871 -10.1871
-10.1721 -10.1721 -10.1696 -10.1696 -10.1694 -10.1694 -10.1691 -10.1691
-10.1687 -10.1687 -10.1634 -10.1634 -10.1582 -10.1582 -10.1578 -10.1578
 -8.6532  -8.6532  -6.4835  -6.4835  -6.4725  -6.4725  -6.4716  -6.4716
 -2.5946  -2.5946  -2.5914  -2.5914  -2.5907  -2.5907  -2.5822  -2.5822
 -2.5821  -2.5821  -0.9401  -0.9351  -0.8905  -0.8881  -0.8242  -0.8228
 -0.7904  -0.7691  -0.7440  -0.7437  -0.7381  -0.7303  -0.7137  -0.6542
 -0.6338  -0.6139  -0.6116  -0.6051  -0.5927  -0.5613  -0.5600  -0.5388
 -0.5212  -0.4921  -0.4797  -0.4651  -0.4566  -0.4515  -0.4450  -0.4411
 -0.4407  -0.4386  -0.4153  -0.4092  -0.4016  -0.3954  -0.3866  -0.3831
 -0.3804  -0.3797  -0.3676  -0.3550  -0.3550  -0.3512  -0.3471  -0.3466
 -0.3447  -0.3418  -0.3284  -0.3246  -0.3245  -0.3155  -0.3141  -0.3129
 -0.3064  -0.3061  -0.2874  -0.2663  -0.2530  -0.2507  -0.2417  -0.2400
 -0.2019  -0.1963  -0.1908  -0.1752  -0.1059

          Ground-State Mulliken Net Atomic Charges

     Atom                 Charge (a.u.)
  ----------------------------------------
      1 C                    -1.817825
      2 C                    -1.827851
      3 C                     1.200640
      4 C                    -1.817889
      5 C                    -1.828154
      6 C                     1.200361
      7 O                    -0.345616
      8 O                    -0.345593
      9 Br                    0.339941
     10 Br                    0.339957
     11 N                     0.307814
     12 N                     0.307742
     13 C                    -1.111817
     14 C                     0.437788
     15 C                     0.772592
     16 C                     0.753027
     17 C                     0.552649
     18 C                    -1.407647
     19 C                    -1.111991
     20 C                     0.438012
     21 C                    -1.407193
     22 C                     0.552408
     23 C                     0.772440
     24 C                     0.752979
     25 H                     0.112160
     26 H                     0.112130
     27 H                    -0.320186
     28 H                     0.091968
     29 H                     0.104027
     30 H                     0.371916
     31 H                     0.120706
     32 H                     0.116171
     33 H                     0.365837
     34 H                     0.251988
     35 H                     0.178216
     36 H                    -0.041877
     37 H                    -0.204251
     38 H                    -0.320387
     39 H                     0.103981
     40 H                     0.091960
     41 H                    -0.041778
     42 H                    -0.204162
     43 H                     0.252001
     44 H                     0.178196
     45 H                     0.120676
     46 H                     0.371918
     47 H                     0.365827
     48 H                     0.116188
  ----------------------------------------
  Sum of atomic charges =    -2.000000

                    Cartesian Multipole Moments
 -----------------------------------------------------------------
    Charge (ESU x 10^10)
                -9.6064
    Dipole Moment (Debye)
         X      12.9160      Y      -6.7452      Z      -3.2052
       Tot      14.9196
    Quadrupole Moments (Debye-Ang)
        XX    -241.5522     XY      10.7725     YY    -216.3015
        XZ       7.7429     YZ      22.1834     ZZ    -220.9386

 Total job time:  2908.16s(wall), 20790.29s(cpu)
        *  Thank you very much for using Q-Chem.  Have a nice day.  *
