 Q-Chem 5.4, Q-Chem, Inc., Pleasanton, CA (2021)
 Q-Chem 5.4.0 for Intel X86 EM64T Linux

User input:
--------------------------------------------------------------
$molecule
-2 1
C                 -2.7024080000     -1.6159030000      0.0475670000
O                 -2.2359320000     -0.6563240000     -0.8897830000
C                 -1.1587850000      0.0991530000     -0.4332550000
C                 -1.2993390000      1.4889730000     -0.3337010000
Br                -3.0374600000      2.2759240000     -0.7681610000
C                 -0.2786960000      2.4229010000      0.0611090000
O                 -0.4240030000      3.6862880000      0.1364510000
C                  0.9319660000      1.7043940000      0.3575190000
C                  1.1109970000      0.3170150000      0.2909370000
O                  2.3370400000     -0.2233440000      0.6707730000
C                  2.9960200000     -0.9368820000     -0.3653730000
C                  0.0658090000     -0.5716010000     -0.1177450000
O                  0.2145340000     -1.8651130000     -0.1949770000
Br                 2.4526550000      2.8076630000      0.9046850000
H                 -3.1368180000     -1.1174750000      0.9289130000
H                 -3.4902660000     -2.1879410000     -0.4575660000
H                 -1.8832410000     -2.2765980000      0.3484950000
H                  3.8990120000     -1.3713580000      0.0806650000
H                  2.3434120000     -1.7257170000     -0.7526020000
H                  3.2955030000     -0.2540560000     -1.1765330000
$end
$rem
MAX_SCF_CYCLES=200
BASIS  =  6-311++G(d,p)
GUI  =  2
JOB_TYPE  =  SP
METHOD  =  B3LYP
SOLVENT_METHOD = COSMO
$end
$solvent
dielectric 37.219
opticaldielectric 1.43
$end

--------------------------------------------------------------

             Standard Nuclear Orientation (Angstroms)
    I     Atom           X                Y                Z
 ----------------------------------------------------------------
    1      C      -2.7436507565    -2.5405559553     0.8644323593
    2      O      -2.4145593320    -1.6975459063    -0.2301221756
    3      C      -1.1927763482    -1.0440960502    -0.0899130535
    4      C      -1.1703612609     0.3561261359    -0.0780197122
    5      Br     -2.8765606086     1.3089790506    -0.1783545891
    6      C      -0.0001094687     1.1893388381    -0.0000715601
    7      O      -0.0002085588     2.4632843798    -0.0000709191
    8      C       1.1702720354     0.3563189121     0.0780220569
    9      C       1.1929488205    -1.0439177332     0.0893733629
   10      O       2.4148298092    -1.6970826832     0.2301819957
   11      C       2.7443485294    -2.5411226863    -0.8634374707
   12      C       0.0001542681    -1.8302165135    -0.0003635402
   13      O       0.0001888622    -3.1345390173    -0.0004445779
   14      Br      2.8762896234     1.3094856542     0.1783480444
   15      H      -2.9124187366    -1.9446000784     1.7756223793
   16      H      -3.6786725267    -3.0479358078     0.5972114320
   17      H      -1.9456189935    -3.2713506824     1.0293398791
   18      H       3.6790542732    -3.0485419789    -0.5951751400
   19      H       1.9463110861    -3.2719458827    -1.0281731739
   20      H       2.9138682183    -1.9460741100    -1.7750855532
 ----------------------------------------------------------------

   10   -5757.7599422388      6.36e-06  Convergence criterion met
 Total energy in the final basis set =    -5757.7599422388
    6   -5758.0386133815      3.28e-06  Convergence criterion met
 Total energy in the final basis set =    -5758.0386133815

                    Orbital Energies (a.u.)
 --------------------------------------------------------------

 Alpha MOs
 -- Occupied --
********-482.8078 -62.4606 -62.4606 -56.2809 -56.2809 -56.2775 -56.2774
-56.2772 -56.2772 -19.1248 -19.1248 -19.0370 -19.0286 -10.2044 -10.2000
-10.2000 -10.1926 -10.1926 -10.1894 -10.1894 -10.1876  -8.6692  -8.6692
 -6.4999  -6.4998  -6.4885  -6.4885  -6.4876  -6.4876  -2.6109  -2.6109
 -2.6079  -2.6078  -2.6071  -2.6071  -2.5981  -2.5981  -2.5981  -2.5981
 -1.0389  -1.0353  -0.9613  -0.9363  -0.8186  -0.7879  -0.7510  -0.7110
 -0.6886  -0.6486  -0.6409  -0.5578  -0.5497  -0.4927  -0.4903  -0.4550
 -0.4480  -0.4396  -0.4279  -0.4118  -0.4077  -0.3855  -0.3790  -0.3544
 -0.3505  -0.3403  -0.3377  -0.3261  -0.3066  -0.2852  -0.2839  -0.2753
 -0.2684  -0.2624  -0.2361  -0.2185  -0.2051  -0.2050  -0.1374

          Ground-State Mulliken Net Atomic Charges

     Atom                 Charge (a.u.)
  ----------------------------------------
      1 C                    -0.308518
      2 O                    -0.177035
      3 C                    -2.009951
      4 C                     2.642768
      5 Br                   -0.151171
      6 C                    -2.471614
      7 O                    -0.572590
      8 C                     2.642216
      9 C                    -2.010560
     10 O                    -0.177220
     11 C                    -0.308532
     12 C                     0.839635
     13 O                    -0.722581
     14 Br                   -0.151201
     15 H                     0.127144
     16 H                     0.155894
     17 H                     0.185067
     18 H                     0.155857
     19 H                     0.185276
     20 H                     0.127118
  ----------------------------------------
  Sum of atomic charges =    -2.000000

                    Cartesian Multipole Moments
 -----------------------------------------------------------------
    Charge (ESU x 10^10)
                -9.6064
    Dipole Moment (Debye)
         X      -0.0004      Y      -0.7879      Z       0.0025
       Tot       0.7879
    Quadrupole Moments (Debye-Ang)
        XX    -136.6629     XY       0.0003     YY    -171.0253
        XZ      -9.0880     YZ      -0.0084     ZZ    -114.4501

 Total job time:  40.47s(wall), 305.23s(cpu)
        *  Thank you very much for using Q-Chem.  Have a nice day.  *
