 Q-Chem 5.4, Q-Chem, Inc., Pleasanton, CA (2021)
 Q-Chem 5.4.0 for Intel X86 EM64T Linux

User input:
--------------------------------------------------------------
$molecule
-1 2
O                  0.1257160000      0.4160440000      2.6820860000
C                  0.0676040000      0.2224540000      1.4334360000
C                 -1.1941730000      0.1129630000      0.7154750000
C                 -2.4432440000      0.2171740000      1.3754780000
C                 -3.6426330000      0.1104250000      0.6772810000
C                 -3.6440390000     -0.1038660000     -0.7029560000
C                 -2.4168030000     -0.2112770000     -1.3841000000
C                 -1.2268980000     -0.1037470000     -0.6811630000
O                 -0.0668140000     -0.2196510000     -1.4180670000
C                  1.1578300000     -0.1239960000     -0.7896630000
C                  2.2761310000     -0.2511080000     -1.5986570000
C                  3.5623190000     -0.1653650000     -1.0323480000
C                  3.6903880000      0.0473880000      0.3421710000
C                  2.5620710000      0.1739640000      1.1472260000
C                  1.2560330000      0.0919140000      0.6041130000
H                 -2.4192510000      0.3832710000      2.4459000000
H                 -4.5847720000      0.1947180000      1.2119720000
H                 -4.5761220000     -0.1877920000     -1.2516110000
H                 -2.3756920000     -0.3775940000     -2.4551280000
H                  2.1345560000     -0.4156030000     -2.6612830000
H                  4.4391720000     -0.2645220000     -1.6633290000
H                  4.6790250000      0.1148910000      0.7880240000
H                  2.6395980000      0.3393150000      2.2151460000
$end

$rem
BASIS  =  6-311++G(d,p)
GUI  =  2
JOB_TYPE  =  SP
METHOD  =  B3LYP
SCF_CONVERGENCE  = 8
SOLVENT_METHOD = sm12
$end

$smx
solvent dimethylformamide
charges CM5
$end

--------------------------------------------------------------

             Standard Nuclear Orientation (Angstroms)
    I     Atom           X                Y                Z
 ----------------------------------------------------------------
    1      O       0.1257160000     0.4160440000     2.6820860000
    2      C       0.0676040000     0.2224540000     1.4334360000
    3      C      -1.1941730000     0.1129630000     0.7154750000
    4      C      -2.4432440000     0.2171740000     1.3754780000
    5      C      -3.6426330000     0.1104250000     0.6772810000
    6      C      -3.6440390000    -0.1038660000    -0.7029560000
    7      C      -2.4168030000    -0.2112770000    -1.3841000000
    8      C      -1.2268980000    -0.1037470000    -0.6811630000
    9      O      -0.0668140000    -0.2196510000    -1.4180670000
   10      C       1.1578300000    -0.1239960000    -0.7896630000
   11      C       2.2761310000    -0.2511080000    -1.5986570000
   12      C       3.5623190000    -0.1653650000    -1.0323480000
   13      C       3.6903880000     0.0473880000     0.3421710000
   14      C       2.5620710000     0.1739640000     1.1472260000
   15      C       1.2560330000     0.0919140000     0.6041130000
   16      H      -2.4192510000     0.3832710000     2.4459000000
   17      H      -4.5847720000     0.1947180000     1.2119720000
   18      H      -4.5761220000    -0.1877920000    -1.2516110000
   19      H      -2.3756920000    -0.3775940000    -2.4551280000
   20      H       2.1345560000    -0.4156030000    -2.6612830000
   21      H       4.4391720000    -0.2645220000    -1.6633290000
   22      H       4.6790250000     0.1148910000     0.7880240000
   23      H       2.6395980000     0.3393150000     2.2151460000
 ----------------------------------------------------------------

   17    -650.8582715836      8.38e-09  Convergence criterion met
 Total energy in the final basis set =     -650.9475890865

                    Orbital Energies (a.u.)
 --------------------------------------------------------------

 Alpha MOs
 -- Occupied --
-19.1803 -19.0578 -10.2439 -10.2439 -10.2107 -10.1785 -10.1784 -10.1780
-10.1780 -10.1771 -10.1771 -10.1769 -10.1768 -10.1717 -10.1716  -1.0987
 -0.9811  -0.8663  -0.8527  -0.7780  -0.7737  -0.7495  -0.7350  -0.6597
 -0.6448  -0.6021  -0.5960  -0.5577  -0.5531  -0.5014  -0.4887  -0.4733
 -0.4650  -0.4621  -0.4381  -0.4375  -0.4228  -0.3993  -0.3964  -0.3847
 -0.3823  -0.3786  -0.3615  -0.3563  -0.3393  -0.3343  -0.2716  -0.2612
 -0.2600  -0.2330  -0.2307  -0.1146

 Beta MOs
 -- Occupied --
-19.1795 -19.0526 -10.2432 -10.2431 -10.2074 -10.1786 -10.1785 -10.1781
-10.1780 -10.1769 -10.1768 -10.1761 -10.1759 -10.1694 -10.1693  -1.0972
 -0.9713  -0.8642  -0.8501  -0.7737  -0.7714  -0.7467  -0.7328  -0.6531
 -0.6445  -0.5994  -0.5929  -0.5558  -0.5500  -0.4997  -0.4876  -0.4719
 -0.4637  -0.4569  -0.4368  -0.4362  -0.4213  -0.3954  -0.3940  -0.3837
 -0.3726  -0.3663  -0.3605  -0.3550  -0.3328  -0.3262  -0.2654  -0.2524
 -0.2437  -0.2260  -0.2241

          Ground-State Mulliken Net Atomic Charges

     Atom                 Charge (a.u.)    Spin (a.u.)
  --------------------------------------------------------
      1 O                    -0.427271       0.205411
      2 C                    -2.501907       0.202991
      3 C                    -0.907804      -0.053573
      4 C                    -0.378355       0.209628
      5 C                     0.730030      -0.062020
      6 C                     0.823041       0.177207
      7 C                     0.491043      -0.010378
      8 C                    -0.834375       0.050859
      9 O                     0.020641       0.016844
     10 C                    -0.834916       0.051523
     11 C                     0.496852      -0.010802
     12 C                     0.822430       0.178242
     13 C                     0.731745      -0.062435
     14 C                    -0.374949       0.210454
     15 C                    -0.909222      -0.053628
     16 H                     0.117604      -0.014971
     17 H                     0.300503       0.004296
     18 H                     0.351581      -0.012805
     19 H                     0.256417      -0.001645
     20 H                     0.256556      -0.001624
     21 H                     0.351570      -0.012882
     22 H                     0.300675       0.004321
     23 H                     0.118111      -0.015013
  --------------------------------------------------------
  Sum of atomic charges =    -1.000000

                    Cartesian Multipole Moments
 -----------------------------------------------------------------
    Charge (ESU x 10^10)
                -4.8032
    Dipole Moment (Debye)
         X      -0.2738      Y      -0.9040      Z      -5.8283
       Tot       5.9043
    Quadrupole Moments (Debye-Ang)
        XX    -102.5325     XY      -0.0428     YY     -96.9850
        XZ      -0.3401     YZ      -2.0083     ZZ    -109.6559

 Total job time:  438.85s(wall), 3144.64s(cpu)
        *  Thank you very much for using Q-Chem.  Have a nice day.  *
