 Q-Chem 5.4, Q-Chem, Inc., Pleasanton, CA (2021)
 Q-Chem 5.4.0 for Intel X86 EM64T Linux

User input:
--------------------------------------------------------------
$molecule
0 1
C                 -0.3365480000     -2.0504070000      0.9207560000
C                 -0.2303360000     -0.9456840000     -0.1679430000
C                 -0.5423870000     -1.5588010000     -1.5621150000
C                 -1.2730230000      0.1352760000      0.1324330000
C                 -2.6325420000     -0.2124130000      0.1767370000
C                 -3.6155930000      0.7309710000      0.4448630000
C                 -3.2678910000      2.0641490000      0.6792500000
C                 -1.9338990000      2.4285140000      0.6403070000
C                 -0.9360980000      1.4771670000      0.3695410000
C                  0.4736550000      1.9449750000      0.3451770000
O                  0.7589220000      3.1163740000      0.5530770000
C                  1.5231510000      0.9335020000      0.0582900000
C                  2.8587290000      1.3689730000      0.0337570000
C                  3.8880520000      0.4821850000     -0.2268510000
C                  3.5840470000     -0.8605780000     -0.4671800000
C                  2.2653690000     -1.2950900000     -0.4438220000
C                  1.2054420000     -0.4125630000     -0.1814930000
H                  0.3698660000     -2.8597050000      0.7268570000
H                 -1.3390650000     -2.4816620000      0.9436630000
H                 -0.1202180000     -1.6393460000      1.9094490000
H                 -1.5489820000     -1.9803030000     -1.5874160000
H                 -0.4724580000     -0.7975690000     -2.3424490000
H                  0.1599560000     -2.3588220000     -1.8034780000
H                 -2.9343910000     -1.2375310000     -0.0008900000
H                 -4.6563470000      0.4269740000      0.4713520000
H                 -4.0335810000      2.8021780000      0.8886700000
H                 -1.6213560000      3.4504120000      0.8161940000
H                  3.0504400000      2.4175330000      0.2252120000
H                  4.9166470000      0.8235070000     -0.2445930000
H                  4.3779630000     -1.5701590000     -0.6732840000
H                  2.0624760000     -2.3420570000     -0.6340690000
$end
$rem
MAX_SCF_CYCLES=200
BASIS  =  6-311++G(d,p)
GUI  =  2
JOB_TYPE  =  SP
METHOD  =  B3LYP
SOLVENT_METHOD = PCM
$end
$pcm
theory = CPCM
$end
$solvent
dielectric 37.219
opticaldielectric 1.43
$end

--------------------------------------------------------------

             Standard Nuclear Orientation (Angstroms)
    I     Atom           X                Y                Z
 ----------------------------------------------------------------
    1      C      -0.3365480000    -2.0504070000     0.9207560000
    2      C      -0.2303360000    -0.9456840000    -0.1679430000
    3      C      -0.5423870000    -1.5588010000    -1.5621150000
    4      C      -1.2730230000     0.1352760000     0.1324330000
    5      C      -2.6325420000    -0.2124130000     0.1767370000
    6      C      -3.6155930000     0.7309710000     0.4448630000
    7      C      -3.2678910000     2.0641490000     0.6792500000
    8      C      -1.9338990000     2.4285140000     0.6403070000
    9      C      -0.9360980000     1.4771670000     0.3695410000
   10      C       0.4736550000     1.9449750000     0.3451770000
   11      O       0.7589220000     3.1163740000     0.5530770000
   12      C       1.5231510000     0.9335020000     0.0582900000
   13      C       2.8587290000     1.3689730000     0.0337570000
   14      C       3.8880520000     0.4821850000    -0.2268510000
   15      C       3.5840470000    -0.8605780000    -0.4671800000
   16      C       2.2653690000    -1.2950900000    -0.4438220000
   17      C       1.2054420000    -0.4125630000    -0.1814930000
   18      H       0.3698660000    -2.8597050000     0.7268570000
   19      H      -1.3390650000    -2.4816620000     0.9436630000
   20      H      -0.1202180000    -1.6393460000     1.9094490000
   21      H      -1.5489820000    -1.9803030000    -1.5874160000
   22      H      -0.4724580000    -0.7975690000    -2.3424490000
   23      H       0.1599560000    -2.3588220000    -1.8034780000
   24      H      -2.9343910000    -1.2375310000    -0.0008900000
   25      H      -4.6563470000     0.4269740000     0.4713520000
   26      H      -4.0335810000     2.8021780000     0.8886700000
   27      H      -1.6213560000     3.4504120000     0.8161940000
   28      H       3.0504400000     2.4175330000     0.2252120000
   29      H       4.9166470000     0.8235070000    -0.2445930000
   30      H       4.3779630000    -1.5701590000    -0.6732840000
   31      H       2.0624760000    -2.3420570000    -0.6340690000
 ----------------------------------------------------------------

    8    -693.5681645930      7.85e-06  Convergence criterion met
 Total energy in the final basis set =     -693.5681645930

                    Orbital Energies (a.u.)
 --------------------------------------------------------------

 Alpha MOs
 -- Occupied --
-19.1156 -10.2683 -10.2098 -10.2015 -10.2015 -10.1910 -10.1910 -10.1873
-10.1873 -10.1843 -10.1843 -10.1820 -10.1820 -10.1818 -10.1818 -10.1645
-10.1645  -1.0521  -0.8904  -0.8688  -0.8241  -0.7845  -0.7635  -0.7564
 -0.7375  -0.6928  -0.6611  -0.6440  -0.6277  -0.6049  -0.5739  -0.5482
 -0.5427  -0.4983  -0.4751  -0.4727  -0.4701  -0.4511  -0.4457  -0.4445
 -0.4349  -0.4272  -0.4255  -0.4145  -0.4044  -0.3932  -0.3812  -0.3748
 -0.3725  -0.3667  -0.3617  -0.3484  -0.3387  -0.3268  -0.2720  -0.2685
 -0.2667  -0.2638  -0.2586

          Ground-State Mulliken Net Atomic Charges

     Atom                 Charge (a.u.)
  ----------------------------------------
      1 C                    -0.839261
      2 C                     0.326162
      3 C                    -0.841686
      4 C                     0.280497
      5 C                    -0.113195
      6 C                    -0.453671
      7 C                    -0.436680
      8 C                     0.169430
      9 C                     0.304191
     10 C                    -0.465753
     11 O                    -0.344387
     12 C                     0.303363
     13 C                     0.171350
     14 C                    -0.438041
     15 C                    -0.452528
     16 C                    -0.112516
     17 C                     0.277337
     18 H                     0.166895
     19 H                     0.167214
     20 H                     0.182996
     21 H                     0.167166
     22 H                     0.183254
     23 H                     0.167244
     24 H                     0.181644
     25 H                     0.216692
     26 H                     0.206637
     27 H                     0.210470
     28 H                     0.210170
     29 H                     0.206622
     30 H                     0.216735
     31 H                     0.181645
  ----------------------------------------
  Sum of atomic charges =     0.000000

                    Cartesian Multipole Moments
 -----------------------------------------------------------------
    Charge (ESU x 10^10)
                 0.0000
    Dipole Moment (Debye)
         X      -1.4275      Y      -5.8643      Z      -1.0390
       Tot       6.1243
    Quadrupole Moments (Debye-Ang)
        XX     -81.8526     XY      -5.9222     YY    -106.9815
        XZ      -3.0759     YZ       0.0676     ZZ    -104.5761

 Total job time:  78.46s(wall), 389.58s(cpu)
        *  Thank you very much for using Q-Chem.  Have a nice day.  *
