 Gaussian 16, Revision A.03,
 Gaussian 16:  ES64L-G16RevA.03 25-Dec-2016

 ----------------------------------------------
 #P UB3LYP/6-311++G(d,p) nosym opt freq SCF=YQC
 ----------------------------------------------

 -------
 Reduced
 -------
 Symbolic Z-matrix:
 Charge = -2 Multiplicity = 1

 SCF Done:  E(UB3LYP) =  -1035.59148742     a.u. after    7 cycles
 SCF Done:  E(UB3LYP) =  -1035.60115917     A.U. after   33 cycles
 SCF Done:  E(UB3LYP) =  -1035.60115917     a.u. after    1 cycles
 SCF Done:  E(UB3LYP) =  -1035.61878090     a.u. after   37 cycles
 SCF Done:  E(UB3LYP) =  -1035.61934032     A.U. after   32 cycles
 SCF Done:  E(UB3LYP) =  -1035.62234611     a.u. after   24 cycles
 SCF Done:  E(UB3LYP) =  -1035.62288915     A.U. after   30 cycles
 SCF Done:  E(UB3LYP) =  -1035.62276744     a.u. after   24 cycles
 SCF Done:  E(UB3LYP) =  -1035.62292461     A.U. after   32 cycles
 SCF Done:  E(UB3LYP) =  -1035.62357182     a.u. after   22 cycles
 SCF Done:  E(UB3LYP) =  -1035.62383914     a.u. after    1 cycles
 SCF Done:  E(UB3LYP) =  -1035.62390313     A.U. after   28 cycles
 SCF Done:  E(UB3LYP) =  -1035.62385039     a.u. after    1 cycles
 SCF Done:  E(UB3LYP) =  -1035.62390329     A.U. after   26 cycles
 SCF Done:  E(UB3LYP) =  -1035.62386116     a.u. after    1 cycles
 SCF Done:  E(UB3LYP) =  -1035.62390340     A.U. after   26 cycles
 SCF Done:  E(UB3LYP) =  -1035.62389497     a.u. after    1 cycles
 SCF Done:  E(UB3LYP) =  -1035.62390346     A.U. after   24 cycles
 Optimization completed.
    -- Stationary point found.
 Normal termination of Gaussian 16 at Fri Dec 22 10:40:12 2023.

 ----------------------------------------------------------------------
 #P Geom=AllCheck Guess=TCheck SCRF=Check GenChk UB3LYP/6-311++G(d,p) F
 req
 ----------------------------------------------------------------------

 Structure from the checkpoint file:  "173-an.chk"
 -------
 Reduced
 -------
 Charge = -2 Multiplicity = 1

                          Input orientation:
 ---------------------------------------------------------------------
 Center     Atomic      Atomic             Coordinates (Angstroms)
 Number     Number       Type             X           Y           Z
 ---------------------------------------------------------------------
      1          6           0       -1.440481    2.421305   -3.906501
      2          6           0       -1.361762    1.053270   -4.057711
      3          6           0       -1.030291    0.238926   -2.938198
      4          6           0       -1.201391    3.055684   -2.658656
      5          6           0       -0.865443    2.232991   -1.528455
      6          6           0       -0.793092    0.827825   -1.714089
      7          6           0       -1.309518    4.486611   -2.556646
      8          6           0       -0.596968    2.792870   -0.229380
      9          6           0       -1.067155    5.064726   -1.253161
     10          6           0       -0.666781    4.233235   -0.117017
     11          6           0       -1.215559    6.495143   -1.050495
     12          6           0       -0.926429    7.046963    0.181560
     13          6           0       -0.487193    6.251311    1.268034
     14          6           0       -0.339737    4.880368    1.142905
     15          8           0       -1.612487    5.185446   -3.617019
     16          8           0       -0.314292    1.999761    0.765565
     17          1           0       -1.692809    3.069927   -4.738721
     18          1           0       -1.552968    0.596400   -5.027155
     19          1           0       -0.963849   -0.841825   -3.049744
     20          1           0       -0.538718    0.236816   -0.840588
     21          1           0       -0.238749    6.743119    2.202823
     22          1           0       -1.057401    8.113371    0.340562
     23          7           0       -1.715050    7.287891   -2.109960
     24          7           0        0.179339    4.095834    2.184570
     25          1           0       -1.746892    6.684691   -2.958947
     26          1           0        0.049864    3.092428    1.941881
     27          6           0        0.035701    4.464587    3.576366
     28          6           0        0.902783    3.524606    4.425739
     29          6           0       -1.430185    4.456078    4.065864
     30          6           0       -1.205833    8.626702   -2.336395
     31          6           0        0.300685    8.664996   -2.678197
     32          6           0       -2.033677    9.279792   -3.451811
     33          1           0        0.425569    5.482661    3.718063
     34          1           0        0.844371    3.777304    5.491396
     35          1           0        1.947608    3.579715    4.106655
     36          1           0        0.570909    2.487584    4.304499
     37          1           0       -2.039920    5.094011    3.420802
     38          1           0       -1.516439    4.816819    5.099627
     39          1           0       -1.834704    3.439043    4.017649
     40          1           0       -1.353182    9.228163   -1.427769
     41          1           0        0.871863    8.162482   -1.894015
     42          1           0        0.668476    9.696586   -2.773665
     43          1           0        0.484579    8.137904   -3.620461
     44          1           0       -1.943779    8.700980   -4.377348
     45          1           0       -1.694231   10.303354   -3.652870
     46          1           0       -3.091543    9.303416   -3.174926
 ---------------------------------------------------------------------

 SCF Done:  E(UB3LYP) =  -1035.62390346     a.u. after    1 cycles
 SCF Done:  E(UB3LYP) =  -1035.62390346     A.U. after    1 cycles

 Alpha  occ. eigenvalues --  -18.80157 -18.80116 -14.06226 -14.06137 -10.00502
 Alpha  occ. eigenvalues --  -10.00219  -9.97941  -9.97180  -9.96661  -9.96335
 Alpha  occ. eigenvalues --   -9.96316  -9.96004  -9.95775  -9.95732  -9.94134
 Alpha  occ. eigenvalues --   -9.94077  -9.93256  -9.93250  -9.92311  -9.92272
 Alpha  occ. eigenvalues --   -9.92152  -9.92048  -9.91728  -9.91686  -0.72388
 Alpha  occ. eigenvalues --   -0.71983  -0.68834  -0.68551  -0.61055  -0.59900
 Alpha  occ. eigenvalues --   -0.57225  -0.54923  -0.53137  -0.50808  -0.50022
 Alpha  occ. eigenvalues --   -0.49560  -0.48939  -0.46911  -0.41799  -0.40541
 Alpha  occ. eigenvalues --   -0.39968  -0.37688  -0.36394  -0.33800  -0.31907
 Alpha  occ. eigenvalues --   -0.29506  -0.29006  -0.27793  -0.26507  -0.25186
 Alpha  occ. eigenvalues --   -0.24891  -0.24070  -0.23097  -0.22481  -0.22009
 Alpha  occ. eigenvalues --   -0.21341  -0.21004  -0.20381  -0.20296  -0.19811
 Alpha  occ. eigenvalues --   -0.18397  -0.18135  -0.17620  -0.16451  -0.16282
 Alpha  occ. eigenvalues --   -0.15900  -0.15480  -0.15164  -0.14909  -0.13614
 Alpha  occ. eigenvalues --   -0.13515  -0.12667  -0.12410  -0.12366  -0.10455
 Alpha  occ. eigenvalues --   -0.10284  -0.08663  -0.08609  -0.06600  -0.01739
 Alpha  occ. eigenvalues --   -0.01190  -0.00142   0.00457   0.01817   0.02800
 Alpha  occ. eigenvalues --    0.05593   0.11918
 Alpha virt. eigenvalues --    0.13169   0.13657   0.15505   0.15705   0.15801
 Alpha virt. eigenvalues --    0.16502   0.17065   0.17403   0.17561   0.18046
 Alpha virt. eigenvalues --    0.19133   0.19520   0.19983   0.20170   0.20367

  Beta  occ. eigenvalues --  -18.80157 -18.80116 -14.06226 -14.06137 -10.00502
  Beta  occ. eigenvalues --  -10.00219  -9.97941  -9.97180  -9.96661  -9.96335
  Beta  occ. eigenvalues --   -9.96316  -9.96004  -9.95775  -9.95732  -9.94134
  Beta  occ. eigenvalues --   -9.94077  -9.93256  -9.93250  -9.92311  -9.92272
  Beta  occ. eigenvalues --   -9.92152  -9.92048  -9.91728  -9.91686  -0.72388
  Beta  occ. eigenvalues --   -0.71983  -0.68834  -0.68551  -0.61055  -0.59900
  Beta  occ. eigenvalues --   -0.57225  -0.54923  -0.53137  -0.50808  -0.50022
  Beta  occ. eigenvalues --   -0.49560  -0.48939  -0.46911  -0.41799  -0.40541
  Beta  occ. eigenvalues --   -0.39968  -0.37688  -0.36394  -0.33800  -0.31907
  Beta  occ. eigenvalues --   -0.29506  -0.29006  -0.27793  -0.26507  -0.25186
  Beta  occ. eigenvalues --   -0.24891  -0.24070  -0.23097  -0.22481  -0.22009
  Beta  occ. eigenvalues --   -0.21341  -0.21004  -0.20381  -0.20296  -0.19811
  Beta  occ. eigenvalues --   -0.18397  -0.18135  -0.17620  -0.16451  -0.16282
  Beta  occ. eigenvalues --   -0.15900  -0.15480  -0.15164  -0.14909  -0.13614
  Beta  occ. eigenvalues --   -0.13515  -0.12667  -0.12410  -0.12366  -0.10455
  Beta  occ. eigenvalues --   -0.10284  -0.08663  -0.08609  -0.06600  -0.01739
  Beta  occ. eigenvalues --   -0.01190  -0.00142   0.00457   0.01817   0.02800
  Beta  occ. eigenvalues --    0.05593   0.11918
  Beta virt. eigenvalues --    0.13169   0.13657   0.15505   0.15705   0.15801
  Beta virt. eigenvalues --    0.16502   0.17065   0.17403   0.17561   0.18046
  Beta virt. eigenvalues --    0.19133   0.19520   0.19983   0.20170   0.20367

 Mulliken charges and spin densities:
               1          2
     1  C   -0.215961  -0.000000
     2  C   -0.391471  -0.000000
     3  C   -0.378013   0.000000
     4  C    0.400760   0.000000
     5  C    0.426810   0.000000
     6  C   -0.217751   0.000000
     7  C   -0.530945  -0.000000
     8  C   -0.544508  -0.000000
     9  C    0.131640  -0.000000
    10  C    0.167765   0.000000
    11  C   -0.174084   0.000000
    12  C   -0.070348  -0.000000
    13  C   -0.136568  -0.000000
    14  C   -0.264605   0.000000
    15  O   -0.477317   0.000000
    16  O   -0.481575   0.000000
    17  H    0.125642  -0.000000
    18  H    0.081012   0.000000
    19  H    0.081696  -0.000000
    20  H    0.120569   0.000000
    21  H    0.080259  -0.000000
    22  H    0.095269  -0.000000
    23  N    0.018646   0.000000
    24  N    0.045455   0.000000
    25  H    0.392811  -0.000000
    26  H    0.526674   0.000000
    27  C   -0.301259  -0.000000
    28  C   -0.099220   0.000000
    29  C   -0.238697   0.000000
    30  C    0.125113   0.000000
    31  C   -0.605932   0.000000
    32  C   -0.600394  -0.000000
    33  H    0.117451   0.000000
    34  H   -0.316195  -0.000000
    35  H    0.074347  -0.000000
    36  H    0.060603  -0.000000
    37  H    0.130601  -0.000000
    38  H   -0.047295  -0.000000
    39  H    0.096207  -0.000000
    40  H    0.073012   0.000000
    41  H    0.150702  -0.000000
    42  H    0.069617  -0.000000
    43  H    0.136367  -0.000000
    44  H    0.137798  -0.000000
    45  H    0.089615  -0.000000
    46  H    0.135697   0.000000
 Sum of Mulliken charges =  -2.00000  -0.00000

 Dipole moment (field-independent basis, Debye):
    X=              8.1507    Y=            -38.3524    Z=              6.5288  Tot=             39.7487
 Quadrupole moment (field-independent basis, Debye-Ang):
   XX=           -179.0417   YY=           -366.7491   ZZ=           -255.8834
   XY=             38.3877   XZ=            -24.0454   YZ=             32.8198

  Exact polarizability: 459.993 -75.911 585.962 483.392 -40.9793020.996
 Approx polarizability: 569.905 -54.338 826.983 928.705  48.6815574.660

                      1                      2                      3
                      A                      A                      A
 Frequencies --     12.6883                27.9016                41.2182
 Red. masses --      3.4614                 3.6519                 2.9217
 Frc consts  --      0.0003                 0.0017                 0.0029
 IR Inten    --      2.3919                 5.2509                 0.0305

                      4                      5                      6
                      A                      A                      A
 Frequencies --     48.8543                57.4851                80.3271
 Red. masses --      3.8407                 6.0600                 3.6715
 Frc consts  --      0.0054                 0.0118                 0.0140
 IR Inten    --      0.8687                 2.7551                30.9346

                      7                      8                      9
                      A                      A                      A
 Frequencies --     97.6998               102.7076               135.8032
 Red. masses --      3.7834                 3.5827                 4.6632
 Frc consts  --      0.0213                 0.0223                 0.0507
 IR Inten    --     13.7080                 5.8953                 3.9221

                     10                     11                     12
                      A                      A                      A
 Frequencies --    154.7467               178.2339               223.7281
 Red. masses --      4.3606                 7.2369                 1.0438
 Frc consts  --      0.0615                 0.1355                 0.0308
 IR Inten    --      1.0840                 2.3838                40.3902

                     13                     14                     15
                      A                      A                      A
 Frequencies --    226.9012               227.4835               246.9241
 Red. masses --      2.2402                 1.0394                 2.7546
 Frc consts  --      0.0680                 0.0317                 0.0990
 IR Inten    --      1.8128                 0.3676                 0.5895

                     16                     17                     18
                      A                      A                      A
 Frequencies --    253.3920               257.3969               268.2854
 Red. masses --      1.3102                 3.0346                 1.4737
 Frc consts  --      0.0496                 0.1185                 0.0625
 IR Inten    --     11.9510                 5.9638                 0.4768

                     19                     20                     21
                      A                      A                      A
 Frequencies --    274.7606               326.3743               344.5118
 Red. masses --      4.1866                 3.6601                 4.6906
 Frc consts  --      0.1862                 0.2297                 0.3280
 IR Inten    --      1.0980                85.2271                32.3823

                     22                     23                     24
                      A                      A                      A
 Frequencies --    374.3558               389.8348               392.7300
 Red. masses --      2.7684                 5.7602                 3.8807
 Frc consts  --      0.2286                 0.5158                 0.3527
 IR Inten    --     41.1288                14.8246                56.1568

                     25                     26                     27
                      A                      A                      A
 Frequencies --    396.6309               418.7115               428.8377
 Red. masses --      4.3599                 4.3630                 4.1377
 Frc consts  --      0.4041                 0.4507                 0.4483
 IR Inten    --     83.9600                62.5321                 1.7587

                     28                     29                     30
                      A                      A                      A
 Frequencies --    437.1086               444.9542               469.2539
 Red. masses --     11.7199                 3.3530                 2.5571
 Frc consts  --      1.3193                 0.3911                 0.3317
 IR Inten    --     80.3859                 2.3770                11.6803

                     31                     32                     33
                      A                      A                      A
 Frequencies --    472.4271               491.7514               498.9641
 Red. masses --      2.9546                 5.7489                 4.9490
 Frc consts  --      0.3885                 0.8191                 0.7260
 IR Inten    --      3.5266              1339.6587               222.6595

                     34                     35                     36
                      A                      A                      A
 Frequencies --    507.3314               596.3606               607.7618
 Red. masses --      5.8647                 3.2881                 4.6532
 Frc consts  --      0.8894                 0.6890                 1.0127
 IR Inten    --      2.6649                28.1070                27.9141

                     37                     38                     39
                      A                      A                      A
 Frequencies --    626.5781               635.5545               671.9678
 Red. masses --      4.7436                 5.0838                 5.7382
 Frc consts  --      1.0973                 1.2099                 1.5266
 IR Inten    --     24.5264                 2.2409               209.4277

                     40                     41                     42
                      A                      A                      A
 Frequencies --    702.5396               721.2173               732.8633
 Red. masses --      1.6695                 6.1032                 3.7262
 Frc consts  --      0.4855                 1.8704                 1.1791
 IR Inten    --     17.0684                13.2327                 2.1978

                     43                     44                     45
                      A                      A                      A
 Frequencies --    747.8161               762.0797               773.7026
 Red. masses --      1.9143                 2.4348                 4.4326
 Frc consts  --      0.6307                 0.8331                 1.5633
 IR Inten    --     67.3139                65.9304                19.5782

                     46                     47                     48
                      A                      A                      A
 Frequencies --    785.6950               801.1494               815.1016
 Red. masses --      2.0113                 1.6070                 2.3590
 Frc consts  --      0.7315                 0.6077                 0.9234
 IR Inten    --      2.2865                65.5034                45.3582

                     49                     50                     51
                      A                      A                      A
 Frequencies --    821.8068               827.6693               855.4941
 Red. masses --      2.9745                 3.3998                 4.3006
 Frc consts  --      1.1836                 1.3722                 1.8545
 IR Inten    --      7.7724                18.1284               189.4258

                     52                     53                     54
                      A                      A                      A
 Frequencies --    877.8999               909.6869               913.8900
 Red. masses --      3.7487                 1.5283                 1.4196
 Frc consts  --      1.7022                 0.7452                 0.6985
 IR Inten    --    100.8074               148.8415                15.6966

                     55                     56                     57
                      A                      A                      A
 Frequencies --    932.1470               932.5628               940.4876
 Red. masses --      1.3324                 1.9863                 1.5004
 Frc consts  --      0.6821                 1.0178                 0.7819
 IR Inten    --      6.7343                58.6730                 3.4886

                     58                     59                     60
                      A                      A                      A
 Frequencies --    944.8988               956.7693               961.5180
 Red. masses --      1.7278                 1.2318                 1.3670
 Frc consts  --      0.9089                 0.6644                 0.7446
 IR Inten    --      3.1739                 3.1036                15.6483

                     61                     62                     63
                      A                      A                      A
 Frequencies --    966.1862              1001.4396              1012.9199
 Red. masses --      1.7521                 1.1879                 2.1600
 Frc consts  --      0.9637                 0.7019                 1.3057
 IR Inten    --     88.9101                68.6490               702.0144

                     64                     65                     66
                      A                      A                      A
 Frequencies --   1020.2849              1063.6375              1095.2449
 Red. masses --      2.4055                 2.4182                 2.2504
 Frc consts  --      1.4754                 1.6119                 1.5905
 IR Inten    --     22.3218                53.2149                33.1080

                     67                     68                     69
                      A                      A                      A
 Frequencies --   1126.0529              1128.1050              1129.1041
 Red. masses --      1.4010                 2.2014                 2.1863
 Frc consts  --      1.0466                 1.6507                 1.6422
 IR Inten    --    133.9415                14.3775                23.2869

                     70                     71                     72
                      A                      A                      A
 Frequencies --   1166.5716              1171.9578              1176.3187
 Red. masses --      2.2122                 1.8389                 1.9690
 Frc consts  --      1.7738                 1.4881                 1.6052
 IR Inten    --    384.1942                15.9908                13.0645

                     73                     74                     75
                      A                      A                      A
 Frequencies --   1179.8617              1186.5112              1191.5705
 Red. masses --      2.0240                 2.0554                 2.1661
 Frc consts  --      1.6601                 1.7049                 1.8120
 IR Inten    --     31.0580               212.9514               240.5479

                     76                     77                     78
                      A                      A                      A
 Frequencies --   1218.0496              1235.1506              1242.1775
 Red. masses --      3.2699                 3.6675                 2.2453
 Frc consts  --      2.8583                 3.2966                 2.0413
 IR Inten    --    327.3258              7365.9484               768.5220

                     79                     80                     81
                      A                      A                      A
 Frequencies --   1260.5881              1264.2300              1328.4227
 Red. masses --      4.3807                 5.4959                 2.1304
 Frc consts  --      4.1015                 5.1754                 2.2150
 IR Inten    --    395.6658              1673.9069               130.2756

                     82                     83                     84
                      A                      A                      A
 Frequencies --   1342.2400              1345.7166              1350.5305
 Red. masses --      4.4213                 1.4508                 1.4029
 Frc consts  --      4.6932                 1.5480                 1.5076
 IR Inten    --   1902.8244                13.7752                75.2627

                     85                     86                     87
                      A                      A                      A
 Frequencies --   1356.0790              1357.9084              1367.4649
 Red. masses --      1.3267                 1.3695                 2.4100
 Frc consts  --      1.4375                 1.4879                 2.6553
 IR Inten    --     28.4702                87.8938               694.3619

                     88                     89                     90
                      A                      A                      A
 Frequencies --   1370.6800              1371.5820              1376.7412
 Red. masses --      1.2721                 1.2599                 2.3077
 Frc consts  --      1.4082                 1.3964                 2.5771
 IR Inten    --     11.5220                22.5514               156.8263

                     91                     92                     93
                      A                      A                      A
 Frequencies --   1391.1470              1393.2225              1425.8172
 Red. masses --      1.3193                 1.2934                 6.8381
 Frc consts  --      1.5043                 1.4792                 8.1905
 IR Inten    --    609.0964                19.6206              2058.4470

                     94                     95                     96
                      A                      A                      A
 Frequencies --   1457.0295              1466.2533              1472.5392
 Red. masses --      5.0107                 2.3944                 1.0497
 Frc consts  --      6.2673                 3.0330                 1.3411
 IR Inten    --    154.0573               672.6680                62.2397

                     97                     98                     99
                      A                      A                      A
 Frequencies --   1474.0389              1479.6158              1481.4879
 Red. masses --      1.0518                 1.0572                 1.0578
 Frc consts  --      1.3464                 1.3637                 1.3679
 IR Inten    --      3.5081                42.6759                63.0239

                    100                    101                    102
                      A                      A                      A
 Frequencies --   1483.7855              1488.8372              1490.8092
 Red. masses --      4.7303                 1.0631                 1.0526
 Frc consts  --      6.1359                 1.3884                 1.3784
 IR Inten    --      1.2448                50.9928                 3.0153

                    103                    104                    105
                      A                      A                      A
 Frequencies --   1505.1916              1506.4047              1541.4637
 Red. masses --      1.0552                 1.0547                 4.9392
 Frc consts  --      1.4085                 1.4101                 6.9148
 IR Inten    --     30.0163                29.9722               468.2474

                    106                    107                    108
                      A                      A                      A
 Frequencies --   1545.9202              1565.0291              1589.5438
 Red. masses --      2.6325                 3.4202                 5.1601
 Frc consts  --      3.7068                 4.9357                 7.6816
 IR Inten    --   1639.2668              4827.3337                 6.6274

                    109                    110                    111
                      A                      A                      A
 Frequencies --   1616.7334              1636.8588              2947.3480
 Red. masses --      1.6522                 1.8882                 1.0851
 Frc consts  --      2.5445                 2.9808                 5.5535
 IR Inten    --    642.8359               134.4456               345.9098

                    112                    113                    114
                      A                      A                      A
 Frequencies --   2953.9053              2975.2506              2982.1713
 Red. masses --      1.0845                 1.0478                 1.0427
 Frc consts  --      5.5752                 5.4648                 5.4636
 IR Inten    --    617.0343               280.8799               240.2247

                    115                    116                    117
                      A                      A                      A
 Frequencies --   2995.3562              2997.9101              3023.7726
 Red. masses --      1.0388                 1.0388                 1.0813
 Frc consts  --      5.4914                 5.5009                 5.8247
 IR Inten    --    245.1720               471.8760               701.0982

                    118                    119                    120
                      A                      A                      A
 Frequencies --   3043.3090              3048.6800              3049.0712
 Red. masses --      1.0863                 1.0921                 1.0909
 Frc consts  --      5.9280                 5.9807                 5.9755
 IR Inten    --   1803.1242                45.2936               170.7791

                    121                    122                    123
                      A                      A                      A
 Frequencies --   3057.0482              3058.7666              3075.9564
 Red. masses --      1.0963                 1.0967                 1.1008
 Frc consts  --      6.0365                 6.0455                 6.1363
 IR Inten    --     33.7357                51.5397                31.9310

                    124                    125                    126
                      A                      A                      A
 Frequencies --   3077.6240              3084.2478              3091.4798
 Red. masses --      1.1008                 1.0996                 1.0992
 Frc consts  --      6.1433                 6.1628                 6.1898
 IR Inten    --     38.7717                64.4458                 8.6940

                    127                    128                    129
                      A                      A                      A
 Frequencies --   3094.8043              3118.2709              3127.2001
 Red. masses --      1.0829                 1.0910                 1.0837
 Frc consts  --      6.1109                 6.2502                 6.2443
 IR Inten    --     35.1731               352.6514                46.2567

                    130                    131                    132
                      A                      A                      A
 Frequencies --   3151.9196              3167.0670              3169.2309
 Red. masses --      1.0908                 1.0902                 1.0912
 Frc consts  --      6.3847                 6.4430                 6.4575
 IR Inten    --    162.9116                17.8247               222.5378

 - Thermochemistry -
 -------------------
 Temperature   298.150 Kelvin.  Pressure   1.00000 Atm.
 Atom     1 has atomic number  6 and mass  12.00000

 Molecular mass:   322.16813 amu.
 Principal axes and moments of inertia in atomic units:
                           1         2         3
     Eigenvalues --  7330.409008475.87190**********
           X            0.17272   0.06613   0.98275
           Y           -0.51027   0.85942   0.03185
           Z            0.84249   0.50697  -0.18219
 This molecule is an asymmetric top.
 Rotational symmetry number  1.
 Warning -- assumption of classical behavior for rotation
           may cause significant error
 Rotational temperatures (Kelvin)      0.01182     0.01022     0.00576
 Rotational constants (GHZ):           0.24620     0.21293     0.11993
 Zero-point vibrational energy     980166.1 (Joules/Mol)
                                  234.26533 (Kcal/Mol)
 Warning -- explicit consideration of  36 degrees of freedom as
           vibrations may cause significant error
 Vibrational temperatures:     18.26    40.14    59.30    70.29    82.71
          (Kelvin)            115.57   140.57   147.77   195.39   222.65
                              256.44   321.89   326.46   327.30   355.27
                              364.57   370.34   386.00   395.32   469.58
                              495.68   538.61   560.89   565.05   570.66
                              602.43   617.00   628.90   640.19   675.15
                              679.72   707.52   717.90   729.94   858.03
                              874.43   901.51   914.42   966.81  1010.80
                             1037.67  1054.43  1075.94  1096.46  1113.19
                             1130.44  1152.68  1172.75  1182.40  1190.83
                             1230.87  1263.10  1308.84  1314.88  1341.15
                             1341.75  1353.15  1359.50  1376.58  1383.41
                             1390.13  1440.85  1457.37  1467.96  1530.34
                             1575.81  1620.14  1623.09  1624.53  1678.44
                             1686.19  1692.46  1697.56  1707.12  1714.40
                             1752.50  1777.11  1787.22  1813.71  1818.94
                             1911.30  1931.18  1936.19  1943.11  1951.10
                             1953.73  1967.48  1972.10  1973.40  1980.82
                             2001.55  2004.54  2051.43  2096.34  2109.61
                             2118.66  2120.81  2128.84  2131.53  2134.84
                             2142.10  2144.94  2165.64  2167.38  2217.82
                             2224.23  2251.73  2287.00  2326.12  2355.07
                             4240.58  4250.01  4280.72  4290.68  4309.65
                             4313.32  4350.53  4378.64  4386.37  4386.93
                             4398.41  4400.88  4425.62  4428.01  4437.54
                             4447.95  4452.73  4486.50  4499.34  4534.91
                             4556.70  4559.82

 Zero-point correction=                           0.373326 (Hartree/Particle)
 Thermal correction to Energy=                    0.395689
 Thermal correction to Enthalpy=                  0.396633
 Thermal correction to Gibbs Free Energy=         0.320617
 Sum of electronic and zero-point Energies=          -1035.250578
 Sum of electronic and thermal Energies=             -1035.228214
 Sum of electronic and thermal Enthalpies=           -1035.227270
 Sum of electronic and thermal Free Energies=        -1035.303287

                     E (Thermal)             CV                S
                      KCal/Mol        Cal/Mol-Kelvin    Cal/Mol-Kelvin
 Total                  248.299             87.845            159.990
 Electronic               0.000              0.000              0.000
 Translational            0.889              2.981             43.205
 Rotational               0.889              2.981             35.190
 Vibrational            246.521             81.884             81.594
 Vibration     1          0.593              1.987              7.538
 Vibration     2          0.593              1.984              5.973
 Vibration     3          0.594              1.981              5.200
 Vibration     4          0.595              1.978              4.863
 Vibration     5          0.596              1.975              4.542
 Vibration     6          0.600              1.963              3.883
 Vibration     7          0.603              1.951              3.500
 Vibration     8          0.605              1.947              3.402
 Vibration     9          0.614              1.918              2.862
 Vibration    10          0.620              1.897              2.613
 Vibration    11          0.629              1.869              2.347
 Vibration    12          0.649              1.805              1.929
 Vibration    13          0.651              1.800              1.903
 Vibration    14          0.651              1.799              1.899
 Vibration    15          0.661              1.768              1.752
 Vibration    16          0.665              1.757              1.707
 Vibration    17          0.667              1.750              1.679
 Vibration    18          0.673              1.731              1.607
 Vibration    19          0.677              1.720              1.566
 Vibration    20          0.710              1.623              1.278
 Vibration    21          0.723              1.586              1.191
 Vibration    22          0.745              1.525              1.062
 Vibration    23          0.758              1.492              1.001
 Vibration    24          0.760              1.486              0.990
 Vibration    25          0.763              1.477              0.975
 Vibration    26          0.782              1.430              0.896
 Vibration    27          0.790              1.407              0.862
 Vibration    28          0.797              1.389              0.836
 Vibration    29          0.804              1.372              0.811
 Vibration    30          0.826              1.318              0.740
 Vibration    31          0.829              1.311              0.731
 Vibration    32          0.847              1.268              0.679
 Vibration    33          0.854              1.252              0.661
 Vibration    34          0.863              1.234              0.640
 Vibration    35          0.954              1.040              0.456
 Vibration    36          0.967              1.015              0.436

 Optimization completed.
    -- Stationary point found.
 Normal termination of Gaussian 16 at Fri Dec 22 13:53:19 2023.
