 Q-Chem 5.4, Q-Chem, Inc., Pleasanton, CA (2021)
 Q-Chem 5.4.0 for Intel X86 EM64T Linux

User input:
--------------------------------------------------------------
$molecule
0 1
O                  1.5152390000     -3.0271490000      0.0814600000
C                  1.3033730000     -1.8252150000      0.0436020000
C                  2.4168630000     -0.8482070000     -0.0072290000
C                  3.7398600000     -1.3009190000     -0.0115660000
C                  4.7851530000     -0.3869550000     -0.0592270000
C                  4.5129650000      0.9835660000     -0.1028330000
C                  3.1990920000      1.4373160000     -0.0986880000
C                  2.1405870000      0.5240620000     -0.0507530000
C                  0.7374630000      1.0506870000     -0.0476370000
O                  0.5700650000      2.2608490000     -0.0885850000
C                 -0.3950640000      0.0706920000      0.0036300000
C                 -1.7773950000      0.4909910000      0.0102350000
C                 -2.2084370000      1.8481510000     -0.0293330000
C                 -3.5465350000      2.1711030000     -0.0199380000
C                 -4.5403350000      1.1714600000      0.0290810000
C                 -4.1670360000     -0.1484160000      0.0682740000
C                 -2.7980230000     -0.5191590000      0.0601690000
C                 -2.4353430000     -1.8883940000      0.1014710000
C                 -1.1225280000     -2.2680610000      0.0948260000
C                 -0.0978470000     -1.2955820000      0.0461120000
H                  3.9222820000     -2.3677710000      0.0227870000
H                  5.8111910000     -0.7367940000     -0.0626130000
H                  5.3289110000      1.6964860000     -0.1400570000
H                  2.9694680000      2.4946230000     -0.1320580000
H                 -1.4687280000      2.6296370000     -0.0671460000
H                 -3.8387050000      3.2148550000     -0.0509210000
H                 -5.5889430000      1.4464150000      0.0356420000
H                 -4.9143800000     -0.9337310000      0.1063080000
H                 -3.2219080000     -2.6349020000      0.1387660000
H                 -0.8313090000     -3.3096380000      0.1262240000
$end
$rem
MAX_SCF_CYCLES=200
BASIS  =  6-311++G(d,p)
GUI  =  2
JOB_TYPE  =  SP
METHOD  =  B3LYP
SOLVENT_METHOD = PCM
$end
$pcm
theory = CPCM
$end
$solvent
dielectric 37.219
opticaldielectric 1.43
$end

--------------------------------------------------------------

             Standard Nuclear Orientation (Angstroms)
    I     Atom           X                Y                Z
 ----------------------------------------------------------------
    1      O       1.5152390000    -3.0271490000     0.0814600000
    2      C       1.3033730000    -1.8252150000     0.0436020000
    3      C       2.4168630000    -0.8482070000    -0.0072290000
    4      C       3.7398600000    -1.3009190000    -0.0115660000
    5      C       4.7851530000    -0.3869550000    -0.0592270000
    6      C       4.5129650000     0.9835660000    -0.1028330000
    7      C       3.1990920000     1.4373160000    -0.0986880000
    8      C       2.1405870000     0.5240620000    -0.0507530000
    9      C       0.7374630000     1.0506870000    -0.0476370000
   10      O       0.5700650000     2.2608490000    -0.0885850000
   11      C      -0.3950640000     0.0706920000     0.0036300000
   12      C      -1.7773950000     0.4909910000     0.0102350000
   13      C      -2.2084370000     1.8481510000    -0.0293330000
   14      C      -3.5465350000     2.1711030000    -0.0199380000
   15      C      -4.5403350000     1.1714600000     0.0290810000
   16      C      -4.1670360000    -0.1484160000     0.0682740000
   17      C      -2.7980230000    -0.5191590000     0.0601690000
   18      C      -2.4353430000    -1.8883940000     0.1014710000
   19      C      -1.1225280000    -2.2680610000     0.0948260000
   20      C      -0.0978470000    -1.2955820000     0.0461120000
   21      H       3.9222820000    -2.3677710000     0.0227870000
   22      H       5.8111910000    -0.7367940000    -0.0626130000
   23      H       5.3289110000     1.6964860000    -0.1400570000
   24      H       2.9694680000     2.4946230000    -0.1320580000
   25      H      -1.4687280000     2.6296370000    -0.0671460000
   26      H      -3.8387050000     3.2148550000    -0.0509210000
   27      H      -5.5889430000     1.4464150000     0.0356420000
   28      H      -4.9143800000    -0.9337310000     0.1063080000
   29      H      -3.2219080000    -2.6349020000     0.1387660000
   30      H      -0.8313090000    -3.3096380000     0.1262240000
 ----------------------------------------------------------------

    8    -842.6381512516      9.62e-06  Convergence criterion met
 Total energy in the final basis set =     -842.6381512516

                    Orbital Energies (a.u.)
 --------------------------------------------------------------

 Alpha MOs
 -- Occupied --
-19.1329 -19.1301 -10.2857 -10.2837 -10.2170 -10.2123 -10.2104 -10.2069
-10.2055 -10.2044 -10.1969 -10.1963 -10.1960 -10.1954 -10.1947 -10.1910
-10.1875 -10.1868 -10.1861 -10.1815  -1.0685  -1.0664  -0.8995  -0.8866
 -0.8495  -0.8102  -0.7859  -0.7766  -0.7656  -0.7433  -0.6919  -0.6637
 -0.6494  -0.6269  -0.6155  -0.5852  -0.5687  -0.5482  -0.5227  -0.5144
 -0.5008  -0.4883  -0.4746  -0.4639  -0.4626  -0.4569  -0.4504  -0.4493
 -0.4335  -0.4284  -0.4218  -0.4215  -0.4068  -0.3967  -0.3798  -0.3781
 -0.3686  -0.3623  -0.3560  -0.3451  -0.3061  -0.2874  -0.2841  -0.2773
 -0.2718  -0.2677  -0.2420

          Ground-State Mulliken Net Atomic Charges

     Atom                 Charge (a.u.)
  ----------------------------------------
      1 O                    -0.273110
      2 C                    -0.786573
      3 C                     0.083229
      4 C                    -0.022823
      5 C                    -0.448632
      6 C                    -0.437010
      7 C                     0.081535
      8 C                     0.147686
      9 C                    -0.627349
     10 O                    -0.241742
     11 C                     0.777127
     12 C                     0.946884
     13 C                    -0.580174
     14 C                    -0.516506
     15 C                    -0.297945
     16 C                    -0.458109
     17 C                     0.520902
     18 C                    -0.467711
     19 C                    -0.177504
     20 C                     0.760209
     21 H                     0.194219
     22 H                     0.223612
     23 H                     0.223860
     24 H                     0.192299
     25 H                     0.154725
     26 H                     0.223698
     27 H                     0.212488
     28 H                     0.185348
     29 H                     0.216124
     30 H                     0.191242
  ----------------------------------------
  Sum of atomic charges =     0.000000

                    Cartesian Multipole Moments
 -----------------------------------------------------------------
    Charge (ESU x 10^10)
                -0.0000
    Dipole Moment (Debye)
         X      -0.8604      Y       0.5070      Z       0.0000
       Tot       0.9987
    Quadrupole Moments (Debye-Ang)
        XX     -75.9263     XY       6.3393     YY    -120.9902
        XZ      -0.8713     YZ      -0.0206     ZZ    -119.1380

 Total job time:  58.83s(wall), 435.77s(cpu)
        *  Thank you very much for using Q-Chem.  Have a nice day.  *
