 Gaussian 16, Revision A.03,
 Gaussian 16:  ES64L-G16RevA.03 25-Dec-2016

 --------------------------------------
 #P UB3LYP/6-311++G(d,p) nosym opt freq
 --------------------------------------

 --------
 Oxidized
 --------
 Symbolic Z-matrix:
 Charge =  0 Multiplicity = 1

 SCF Done:  E(UB3LYP) =  -842.625472832     A.U. after   15 cycles
 SCF Done:  E(UB3LYP) =  -842.625472869     A.U. after    9 cycles
 SCF Done:  E(UB3LYP) =  -842.625472804     A.U. after    9 cycles
 Optimization completed.
    -- Stationary point found.
 Normal termination of Gaussian 16 at Wed Dec 27 19:55:20 2023.

 ----------------------------------------------------------------------
 #P Geom=AllCheck Guess=TCheck SCRF=Check GenChk UB3LYP/6-311++G(d,p) F
 req
 ----------------------------------------------------------------------

 Structure from the checkpoint file:  "133.chk"
 --------
 Oxidized
 --------
 Charge =  0 Multiplicity = 1

                          Input orientation:
 ---------------------------------------------------------------------
 Center     Atomic      Atomic             Coordinates (Angstroms)
 Number     Number       Type             X           Y           Z
 ---------------------------------------------------------------------
      1          8           0        1.515239   -3.027149    0.081460
      2          6           0        1.303373   -1.825215    0.043602
      3          6           0        2.416863   -0.848207   -0.007229
      4          6           0        3.739860   -1.300919   -0.011566
      5          6           0        4.785153   -0.386955   -0.059227
      6          6           0        4.512965    0.983566   -0.102833
      7          6           0        3.199092    1.437316   -0.098688
      8          6           0        2.140587    0.524062   -0.050753
      9          6           0        0.737463    1.050687   -0.047637
     10          8           0        0.570065    2.260849   -0.088585
     11          6           0       -0.395064    0.070692    0.003630
     12          6           0       -1.777395    0.490991    0.010235
     13          6           0       -2.208437    1.848151   -0.029333
     14          6           0       -3.546535    2.171103   -0.019938
     15          6           0       -4.540335    1.171460    0.029081
     16          6           0       -4.167036   -0.148416    0.068274
     17          6           0       -2.798023   -0.519159    0.060169
     18          6           0       -2.435343   -1.888394    0.101471
     19          6           0       -1.122528   -2.268061    0.094826
     20          6           0       -0.097847   -1.295582    0.046112
     21          1           0        3.922282   -2.367771    0.022787
     22          1           0        5.811191   -0.736794   -0.062613
     23          1           0        5.328911    1.696486   -0.140057
     24          1           0        2.969468    2.494623   -0.132058
     25          1           0       -1.468728    2.629637   -0.067146
     26          1           0       -3.838705    3.214855   -0.050921
     27          1           0       -5.588943    1.446415    0.035642
     28          1           0       -4.914380   -0.933731    0.106308
     29          1           0       -3.221908   -2.634902    0.138766
     30          1           0       -0.831309   -3.309638    0.126224
 ---------------------------------------------------------------------

 SCF Done:  E(UB3LYP) =  -842.625472804     A.U. after    1 cycles

 Alpha  occ. eigenvalues --  -19.12696 -19.12580 -10.28174 -10.27813 -10.21681
 Alpha  occ. eigenvalues --  -10.21177 -10.21094 -10.20776 -10.20664 -10.20620
 Alpha  occ. eigenvalues --  -10.20141 -10.20084 -10.20034 -10.19842 -10.19727
 Alpha  occ. eigenvalues --  -10.19263 -10.19260 -10.19196 -10.18916 -10.18246
 Alpha  occ. eigenvalues --   -1.06248  -1.06043  -0.90035  -0.88832  -0.85099
 Alpha  occ. eigenvalues --   -0.81208  -0.78813  -0.77835  -0.76730  -0.74562
 Alpha  occ. eigenvalues --   -0.69187  -0.66622  -0.65140  -0.62923  -0.61850
 Alpha  occ. eigenvalues --   -0.58583  -0.57125  -0.54903  -0.52514  -0.51764
 Alpha  occ. eigenvalues --   -0.50026  -0.49174  -0.47795  -0.46512  -0.45732
 Alpha  occ. eigenvalues --   -0.45454  -0.45245  -0.45034  -0.43538  -0.42916
 Alpha  occ. eigenvalues --   -0.42415  -0.41596  -0.40720  -0.40108  -0.38370
 Alpha  occ. eigenvalues --   -0.37833  -0.37202  -0.36517  -0.35893  -0.34471
 Alpha  occ. eigenvalues --   -0.30620  -0.28490  -0.28110  -0.27838  -0.26818
 Alpha  occ. eigenvalues --   -0.26756  -0.24310
 Alpha virt. eigenvalues --   -0.12105  -0.07118  -0.05491  -0.03277  -0.01287
 Alpha virt. eigenvalues --   -0.00988  -0.00668   0.00445   0.01197   0.01434
 Alpha virt. eigenvalues --    0.02307   0.02620   0.03186   0.03675   0.03766

  Beta  occ. eigenvalues --  -19.12696 -19.12580 -10.28174 -10.27813 -10.21681
  Beta  occ. eigenvalues --  -10.21177 -10.21094 -10.20776 -10.20664 -10.20620
  Beta  occ. eigenvalues --  -10.20141 -10.20084 -10.20034 -10.19842 -10.19727
  Beta  occ. eigenvalues --  -10.19263 -10.19260 -10.19196 -10.18916 -10.18246
  Beta  occ. eigenvalues --   -1.06248  -1.06043  -0.90035  -0.88832  -0.85099
  Beta  occ. eigenvalues --   -0.81208  -0.78813  -0.77835  -0.76730  -0.74562
  Beta  occ. eigenvalues --   -0.69187  -0.66622  -0.65140  -0.62923  -0.61850
  Beta  occ. eigenvalues --   -0.58583  -0.57125  -0.54903  -0.52514  -0.51764
  Beta  occ. eigenvalues --   -0.50026  -0.49174  -0.47795  -0.46512  -0.45732
  Beta  occ. eigenvalues --   -0.45454  -0.45245  -0.45034  -0.43538  -0.42916
  Beta  occ. eigenvalues --   -0.42415  -0.41596  -0.40720  -0.40108  -0.38370
  Beta  occ. eigenvalues --   -0.37833  -0.37202  -0.36517  -0.35893  -0.34471
  Beta  occ. eigenvalues --   -0.30620  -0.28490  -0.28110  -0.27838  -0.26818
  Beta  occ. eigenvalues --   -0.26756  -0.24310
  Beta virt. eigenvalues --   -0.12105  -0.07118  -0.05491  -0.03277  -0.01287
  Beta virt. eigenvalues --   -0.00988  -0.00668   0.00445   0.01197   0.01434
  Beta virt. eigenvalues --    0.02307   0.02620   0.03186   0.03675   0.03766

 Mulliken charges and spin densities:
               1          2
     1  O   -0.199681  -0.000000
     2  C   -0.921201   0.000000
     3  C    0.131946   0.000000
     4  C   -0.020916  -0.000000
     5  C   -0.395532   0.000000
     6  C   -0.374343  -0.000000
     7  C    0.061455  -0.000000
     8  C    0.194512   0.000000
     9  C   -0.699342  -0.000000
    10  O   -0.177084  -0.000000
    11  C    0.743128  -0.000000
    12  C    0.984584  -0.000000
    13  C   -0.564032  -0.000000
    14  C   -0.488607  -0.000000
    15  C   -0.244676  -0.000000
    16  C   -0.433117  -0.000000
    17  C    0.564377   0.000000
    18  C   -0.422383  -0.000000
    19  C   -0.188328  -0.000000
    20  C    0.764634   0.000000
    21  H    0.181634   0.000000
    22  H    0.175798   0.000000
    23  H    0.177470  -0.000000
    24  H    0.177888   0.000000
    25  H    0.150142  -0.000000
    26  H    0.182300   0.000000
    27  H    0.167122  -0.000000
    28  H    0.131369  -0.000000
    29  H    0.158868   0.000000
    30  H    0.182012  -0.000000
 Sum of Mulliken charges =  -0.00000  -0.00000

 Dipole moment (field-independent basis, Debye):
    X=             -0.5404    Y=              0.4953    Z=             -0.0059  Tot=              0.7330
 Quadrupole moment (field-independent basis, Debye-Ang):
   XX=            -86.4861   YY=           -119.3435   ZZ=           -118.9350
   XY=              4.5503   XZ=             -0.6483   YZ=             -0.0443

  Exact polarizability: 338.500 -19.562 242.291  -2.959  -4.621  99.736
 Approx polarizability: 492.952 -37.982 493.509  -3.690 -10.803 164.152

                      1                      2                      3
                      A                      A                      A
 Frequencies --     17.0096                48.4901                98.4148
 Red. masses --      8.2208                 5.4062                 5.2579
 Frc consts  --      0.0014                 0.0075                 0.0300
 IR Inten    --      4.3154                 0.7041                 1.1224

                      4                      5                      6
                      A                      A                      A
 Frequencies --    111.5733               172.1354               177.0230
 Red. masses --      4.9066                 5.5754                 5.3672
 Frc consts  --      0.0360                 0.0973                 0.0991
 IR Inten    --      0.2869                 0.0625                 0.9687

                      7                      8                      9
                      A                      A                      A
 Frequencies --    201.2187               267.8578               286.8808
 Red. masses --      4.6437                 5.1248                 6.1190
 Frc consts  --      0.1108                 0.2166                 0.2967
 IR Inten    --      2.1521                 0.2520                 0.1537

                     10                     11                     12
                      A                      A                      A
 Frequencies --    318.2824               360.2138               400.8378
 Red. masses --      7.6441                 7.7586                 3.7678
 Frc consts  --      0.4563                 0.5931                 0.3567
 IR Inten    --      0.1691                 1.3791                 0.2234

                     13                     14                     15
                      A                      A                      A
 Frequencies --    403.1157               425.6739               441.1499
 Red. masses --     10.6606                 3.3821                 6.2117
 Frc consts  --      1.0207                 0.3611                 0.7123
 IR Inten    --     18.1746                 0.0351                10.2022

                     16                     17                     18
                      A                      A                      A
 Frequencies --    450.3414               475.6826               502.6930
 Red. masses --      4.2720                11.9781                 3.8626
 Frc consts  --      0.5105                 1.5969                 0.5751
 IR Inten    --      0.9927                 1.5863                 0.2268

                     19                     20                     21
                      A                      A                      A
 Frequencies --    519.7900               540.4224               568.6936
 Red. masses --      3.3994                 7.1078                 7.1420
 Frc consts  --      0.5411                 1.2231                 1.3609
 IR Inten    --     18.9933                 0.3057                 8.2697

                     22                     23                     24
                      A                      A                      A
 Frequencies --    624.4030               642.0907               672.4805
 Red. masses --      4.4457                 6.8033                 6.7272
 Frc consts  --      1.0212                 1.6526                 1.7924
 IR Inten    --      0.0083                12.1050                 4.6931

                     25                     26                     27
                      A                      A                      A
 Frequencies --    688.4583               703.0782               730.0388
 Red. masses --      7.0945                 4.6203                 1.9497
 Frc consts  --      1.9812                 1.3456                 0.6122
 IR Inten    --      0.9617                 0.4789                25.2653

                     28                     29                     30
                      A                      A                      A
 Frequencies --    753.1037               763.7621               771.7297
 Red. masses --      6.5431                 2.4810                 1.6448
 Frc consts  --      2.1865                 0.8527                 0.5772
 IR Inten    --      0.2071                17.2121                77.3650

                     31                     32                     33
                      A                      A                      A
 Frequencies --    800.1558               811.7859               812.7633
 Red. masses --      5.4422                 5.9053                 1.9707
 Frc consts  --      2.0529                 2.2929                 0.7670
 IR Inten    --      1.5227                12.7434                 0.0018

                     34                     35                     36
                      A                      A                      A
 Frequencies --    859.1342               871.6428               891.7434
 Red. masses --      1.4443                 5.9071                 1.5369
 Frc consts  --      0.6281                 2.6442                 0.7201
 IR Inten    --     33.4419                19.9500                 7.2123

                     37                     38                     39
                      A                      A                      A
 Frequencies --    915.1054               916.4647               984.3096
 Red. masses --      1.3810                 6.7757                 1.3354
 Frc consts  --      0.6814                 3.3530                 0.7623
 IR Inten    --      0.0997                 0.5337                 1.4923

                     40                     41                     42
                      A                      A                      A
 Frequencies --   1001.0833              1002.2666              1010.5281
 Red. masses --      6.3341                 1.3749                 1.3219
 Frc consts  --      3.7400                 0.8138                 0.7953
 IR Inten    --     78.0231                 1.6825                 0.0902

                     43                     44                     45
                      A                      A                      A
 Frequencies --   1016.0053              1017.6742              1053.4467
 Red. masses --      1.3007                 1.3245                 2.2916
 Frc consts  --      0.7911                 0.8082                 1.4983
 IR Inten    --      0.6325                 0.0007                11.4845

                     46                     47                     48
                      A                      A                      A
 Frequencies --   1059.7653              1076.6486              1116.2083
 Red. masses --      2.3582                 3.2871                 2.1075
 Frc consts  --      1.5604                 2.2449                 1.5471
 IR Inten    --     10.4498                19.7221                 3.4359

                     49                     50                     51
                      A                      A                      A
 Frequencies --   1170.3589              1176.9112              1185.9037
 Red. masses --      1.4073                 1.4142                 1.2679
 Frc consts  --      1.1358                 1.1541                 1.0506
 IR Inten    --      2.1530                11.4429                 1.7636

                     52                     53                     54
                      A                      A                      A
 Frequencies --   1186.6693              1202.4852              1230.4385
 Red. masses --      1.3451                 1.9193                 2.0651
 Frc consts  --      1.1160                 1.6351                 1.8421
 IR Inten    --     19.5788                14.8315                46.7381

                     55                     56                     57
                      A                      A                      A
 Frequencies --   1245.9387              1285.0593              1296.2120
 Red. masses --      2.0559                 1.9881                 2.2178
 Frc consts  --      1.8804                 1.9344                 2.1955
 IR Inten    --     18.9977               132.8562               214.1094

                     58                     59                     60
                      A                      A                      A
 Frequencies --   1318.0770              1359.9245              1363.2026
 Red. masses --      3.1055                 6.7369                 5.1824
 Frc consts  --      3.1788                 7.3408                 5.6742
 IR Inten    --    312.0503                 6.0491                 3.0805

                     61                     62                     63
                      A                      A                      A
 Frequencies --   1384.7355              1401.2669              1456.6501
 Red. masses --      5.7387                 4.1550                 2.1356
 Frc consts  --      6.4833                 4.8069                 2.6698
 IR Inten    --     12.5849                33.3986                16.0898

                     64                     65                     66
                      A                      A                      A
 Frequencies --   1479.8188              1488.8153              1509.5313
 Red. masses --      2.3399                 2.3148                 2.5911
 Frc consts  --      3.0190                 3.0230                 3.4787
 IR Inten    --      3.1352                48.7817                 1.7653

                     67                     68                     69
                      A                      A                      A
 Frequencies --   1540.9015              1591.1416              1620.2777
 Red. masses --      3.3132                 7.4977                 7.1297
 Frc consts  --      4.6350                11.1839                11.0281
 IR Inten    --     19.0421                10.7660                 4.0761

                     70                     71                     72
                      A                      A                      A
 Frequencies --   1626.9759              1630.9208              1652.4480
 Red. masses --      5.9632                 5.9581                 5.5819
 Frc consts  --      9.3001                 9.3374                 8.9802
 IR Inten    --     97.4134                 2.1645                 0.9252

                     73                     74                     75
                      A                      A                      A
 Frequencies --   1706.0936              1719.5550              3161.8543
 Red. masses --     12.0528                12.2905                 1.0868
 Frc consts  --     20.6702                21.4117                 6.4016
 IR Inten    --     31.6984               304.4562                 0.0686

                     76                     77                     78
                      A                      A                      A
 Frequencies --   3166.9142              3170.0431              3172.8773
 Red. masses --      1.0894                 1.0871                 1.0908
 Frc consts  --      6.4371                 6.4364                 6.4698
 IR Inten    --      4.7983                 3.5460                18.8629

                     79                     80                     81
                      A                      A                      A
 Frequencies --   3184.7190              3187.4755              3201.8101
 Red. masses --      1.0922                 1.0968                 1.0932
 Frc consts  --      6.5266                 6.5653                 6.6029
 IR Inten    --     13.0128                23.8797                 3.5648

                     82                     83                     84
                      A                      A                      A
 Frequencies --   3205.9424              3208.7976              3261.5302
 Red. masses --      1.0936                 1.0929                 1.0916
 Frc consts  --      6.6227                 6.6297                 6.8415
 IR Inten    --      9.5192                 5.0957                16.0503

 - Thermochemistry -
 -------------------
 Temperature   298.150 Kelvin.  Pressure   1.00000 Atm.
 Atom     1 has atomic number  8 and mass  15.99491

 Molecular mass:   258.06808 amu.
 Principal axes and moments of inertia in atomic units:
                           1         2         3
     Eigenvalues --  2255.794917412.829479668.62361
           X            0.99352   0.11267   0.01523
           Y           -0.11314   0.99298   0.03450
           Z           -0.01123  -0.03600   0.99929
 This molecule is an asymmetric top.
 Rotational symmetry number  1.
 Warning -- assumption of classical behavior for rotation
           may cause significant error
 Rotational temperatures (Kelvin)      0.03840     0.01168     0.00896
 Rotational constants (GHZ):           0.80005     0.24346     0.18666
 Zero-point vibrational energy     592783.4 (Joules/Mol)
                                  141.67864 (Kcal/Mol)
 Warning -- explicit consideration of  21 degrees of freedom as
           vibrations may cause significant error
 Vibrational temperatures:     24.47    69.77   141.60   160.53   247.66
          (Kelvin)            254.70   289.51   385.39   412.76   457.94
                              518.27   576.72   579.99   612.45   634.72
                              647.94   684.40   723.26   747.86   777.55
                              818.22   898.38   923.83   967.55   990.54
                             1011.57  1050.36  1083.55  1098.88  1110.35
                             1151.25  1167.98  1169.39  1236.10  1254.10
                             1283.02  1316.63  1318.59  1416.20  1440.34
                             1442.04  1453.92  1461.80  1464.21  1515.67
                             1524.77  1549.06  1605.97  1683.89  1693.31
                             1706.25  1707.35  1730.11  1770.33  1792.63
                             1848.91  1864.96  1896.42  1956.63  1961.34
                             1992.33  2016.11  2095.79  2129.13  2142.07
                             2171.88  2217.01  2289.30  2331.22  2340.86
                             2346.53  2377.50  2454.69  2474.06  4549.20
                             4556.48  4560.98  4565.06  4582.10  4586.07
                             4606.69  4612.64  4616.74  4692.61

 Zero-point correction=                           0.225779 (Hartree/Particle)
 Thermal correction to Energy=                    0.239771
 Thermal correction to Enthalpy=                  0.240715
 Thermal correction to Gibbs Free Energy=         0.183746
 Sum of electronic and zero-point Energies=           -842.399694
 Sum of electronic and thermal Energies=              -842.385702
 Sum of electronic and thermal Enthalpies=            -842.384757
 Sum of electronic and thermal Free Energies=         -842.441727

                     E (Thermal)             CV                S
                      KCal/Mol        Cal/Mol-Kelvin    Cal/Mol-Kelvin
 Total                  150.459             57.473            119.903
 Electronic               0.000              0.000              0.000
 Translational            0.889              2.981             42.544
 Rotational               0.889              2.981             33.447
 Vibrational            148.681             51.512             43.912
 Vibration     1          0.593              1.986              6.956
 Vibration     2          0.595              1.978              4.878
 Vibration     3          0.604              1.950              3.485
 Vibration     4          0.607              1.940              3.241
 Vibration     5          0.626              1.877              2.412
 Vibration     6          0.628              1.871              2.360
 Vibration     7          0.638              1.838              2.122
 Vibration     8          0.673              1.732              1.610
 Vibration     9          0.684              1.698              1.492
 Vibration    10          0.705              1.639              1.319
 Vibration    11          0.735              1.554              1.121
 Vibration    12          0.767              1.468              0.960
 Vibration    13          0.769              1.463              0.951
 Vibration    14          0.788              1.414              0.873
 Vibration    15          0.801              1.380              0.823
 Vibration    16          0.809              1.360              0.795
 Vibration    17          0.832              1.304              0.722
 Vibration    18          0.858              1.244              0.651
 Vibration    19          0.875              1.206              0.610
 Vibration    20          0.895              1.161              0.564
 Vibration    21          0.925              1.099              0.507

                           ! Non-Optimized Parameters !
 Normal termination of Gaussian 16 at Wed Dec 27 20:41:26 2023.
