 Gaussian 16, Revision A.03,
 Gaussian 16:  ES64L-G16RevA.03 25-Dec-2016

 --------------------------------------
 #P UB3LYP/6-311++G(d,p) nosym opt freq
 --------------------------------------

 --------
 Oxidized
 --------
 Symbolic Z-matrix:
 Charge =  0 Multiplicity = 1

 SCF Done:  E(UB3LYP) =  -918.057375269     A.U. after   15 cycles
 SCF Done:  E(UB3LYP) =  -918.097313798     A.U. after   14 cycles
 SCF Done:  E(UB3LYP) =  -918.119203108     A.U. after   14 cycles
 SCF Done:  E(UB3LYP) =  -918.126795212     A.U. after   14 cycles
 SCF Done:  E(UB3LYP) =  -918.127244062     A.U. after   13 cycles
 SCF Done:  E(UB3LYP) =  -918.127361539     A.U. after   12 cycles
 SCF Done:  E(UB3LYP) =  -918.127410085     A.U. after   12 cycles
 SCF Done:  E(UB3LYP) =  -918.127424217     A.U. after   12 cycles
 SCF Done:  E(UB3LYP) =  -918.127428520     A.U. after   10 cycles
 SCF Done:  E(UB3LYP) =  -918.127434907     A.U. after   10 cycles
 SCF Done:  E(UB3LYP) =  -918.127441318     A.U. after   10 cycles
 SCF Done:  E(UB3LYP) =  -918.127446994     A.U. after   10 cycles
 SCF Done:  E(UB3LYP) =  -918.127453980     A.U. after   11 cycles
 SCF Done:  E(UB3LYP) =  -918.127456709     A.U. after   10 cycles
 SCF Done:  E(UB3LYP) =  -918.127457259     A.U. after    9 cycles
 Optimization completed.
    -- Stationary point found.
 Normal termination of Gaussian 16 at Thu Dec 21 21:30:02 2023.

 ----------------------------------------------------------------------
 #P Geom=AllCheck Guess=TCheck SCRF=Check GenChk UB3LYP/6-311++G(d,p) F
 req
 ----------------------------------------------------------------------

 Structure from the checkpoint file:  "197.chk"
 --------
 Oxidized
 --------
 Charge =  0 Multiplicity = 1

                          Input orientation:
 ---------------------------------------------------------------------
 Center     Atomic      Atomic             Coordinates (Angstroms)
 Number     Number       Type             X           Y           Z
 ---------------------------------------------------------------------
      1          6           0       -3.999737   -1.043702    0.222039
      2          6           0       -2.651004   -0.376577    0.251740
      3          6           0       -2.484314    0.986066    0.456870
      4          6           0       -3.657859    1.911636    0.667290
      5          6           0       -1.168611    1.537697    0.471033
      6          8           0       -1.051812    2.857231    0.672975
      7          6           0       -0.041480    0.722296    0.279696
      8          6           0        1.290611    1.313684    0.298985
      9          8           0        1.462929    2.532962    0.481996
     10          6           0        2.458525    0.421918    0.093465
     11          6           0        3.748067    0.963669    0.107648
     12          6           0        4.851859    0.141565   -0.083338
     13          6           0        4.678726   -1.230328   -0.290481
     14          6           0        3.401860   -1.777932   -0.306300
     15          6           0        2.284475   -0.958561   -0.114988
     16          6           0        0.927876   -1.557503   -0.134491
     17          8           0        0.786393   -2.779904   -0.319929
     18          6           0       -0.216526   -0.677338    0.068333
     19          6           0       -1.512738   -1.209873    0.056357
     20          8           0       -1.745465   -2.515164   -0.137175
     21          1           0       -4.052244   -1.831078    0.979318
     22          1           0       -4.159911   -1.537548   -0.740840
     23          1           0       -4.812272   -0.341337    0.392348
     24          1           0       -4.233302    1.622200    1.551397
     25          1           0       -3.321322    2.936557    0.802064
     26          1           0       -4.338235    1.884777   -0.188665
     27          1           0       -0.080372    3.065395    0.651743
     28          1           0        3.859871    2.028309    0.269657
     29          1           0        5.849387    0.565770   -0.071545
     30          1           0        5.542107   -1.868769   -0.439118
     31          1           0        3.244943   -2.837406   -0.464965
     32          1           0       -0.860425   -2.948710   -0.254673
 ---------------------------------------------------------------------

 SCF Done:  E(UB3LYP) =  -918.127457259     A.U. after    1 cycles

 Alpha  occ. eigenvalues --  -19.15874 -19.15744 -19.13298 -19.13296 -10.28332
 Alpha  occ. eigenvalues --  -10.28325 -10.26406 -10.26268 -10.21239 -10.21188
 Alpha  occ. eigenvalues --  -10.21173 -10.21077 -10.20486 -10.20442 -10.20433
 Alpha  occ. eigenvalues --  -10.20399 -10.20173 -10.20166 -10.17946 -10.17840
 Alpha  occ. eigenvalues --   -1.08882  -1.08704  -1.05498  -1.05351  -0.89720
 Alpha  occ. eigenvalues --   -0.88141  -0.83245  -0.78873  -0.78450  -0.77516
 Alpha  occ. eigenvalues --   -0.73772  -0.71484  -0.68083  -0.65455  -0.64859
 Alpha  occ. eigenvalues --   -0.63009  -0.60266  -0.57085  -0.55502  -0.53859
 Alpha  occ. eigenvalues --   -0.53480  -0.50477  -0.49341  -0.48463  -0.47390
 Alpha  occ. eigenvalues --   -0.46540  -0.46019  -0.45552  -0.45077  -0.44615
 Alpha  occ. eigenvalues --   -0.43690  -0.42946  -0.42752  -0.41786  -0.40901
 Alpha  occ. eigenvalues --   -0.39571  -0.39433  -0.39274  -0.38599  -0.37981
 Alpha  occ. eigenvalues --   -0.37777  -0.37467  -0.37050  -0.32601  -0.29398
 Alpha  occ. eigenvalues --   -0.28877  -0.28270  -0.27787  -0.27015  -0.22894
 Alpha virt. eigenvalues --   -0.12052  -0.07122  -0.03996  -0.01418  -0.01310
 Alpha virt. eigenvalues --   -0.00869   0.00895   0.01151   0.01477   0.02312
 Alpha virt. eigenvalues --    0.02965   0.03140   0.03436   0.03682   0.04220

  Beta  occ. eigenvalues --  -19.15874 -19.15744 -19.13298 -19.13296 -10.28332
  Beta  occ. eigenvalues --  -10.28325 -10.26406 -10.26268 -10.21239 -10.21188
  Beta  occ. eigenvalues --  -10.21173 -10.21077 -10.20486 -10.20442 -10.20433
  Beta  occ. eigenvalues --  -10.20399 -10.20173 -10.20166 -10.17946 -10.17840
  Beta  occ. eigenvalues --   -1.08882  -1.08704  -1.05498  -1.05351  -0.89720
  Beta  occ. eigenvalues --   -0.88141  -0.83245  -0.78873  -0.78450  -0.77516
  Beta  occ. eigenvalues --   -0.73772  -0.71484  -0.68083  -0.65455  -0.64859
  Beta  occ. eigenvalues --   -0.63009  -0.60266  -0.57085  -0.55502  -0.53859
  Beta  occ. eigenvalues --   -0.53480  -0.50477  -0.49341  -0.48463  -0.47390
  Beta  occ. eigenvalues --   -0.46540  -0.46019  -0.45552  -0.45077  -0.44615
  Beta  occ. eigenvalues --   -0.43690  -0.42946  -0.42752  -0.41786  -0.40901
  Beta  occ. eigenvalues --   -0.39571  -0.39433  -0.39274  -0.38599  -0.37981
  Beta  occ. eigenvalues --   -0.37777  -0.37467  -0.37050  -0.32601  -0.29398
  Beta  occ. eigenvalues --   -0.28877  -0.28270  -0.27787  -0.27015  -0.22894
  Beta virt. eigenvalues --   -0.12052  -0.07122  -0.03996  -0.01418  -0.01310
  Beta virt. eigenvalues --   -0.00869   0.00895   0.01151   0.01477   0.02312
  Beta virt. eigenvalues --    0.02965   0.03140   0.03436   0.03682   0.04220

 Mulliken charges and spin densities:
               1          2
     1  C   -0.553506   0.000000
     2  C    0.519915  -0.000000
     3  C    0.350547   0.000000
     4  C   -0.541471   0.000000
     5  C   -0.528202  -0.000000
     6  O   -0.324656   0.000000
     7  C    0.458304   0.000000
     8  C   -0.537308  -0.000000
     9  O   -0.295737   0.000000
    10  C    0.344611   0.000000
    11  C    0.084634   0.000000
    12  C   -0.354866   0.000000
    13  C   -0.314431  -0.000000
    14  C    0.132155  -0.000000
    15  C   -0.005089  -0.000000
    16  C   -0.607153   0.000000
    17  O   -0.290374  -0.000000
    18  C    0.513012  -0.000000
    19  C   -0.289199  -0.000000
    20  O   -0.295409   0.000000
    21  H    0.188124   0.000000
    22  H    0.189352   0.000000
    23  H    0.156655  -0.000000
    24  H    0.167989   0.000000
    25  H    0.195063   0.000000
    26  H    0.167433  -0.000000
    27  H    0.377064  -0.000000
    28  H    0.190558  -0.000000
    29  H    0.177018  -0.000000
    30  H    0.177891   0.000000
    31  H    0.189376  -0.000000
    32  H    0.357699  -0.000000
 Sum of Mulliken charges =  -0.00000  -0.00000

 Dipole moment (field-independent basis, Debye):
    X=              0.5741    Y=             -0.1517    Z=             -0.0553  Tot=              0.5964
 Quadrupole moment (field-independent basis, Debye-Ang):
   XX=            -90.3150   YY=           -127.7060   ZZ=           -117.6208
   XY=             -4.2689   XZ=             -2.0864   YZ=             -1.4038

  Exact polarizability: 336.847 -10.932 221.794 -14.830  19.781 104.465
 Approx polarizability: 506.741  -5.521 421.572 -19.861  40.980 171.950

 ******    1 imaginary frequencies (negative Signs) ******

                      1                      2                      3
                      A                      A                      A
 Frequencies --    -13.7882                42.7044                76.1491
 Red. masses --      1.0476                 5.3482                 2.5260
 Frc consts  --      0.0001                 0.0057                 0.0086
 IR Inten    --      0.0357                 3.0498                 0.0446

                      4                      5                      6
                      A                      A                      A
 Frequencies --     97.9346               118.2294               130.4441
 Red. masses --      1.4506                 6.4230                 3.2653
 Frc consts  --      0.0082                 0.0529                 0.0327
 IR Inten    --      0.0660                 0.0028                 0.0027

                      7                      8                      9
                      A                      A                      A
 Frequencies --    158.3071               161.8592               189.4496
 Red. masses --      7.5630                 4.1930                 4.6262
 Frc consts  --      0.1117                 0.0647                 0.0978
 IR Inten    --      0.9213                 0.0274                 0.1234

                     10                     11                     12
                      A                      A                      A
 Frequencies --    226.7441               296.5161               305.3580
 Red. masses --      6.5272                 4.2143                 4.9049
 Frc consts  --      0.1977                 0.2183                 0.2695
 IR Inten    --      0.1935                 0.2222                 0.0663

                     13                     14                     15
                      A                      A                      A
 Frequencies --    314.1112               348.3773               370.7336
 Red. masses --      4.4027                 3.2306                 5.1297
 Frc consts  --      0.2559                 0.2310                 0.4154
 IR Inten    --      4.4956                 1.5708                 6.3226

                     16                     17                     18
                      A                      A                      A
 Frequencies --    386.2696               400.0285               410.5024
 Red. masses --      7.8184                 8.4033                 6.1396
 Frc consts  --      0.6873                 0.7923                 0.6096
 IR Inten    --      3.4498                 0.0031                 6.5779

                     19                     20                     21
                      A                      A                      A
 Frequencies --    428.0483               438.4292               458.9725
 Red. masses --      3.4096                 8.7593                 4.9148
 Frc consts  --      0.3681                 0.9920                 0.6100
 IR Inten    --      2.3467                19.4139                 0.0125

                     22                     23                     24
                      A                      A                      A
 Frequencies --    462.0882               517.3773               529.1036
 Red. masses --     11.1756                10.2010                 4.9798
 Frc consts  --      1.4060                 1.6088                 0.8214
 IR Inten    --     17.0956                 0.8032                 0.0020

                     25                     26                     27
                      A                      A                      A
 Frequencies --    545.7370               551.5251               649.8281
 Red. masses --      5.7785                 6.8923                 6.7442
 Frc consts  --      1.0140                 1.2352                 1.6779
 IR Inten    --      6.5851                 2.3156                 9.5440

                     28                     29                     30
                      A                      A                      A
 Frequencies --    659.6830               678.3615               697.8293
 Red. masses --      5.8363                 5.1188                 4.6467
 Frc consts  --      1.4964                 1.3878                 1.3332
 IR Inten    --      1.6296                 0.0006                 6.4289

                     31                     32                     33
                      A                      A                      A
 Frequencies --    712.8499               741.4594               743.5391
 Red. masses --      6.2901                 2.2471                 5.6987
 Frc consts  --      1.8832                 0.7279                 1.8562
 IR Inten    --      0.0093                43.0369                 2.3426

                     34                     35                     36
                      A                      A                      A
 Frequencies --    765.9350               778.5024               811.5552
 Red. masses --      5.5693                 5.8628                 1.9235
 Frc consts  --      1.9250                 2.0935                 0.7464
 IR Inten    --      1.2302                 0.0489                35.5415

                     37                     38                     39
                      A                      A                      A
 Frequencies --    844.7289               850.1969               884.9031
 Red. masses --      1.0858                 1.0934                 4.8156
 Frc consts  --      0.4565                 0.4657                 2.2217
 IR Inten    --     49.2845               121.4511                 0.4851

                     40                     41                     42
                      A                      A                      A
 Frequencies --    914.1825               946.9008               970.2712
 Red. masses --      1.3632                 4.7649                 2.3936
 Frc consts  --      0.6712                 2.5172                 1.3277
 IR Inten    --      0.0000                 7.9459                32.0454

                     43                     44                     45
                      A                      A                      A
 Frequencies --   1002.1267              1017.9858              1035.7496
 Red. masses --      1.3796                 1.3249                 1.4378
 Frc consts  --      0.8163                 0.8090                 0.9088
 IR Inten    --      1.4492                 0.0000                 0.9885

                     46                     47                     48
                      A                      A                      A
 Frequencies --   1037.8639              1061.4481              1065.1456
 Red. masses --      2.4712                 1.5726                 1.8989
 Frc consts  --      1.5683                 1.0439                 1.2693
 IR Inten    --     56.1753                 0.0131                 6.6321

                     49                     50                     51
                      A                      A                      A
 Frequencies --   1090.6157              1114.3528              1123.3175
 Red. masses --      5.7651                 2.1360                 2.0368
 Frc consts  --      4.0401                 1.5627                 1.5143
 IR Inten    --     32.8710                62.0089                 0.8370

                     52                     53                     54
                      A                      A                      A
 Frequencies --   1163.8378              1186.0195              1229.8013
 Red. masses --      3.1968                 1.2366                 2.3085
 Frc consts  --      2.5513                 1.0248                 2.0571
 IR Inten    --      5.6914                11.2682                23.3798

                     55                     56                     57
                      A                      A                      A
 Frequencies --   1271.0496              1292.9876              1299.2258
 Red. masses --      3.4983                 1.9723                 9.5156
 Frc consts  --      3.3299                 1.9428                 9.4636
 IR Inten    --    308.0862                58.0463               278.7545

                     58                     59                     60
                      A                      A                      A
 Frequencies --   1355.0306              1357.0500              1382.2695
 Red. masses --      6.8066                 2.3763                 3.5153
 Frc consts  --      7.3634                 2.5784                 3.9573
 IR Inten    --     30.0467                69.1214               410.6683

                     61                     62                     63
                      A                      A                      A
 Frequencies --   1400.3304              1411.3174              1417.7789
 Red. masses --      3.5185                 1.3774                 1.3516
 Frc consts  --      4.0651                 1.6164                 1.6007
 IR Inten    --     77.1964               139.6456                 8.4995

                     64                     65                     66
                      A                      A                      A
 Frequencies --   1427.0415              1443.5617              1477.9927
 Red. masses --      3.0949                 2.8069                 1.0427
 Frc consts  --      3.7134                 3.4462                 1.3420
 IR Inten    --    301.7613                58.4578                13.2221

                     67                     68                     69
                      A                      A                      A
 Frequencies --   1482.5731              1487.1311              1500.5421
 Red. masses --      1.5474                 2.4427                 1.2330
 Frc consts  --      2.0039                 3.1828                 1.6357
 IR Inten    --     14.2691                 3.0291                59.2755

                     70                     71                     72
                      A                      A                      A
 Frequencies --   1504.8956              1505.5110              1507.7736
 Red. masses --      1.9867                 1.0551                 3.0796
 Frc consts  --      2.6509                 1.4091                 4.1249
 IR Inten    --     47.9957                 4.7465                18.2561

                     73                     74                     75
                      A                      A                      A
 Frequencies --   1603.0799              1612.6017              1619.2308
 Red. masses --      4.3945                 4.3428                 3.1083
 Frc consts  --      6.6538                 6.6539                 4.8017
 IR Inten    --     44.3868                56.6536               111.0901

                     76                     77                     78
                      A                      A                      A
 Frequencies --   1621.3822              1660.4365              1668.9885
 Red. masses --      5.2173                 9.0780                 8.2344
 Frc consts  --      8.0810                14.7464                13.5142
 IR Inten    --    132.7907               210.4244                21.9984

                     79                     80                     81
                      A                      A                      A
 Frequencies --   3032.8579              3038.5073              3078.5244
 Red. masses --      1.0416                 1.0404                 1.0998
 Frc consts  --      5.6448                 5.6596                 6.1411
 IR Inten    --     19.5816                14.6216                18.1160

                     82                     83                     84
                      A                      A                      A
 Frequencies --   3080.8314              3147.4918              3152.6116
 Red. masses --      1.0990                 1.0975                 1.0957
 Frc consts  --      6.1456                 6.4060                 6.4165
 IR Inten    --      1.5994                19.3053                 1.9070

                     85                     86                     87
                      A                      A                      A
 Frequencies --   3171.1338              3185.5994              3202.9830
 Red. masses --      1.0871                 1.0921                 1.0925
 Frc consts  --      6.4410                 6.5300                 6.6035
 IR Inten    --      3.5043                14.1342                 0.2658

                     88                     89                     90
                      A                      A                      A
 Frequencies --   3205.3156              3210.6629              3240.3896
 Red. masses --      1.0946                 1.0705                 1.0695
 Frc consts  --      6.6259                 6.5017                 6.6167
 IR Inten    --     10.0895               184.0799               148.1595

 - Thermochemistry -
 -------------------
 Temperature   298.150 Kelvin.  Pressure   1.00000 Atm.
 Atom     1 has atomic number  6 and mass  12.00000

 Molecular mass:   268.07356 amu.
 Principal axes and moments of inertia in atomic units:
                           1         2         3
     Eigenvalues --  2782.171896726.454789486.44027
           X            0.99091   0.12290   0.05477
           Y           -0.11311   0.98130  -0.15573
           Z           -0.07288   0.14812   0.98628
 This molecule is an asymmetric top.
 Rotational symmetry number  1.
 Warning -- assumption of classical behavior for rotation
           may cause significant error
 Rotational temperatures (Kelvin)      0.03113     0.01288     0.00913
 Rotational constants (GHZ):           0.64868     0.26830     0.19024
    1 imaginary frequencies ignored.
 Zero-point vibrational energy     638809.9 (Joules/Mol)
                                  152.67924 (Kcal/Mol)
 Warning -- explicit consideration of  25 degrees of freedom as
           vibrations may cause significant error
 Vibrational temperatures:     61.44   109.56   140.91   170.11   187.68
          (Kelvin)            227.77   232.88   272.58   326.23   426.62
                              439.34   451.94   501.24   533.40   555.76
                              575.55   590.62   615.87   630.80   660.36
                              664.84   744.39   761.26   785.19   793.52
                              934.96   949.14   976.01  1004.02  1025.63
                             1066.79  1069.79  1102.01  1120.09  1167.65
                             1215.38  1223.24  1273.18  1315.30  1362.38
                             1396.00  1441.84  1464.65  1490.21  1493.25
                             1527.19  1532.51  1569.15  1603.31  1616.20
                             1674.50  1706.42  1769.41  1828.76  1860.32
                             1869.30  1949.59  1952.49  1988.78  2014.76
                             2030.57  2039.87  2053.19  2076.96  2126.50
                             2133.09  2139.65  2158.95  2165.21  2166.09
                             2169.35  2306.47  2320.17  2329.71  2332.81
                             2389.00  2401.30  4363.61  4371.73  4429.31
                             4432.63  4528.54  4535.90  4562.55  4583.37
                             4608.38  4611.73  4619.43  4662.20

 Zero-point correction=                           0.243310 (Hartree/Particle)
 Thermal correction to Energy=                    0.258818
 Thermal correction to Enthalpy=                  0.259762
 Thermal correction to Gibbs Free Energy=         0.200944
 Sum of electronic and zero-point Energies=           -917.884147
 Sum of electronic and thermal Energies=              -917.868640
 Sum of electronic and thermal Enthalpies=            -917.867695
 Sum of electronic and thermal Free Energies=         -917.926513

                     E (Thermal)             CV                S
                      KCal/Mol        Cal/Mol-Kelvin    Cal/Mol-Kelvin
 Total                  162.411             62.316            123.793
 Electronic               0.000              0.000              0.000
 Translational            0.889              2.981             42.657
 Rotational               0.889              2.981             33.540
 Vibrational            160.633             56.355             47.596
 Vibration     1          0.595              1.980              5.130
 Vibration     2          0.599              1.965              3.988
 Vibration     3          0.603              1.951              3.495
 Vibration     4          0.608              1.934              3.129
 Vibration     5          0.612              1.923              2.939
 Vibration     6          0.621              1.893              2.570
 Vibration     7          0.622              1.889              2.528
 Vibration     8          0.633              1.854              2.233
 Vibration     9          0.650              1.800              1.905
 Vibration    10          0.690              1.680              1.436
 Vibration    11          0.696              1.664              1.387
 Vibration    12          0.702              1.647              1.341
 Vibration    13          0.726              1.579              1.174
 Vibration    14          0.743              1.532              1.077
 Vibration    15          0.755              1.500              1.015
 Vibration    16          0.766              1.470              0.963
 Vibration    17          0.775              1.447              0.925
 Vibration    18          0.790              1.409              0.865
 Vibration    19          0.799              1.386              0.832
 Vibration    20          0.817              1.341              0.769
 Vibration    21          0.820              1.334              0.760
 Vibration    22          0.872              1.212              0.616
 Vibration    23          0.884              1.186              0.589
 Vibration    24          0.901              1.149              0.553
 Vibration    25          0.907              1.136              0.541

                           ! Non-Optimized Parameters !
 Normal termination of Gaussian 16 at Thu Dec 21 23:14:18 2023.
