 Q-Chem 5.4, Q-Chem, Inc., Pleasanton, CA (2021)
 Q-Chem 5.4.0 for Intel X86 EM64T Linux

User input:
--------------------------------------------------------------
$molecule
-1 2
C                 -4.0310820000      0.2785250000      0.2728460000
C                 -2.5627120000      0.0062980000      0.0399960000
C                 -2.1598500000     -1.0535660000     -0.8055970000
C                 -0.8207080000     -1.3129470000     -1.0265300000
C                  0.1841890000     -0.5333220000     -0.4190870000
C                  1.6014680000     -0.8363410000     -0.6752660000
O                  1.9521200000     -1.7846580000     -1.4317200000
C                  2.5670160000      0.0130160000     -0.0118090000
C                  2.1677500000      1.0467740000      0.8128050000
C                  0.7986630000      1.3811500000      1.0931960000
O                  0.4714370000      2.3341390000      1.8529790000
C                 -0.2082440000      0.5326630000      0.4311220000
C                 -1.5803820000      0.7768290000      0.6402520000
C                  4.0237820000     -0.2781740000     -0.2585740000
H                 -4.5525930000      0.5058140000     -0.6649280000
H                 -4.1713470000      1.1275870000      0.9463940000
H                 -4.5361040000     -0.5878180000      0.7172400000
H                 -2.9160900000     -1.6701680000     -1.2864800000
H                 -0.5025210000     -2.1232050000     -1.6731640000
H                  2.9140500000      1.6705940000      1.2997580000
H                 -1.8398090000      1.6010180000      1.2971290000
H                  4.2615300000     -0.2149980000     -1.3262040000
H                  4.2767140000     -1.3003330000      0.0440800000
H                  4.6627220000      0.4211230000      0.2882850000
$end
$rem
MAX_SCF_CYCLES=200
BASIS  =  6-311++G(d,p)
GUI  =  2
JOB_TYPE  =  SP
METHOD  =  B3LYP
SOLVENT_METHOD = PCM
$end
$pcm
theory = CPCM
$end
$solvent
dielectric 37.219
opticaldielectric 1.43
$end

--------------------------------------------------------------

             Standard Nuclear Orientation (Angstroms)
    I     Atom           X                Y                Z
 ----------------------------------------------------------------
    1      C      -4.0310820000     0.2785250000     0.2728460000
    2      C      -2.5627120000     0.0062980000     0.0399960000
    3      C      -2.1598500000    -1.0535660000    -0.8055970000
    4      C      -0.8207080000    -1.3129470000    -1.0265300000
    5      C       0.1841890000    -0.5333220000    -0.4190870000
    6      C       1.6014680000    -0.8363410000    -0.6752660000
    7      O       1.9521200000    -1.7846580000    -1.4317200000
    8      C       2.5670160000     0.0130160000    -0.0118090000
    9      C       2.1677500000     1.0467740000     0.8128050000
   10      C       0.7986630000     1.3811500000     1.0931960000
   11      O       0.4714370000     2.3341390000     1.8529790000
   12      C      -0.2082440000     0.5326630000     0.4311220000
   13      C      -1.5803820000     0.7768290000     0.6402520000
   14      C       4.0237820000    -0.2781740000    -0.2585740000
   15      H      -4.5525930000     0.5058140000    -0.6649280000
   16      H      -4.1713470000     1.1275870000     0.9463940000
   17      H      -4.5361040000    -0.5878180000     0.7172400000
   18      H      -2.9160900000    -1.6701680000    -1.2864800000
   19      H      -0.5025210000    -2.1232050000    -1.6731640000
   20      H       2.9140500000     1.6705940000     1.2997580000
   21      H      -1.8398090000     1.6010180000     1.2971290000
   22      H       4.2615300000    -0.2149980000    -1.3262040000
   23      H       4.2767140000    -1.3003330000     0.0440800000
   24      H       4.6627220000     0.4211230000     0.2882850000
 ----------------------------------------------------------------

    8    -614.0709758050      8.02e-06  Convergence criterion met
 Total energy in the final basis set =     -614.0709758050

                    Orbital Energies (a.u.)
 --------------------------------------------------------------

 Alpha MOs
 -- Occupied --
-19.0760 -19.0747 -10.2197 -10.2186 -10.1792 -10.1702 -10.1695 -10.1685
-10.1677 -10.1671 -10.1638 -10.1600 -10.1557 -10.1546  -0.9996  -0.9970
 -0.8577  -0.8112  -0.7678  -0.7483  -0.7035  -0.6893  -0.6433  -0.6140
 -0.5802  -0.5502  -0.5056  -0.4842  -0.4684  -0.4363  -0.4271  -0.4248
 -0.4220  -0.4140  -0.4119  -0.3915  -0.3880  -0.3806  -0.3738  -0.3712
 -0.3652  -0.3425  -0.3375  -0.3319  -0.2698  -0.2534  -0.2447  -0.2391
 -0.2365  -0.1510

 Beta MOs
 -- Occupied --
-19.0702 -19.0689 -10.2180 -10.2166 -10.1787 -10.1690 -10.1684 -10.1681
-10.1675 -10.1670 -10.1637 -10.1601 -10.1547 -10.1546  -0.9893  -0.9865
 -0.8559  -0.8062  -0.7665  -0.7462  -0.7016  -0.6847  -0.6377  -0.6119
 -0.5782  -0.5468  -0.5036  -0.4815  -0.4659  -0.4352  -0.4227  -0.4209
 -0.4186  -0.4112  -0.4066  -0.3858  -0.3822  -0.3802  -0.3723  -0.3638
 -0.3483  -0.3410  -0.3308  -0.3273  -0.2474  -0.2438  -0.2394  -0.2334
 -0.2312

          Ground-State Mulliken Net Atomic Charges

     Atom                 Charge (a.u.)    Spin (a.u.)
  --------------------------------------------------------
      1 C                    -0.433238      -0.001842
      2 C                     0.408385       0.030393
      3 C                    -0.430785       0.015600
      4 C                     0.054143       0.030780
      5 C                    -0.154171      -0.019916
      6 C                    -0.435595       0.136235
      7 O                    -0.506182       0.220212
      8 C                     0.679963       0.112592
      9 C                    -0.436201       0.080042
     10 C                    -0.720108       0.101064
     11 O                    -0.518305       0.212244
     12 C                     0.390458       0.058611
     13 C                    -0.277501       0.017092
     14 C                    -0.296390       0.006972
     15 H                     0.167295       0.001861
     16 H                     0.173743       0.000070
     17 H                     0.167332       0.001858
     18 H                     0.195834      -0.001707
     19 H                     0.169390      -0.002537
     20 H                     0.161388      -0.009140
     21 H                     0.136754      -0.002800
     22 H                     0.170493       0.006250
     23 H                     0.170326       0.006272
     24 H                     0.162972      -0.000205
  --------------------------------------------------------
  Sum of atomic charges =    -1.000000

                    Cartesian Multipole Moments
 -----------------------------------------------------------------
    Charge (ESU x 10^10)
                -4.8032
    Dipole Moment (Debye)
         X      -5.8984      Y      -1.5829      Z      -1.2195
       Tot       6.2277
    Quadrupole Moments (Debye-Ang)
        XX     -86.1596     XY       6.9412     YY    -109.0663
        XZ       5.4428     YZ     -16.8827     ZZ    -101.3712

 Total job time:  48.31s(wall), 247.74s(cpu)
        *  Thank you very much for using Q-Chem.  Have a nice day.  *
