 Q-Chem 5.4, Q-Chem, Inc., Pleasanton, CA (2021)
 Q-Chem 5.4.0 for Intel X86 EM64T Linux

User input:
--------------------------------------------------------------
$molecule
0 1
F                 -2.7026950000      0.5216270000     -0.0151510000
C                 -1.3947240000      0.3205510000     -0.0084490000
C                 -0.5174920000      1.3342520000     -0.0179250000
F                 -0.9042730000      2.5996590000     -0.0345710000
C                  0.9551690000      1.1035740000     -0.0103230000
O                  1.7454860000      2.0165350000     -0.0188560000
C                  1.3946990000     -0.3206090000      0.0084500000
C                  0.5175220000     -1.3342120000      0.0179250000
F                  0.9042610000     -2.5996340000      0.0345700000
C                 -0.9551850000     -1.1036010000      0.0103230000
O                 -1.7455500000     -2.0166660000      0.0188570000
F                  2.7027820000     -0.5214760000      0.0151490000
$end

$rem
BASIS  =  6-311++G(d,p)
GUI  =  2
JOB_TYPE  =  SP
METHOD  =  B3LYP
SCF_CONVERGENCE  = 8
SOLVENT_METHOD = sm12
$end

$smx
solvent dimethylformamide
charges CM5
$end

--------------------------------------------------------------

             Standard Nuclear Orientation (Angstroms)
    I     Atom           X                Y                Z
 ----------------------------------------------------------------
    1      F      -2.7026950000     0.5216270000    -0.0151510000
    2      C      -1.3947240000     0.3205510000    -0.0084490000
    3      C      -0.5174920000     1.3342520000    -0.0179250000
    4      F      -0.9042730000     2.5996590000    -0.0345710000
    5      C       0.9551690000     1.1035740000    -0.0103230000
    6      O       1.7454860000     2.0165350000    -0.0188560000
    7      C       1.3946990000    -0.3206090000     0.0084500000
    8      C       0.5175220000    -1.3342120000     0.0179250000
    9      F       0.9042610000    -2.5996340000     0.0345700000
   10      C      -0.9551850000    -1.1036010000     0.0103230000
   11      O      -1.7455500000    -2.0166660000     0.0188570000
   12      F       2.7027820000    -0.5214760000     0.0151490000
 ----------------------------------------------------------------

   13    -778.5990484345      7.90e-09  Convergence criterion met
 Total energy in the final basis set =     -778.6055329123

                    Orbital Energies (a.u.)
 --------------------------------------------------------------

 Alpha MOs
 -- Occupied --
-24.7515 -24.7515 -24.7515 -24.7515 -19.1815 -19.1814 -10.3355 -10.3355
-10.3314 -10.3314 -10.3306 -10.3306  -1.3041  -1.3032  -1.2907  -1.2900
 -1.1158  -1.1142  -0.9142  -0.8331  -0.7636  -0.6973  -0.6890  -0.6354
 -0.6153  -0.6107  -0.5963  -0.5623  -0.5609  -0.5421  -0.5193  -0.5153
 -0.5103  -0.5017  -0.4826  -0.4609  -0.4594  -0.4517  -0.4480  -0.4475
 -0.3364  -0.3316  -0.3307  -0.3107

          Ground-State Mulliken Net Atomic Charges

     Atom                 Charge (a.u.)
  ----------------------------------------
      1 F                    -0.178083
      2 C                     0.245348
      3 C                     0.240743
      4 F                    -0.177993
      5 C                     0.139454
      6 O                    -0.269192
      7 C                     0.244965
      8 C                     0.241029
      9 F                    -0.178014
     10 C                     0.139083
     11 O                    -0.269212
     12 F                    -0.178130
  ----------------------------------------
  Sum of atomic charges =     0.000000

                    Cartesian Multipole Moments
 -----------------------------------------------------------------
    Charge (ESU x 10^10)
                 0.0000
    Dipole Moment (Debye)
         X      -0.0002      Y       0.0006      Z      -0.0000
       Tot       0.0006
    Quadrupole Moments (Debye-Ang)
        XX     -74.4019     XY      -5.6021     YY     -76.0203
        XZ       0.0212     YZ       0.1769     ZZ     -59.9770

 Total job time:  98.51s(wall), 553.63s(cpu)
        *  Thank you very much for using Q-Chem.  Have a nice day.  *
