 Q-Chem 5.4, Q-Chem, Inc., Pleasanton, CA (2021)
 Q-Chem 5.4.0 for Intel X86 EM64T Linux

User input:
--------------------------------------------------------------
$molecule
-3 1
O                  1.5213360000     -2.9245250000     -0.3632300000
C                  1.4724790000     -1.5579420000     -0.1847640000
C                  2.7065900000     -0.9273480000     -0.0478720000
O                  3.8169660000     -1.7503210000     -0.1107020000
C                  2.7877200000      0.4670810000      0.1787800000
C                  1.6158680000      1.1940260000      0.2534290000
C                  0.3482570000      0.5883100000      0.1059850000
C                 -0.8276380000      1.4583250000      0.2068220000
O                 -0.7264850000      2.7075860000      0.4116050000
C                 -2.1152410000      0.8045770000      0.0437500000
C                 -3.3049410000      1.5723770000      0.0990000000
C                 -4.5552510000      0.9989710000     -0.0297700000
C                 -4.6631890000     -0.4027970000     -0.2224970000
C                 -3.5170260000     -1.1710600000     -0.2987260000
C                 -2.2210130000     -0.6084670000     -0.1894860000
C                 -1.0573180000     -1.4877810000     -0.3041130000
O                 -1.2005650000     -2.7283880000     -0.5257750000
C                  0.2436860000     -0.8376620000     -0.1313940000
S                  4.4147200000      1.2759780000      0.2875670000
O                  4.7917930000      1.7339830000     -1.0773390000
O                  4.3191490000      2.3719410000      1.2813800000
O                  5.3266330000      0.1502280000      0.7597130000
H                  2.4662900000     -3.1306400000     -0.3076820000
H                  4.5817660000     -1.2011370000      0.2195840000
H                  1.6383240000      2.2609500000      0.4354960000
H                 -3.1898700000      2.6404900000      0.2522760000
H                 -5.4560950000      1.6100360000      0.0204120000
H                 -5.6472750000     -0.8626880000     -0.3119160000
H                 -3.5696700000     -2.2441020000     -0.4505350000
$end

$rem
Scf_algorithm RCA_DIIS
BASIS  =  6-311++G(d,p)
GUI  =  2
JOB_TYPE  =  SP
METHOD  =  B3LYP
SCF_CONVERGENCE  = 8
SOLVENT_METHOD = sm12
$end

$smx
solvent dimethylformamide
charges CM5
$end

--------------------------------------------------------------

             Standard Nuclear Orientation (Angstroms)
    I     Atom           X                Y                Z
 ----------------------------------------------------------------
    1      O       1.5213360000    -2.9245250000    -0.3632300000
    2      C       1.4724790000    -1.5579420000    -0.1847640000
    3      C       2.7065900000    -0.9273480000    -0.0478720000
    4      O       3.8169660000    -1.7503210000    -0.1107020000
    5      C       2.7877200000     0.4670810000     0.1787800000
    6      C       1.6158680000     1.1940260000     0.2534290000
    7      C       0.3482570000     0.5883100000     0.1059850000
    8      C      -0.8276380000     1.4583250000     0.2068220000
    9      O      -0.7264850000     2.7075860000     0.4116050000
   10      C      -2.1152410000     0.8045770000     0.0437500000
   11      C      -3.3049410000     1.5723770000     0.0990000000
   12      C      -4.5552510000     0.9989710000    -0.0297700000
   13      C      -4.6631890000    -0.4027970000    -0.2224970000
   14      C      -3.5170260000    -1.1710600000    -0.2987260000
   15      C      -2.2210130000    -0.6084670000    -0.1894860000
   16      C      -1.0573180000    -1.4877810000    -0.3041130000
   17      O      -1.2005650000    -2.7283880000    -0.5257750000
   18      C       0.2436860000    -0.8376620000    -0.1313940000
   19      S       4.4147200000     1.2759780000     0.2875670000
   20      O       4.7917930000     1.7339830000    -1.0773390000
   21      O       4.3191490000     2.3719410000     1.2813800000
   22      O       5.3266330000     0.1502280000     0.7597130000
   23      H       2.4662900000    -3.1306400000    -0.3076820000
   24      H       4.5817660000    -1.2011370000     0.2195840000
   25      H       1.6383240000     2.2609500000     0.4354960000
   26      H      -3.1898700000     2.6404900000     0.2522760000
   27      H      -5.4560950000     1.6100360000     0.0204120000
   28      H      -5.6472750000    -0.8626880000    -0.3119160000
   29      H      -3.5696700000    -2.2441020000    -0.4505350000
 ----------------------------------------------------------------

   28   -1462.6584025366      6.26E-09 Convergence criterion met
   28   -1460.9619423939      4.08E-09 Convergence criterion met
 Total energy in the final basis set = -1463.20634268

                    Orbital Energies (a.u.)
 --------------------------------------------------------------

 Alpha MOs
 -- Occupied --
-89.2713 -19.4115 -19.4086 -19.3757 -19.3701 -19.3516 -19.3498 -19.3469
-10.5948 -10.5922 -10.5567 -10.5538 -10.5333 -10.5320 -10.5279 -10.5276
-10.5273 -10.5228 -10.4740 -10.4666 -10.4489 -10.4384  -8.3298  -6.2926
 -6.2922  -6.2916  -1.3395  -1.3215  -1.2888  -1.2825  -1.2755  -1.2383
 -1.2028  -1.1988  -1.1493  -1.1428  -1.1237  -1.0498  -1.0242  -1.0116
 -0.9914  -0.9454  -0.9398  -0.9030  -0.8896  -0.8440  -0.8374  -0.8340
 -0.8191  -0.8005  -0.7879  -0.7784  -0.7570  -0.7498  -0.7350  -0.7279
 -0.7081  -0.6977  -0.6857  -0.6846  -0.6776  -0.6736  -0.6728  -0.6714
 -0.6665  -0.6637  -0.6558  -0.6388  -0.6215  -0.6161  -0.6061  -0.5985
 -0.5887  -0.5610  -0.5445  -0.5425  -0.5221  -0.5217  -0.5180  -0.5148
 -0.5065  -0.4867  -0.4581

          Ground-State Mulliken Net Atomic Charges

     Atom                 Charge (a.u.)
  ----------------------------------------
      1 O                    -0.161750
      2 C                    12.079636
      3 C                     7.993573
      4 O                     0.157126
      5 C                    13.902242
      6 C                    13.074118
      7 C                    10.139537
      8 C                     4.710973
      9 O                     0.194143
     10 C                    -0.644802
     11 C                    -9.674331
     12 C                   -20.492542
     13 C                   -22.333948
     14 C                    -8.146538
     15 C                    -3.514350
     16 C                     7.443651
     17 O                     0.046911
     18 C                    12.372921
     19 S                     2.943084
     20 O                     0.273354
     21 O                     0.116715
     22 O                     0.130399
     23 H                     0.668004
     24 H                     0.498113
     25 H                     0.568758
     26 H                     2.765715
     27 H                   -15.439621
     28 H                   -15.357772
     29 H                     2.686681
  ----------------------------------------
  Sum of atomic charges =    -3.000000

                    Cartesian Multipole Moments
 -----------------------------------------------------------------
    Charge (ESU x 10^10)
               -14.4096
    Dipole Moment (Debye)
         X     176.8360      Y     -13.8931      Z       4.5132
       Tot     177.4383
    Quadrupole Moments (Debye-Ang)
        XX   -1271.8637     XY      61.2781     YY    -305.4799
        XZ     -26.9100     YZ      -8.5663     ZZ    -231.0700

 Total job time:  1676.97s(wall), 4356.64s(cpu)
        *  Thank you very much for using Q-Chem.  Have a nice day.  *
