 Gaussian 16, Revision A.03,
 Gaussian 16:  ES64L-G16RevA.03 25-Dec-2016

 ----------------------------------------------------------------
 #P UB3LYP/6-311++G(d,p) SCRF=(PCM,Solvent=n,n-DiMethylFormamide)
 ----------------------------------------------------------------

 ------------------
 Radical PCM in DMF
 ------------------
 Symbolic Z-matrix:
 Charge = -1 Multiplicity = 2

                         Standard orientation:
 ---------------------------------------------------------------------
 Center     Atomic      Atomic             Coordinates (Angstroms)
 Number     Number       Type             X           Y           Z
 ---------------------------------------------------------------------
      1          6           0       -2.692891   -1.431702   -1.263574
      2          6           0       -2.592758   -0.542551    0.000105
      3          6           0       -2.692529   -1.430669    1.264534
      4          6           0       -3.812932    0.399507   -0.000245
      5          6           0       -1.256323    0.228572   -0.000208
      6          6           0       -1.221893    1.601854   -0.000016
      7          6           0        0.000072    2.369560   -0.000179
      8          8           0        0.000081    3.636079   -0.000059
      9          6           0        1.222027    1.601836   -0.000302
     10          6           0        1.256350    0.228559   -0.000395
     11          6           0        0.000008   -0.531801   -0.000546
     12          8           0        0.000057   -1.802482   -0.000655
     13          6           0        2.592748   -0.542638    0.000058
     14          6           0        2.693342   -1.430804   -1.264246
     15          6           0        3.812928    0.399399    0.001185
     16          6           0        2.691816   -1.431691    1.263889
     17          1           0       -3.641971   -1.983069   -1.264894
     18          1           0       -2.659777   -0.814228   -2.167466
     19          1           0       -1.867738   -2.141930   -1.295094
     20          1           0       -1.866944   -2.140400    1.296664
     21          1           0       -3.641282   -1.982611    1.266261
     22          1           0       -2.659822   -0.812412    2.167898
     23          1           0       -3.833012    1.041625   -0.885599
     24          1           0       -3.833093    1.042371    0.884554
     25          1           0       -4.730605   -0.198976   -0.000040
     26          1           0       -2.129754    2.193267    0.000265
     27          1           0        2.129923    2.193197   -0.000262
     28          1           0        3.641908   -1.983049   -1.265125
     29          1           0        2.661629   -0.812522   -2.167640
     30          1           0        1.867550   -2.140251   -1.297097
     31          1           0        3.832506    1.041525    0.886532
     32          1           0        4.730595   -0.199083    0.001526
     33          1           0        3.833635    1.042275   -0.883598
     34          1           0        3.641042   -1.982813    1.266228
     35          1           0        2.657534   -0.814152    2.167687
     36          1           0        1.866781   -2.142119    1.294559
 ---------------------------------------------------------------------

 SCF Done:  E(UB3LYP) =  -696.306351122     A.U. after   16 cycles

 The electronic state is 2-A.
 Alpha  occ. eigenvalues --  -19.06916 -19.06441 -10.21181 -10.20930 -10.17883
 Alpha  occ. eigenvalues --  -10.17882 -10.16524 -10.16523 -10.14914 -10.14914
 Alpha  occ. eigenvalues --  -10.14872 -10.14872 -10.14323 -10.14322 -10.14321
 Alpha  occ. eigenvalues --  -10.14320  -0.99005  -0.98750  -0.82967  -0.81580
 Alpha  occ. eigenvalues --   -0.78014  -0.72082  -0.67937  -0.67654  -0.67307
 Alpha  occ. eigenvalues --   -0.67260  -0.66478  -0.60324  -0.57485  -0.52484
 Alpha  occ. eigenvalues --   -0.51415  -0.47424  -0.46423  -0.44795  -0.44534
 Alpha  occ. eigenvalues --   -0.43071  -0.42783  -0.42375  -0.41214  -0.40941
 Alpha  occ. eigenvalues --   -0.40095  -0.38041  -0.37900  -0.37341  -0.37335
 Alpha  occ. eigenvalues --   -0.37237  -0.36161  -0.35630  -0.35495  -0.34336
 Alpha  occ. eigenvalues --   -0.33038  -0.32410  -0.32310  -0.32090  -0.31777
 Alpha  occ. eigenvalues --   -0.31265  -0.26853  -0.24178  -0.23355  -0.22118
 Alpha  occ. eigenvalues --   -0.15298
 Alpha virt. eigenvalues --   -0.00479   0.00156   0.00404   0.01326   0.01360
 Alpha virt. eigenvalues --    0.02235   0.02501   0.03038   0.03455   0.03680
 Alpha virt. eigenvalues --    0.03762   0.04183   0.04356   0.05210   0.05569

  Beta  occ. eigenvalues --  -19.06251 -19.05739 -10.21018 -10.20784 -10.17890
  Beta  occ. eigenvalues --  -10.17889 -10.16405 -10.16404 -10.14873 -10.14873
  Beta  occ. eigenvalues --  -10.14823 -10.14823 -10.14316 -10.14315 -10.14314
  Beta  occ. eigenvalues --  -10.14313  -0.97820  -0.97518  -0.82579  -0.81503
  Beta  occ. eigenvalues --   -0.77714  -0.71866  -0.67703  -0.67632  -0.67279
  Beta  occ. eigenvalues --   -0.67237  -0.65665  -0.60013  -0.57194  -0.52210
  Beta  occ. eigenvalues --   -0.51290  -0.47254  -0.46112  -0.44757  -0.44280
  Beta  occ. eigenvalues --   -0.42925  -0.42748  -0.42338  -0.41156  -0.39853
  Beta  occ. eigenvalues --   -0.39450  -0.38009  -0.37324  -0.37282  -0.36827
  Beta  occ. eigenvalues --   -0.36320  -0.35729  -0.35530  -0.35486  -0.32909
  Beta  occ. eigenvalues --   -0.32889  -0.32343  -0.32168  -0.31699  -0.31461
  Beta  occ. eigenvalues --   -0.31216  -0.23695  -0.23448  -0.22752  -0.21530
  Beta virt. eigenvalues --   -0.08096  -0.00466   0.00406   0.01349   0.01424
  Beta virt. eigenvalues --    0.01517   0.02251   0.02508   0.03053   0.03699
  Beta virt. eigenvalues --    0.03721   0.04183   0.04374   0.05213   0.05489

 Mulliken charges and spin densities:
               1          2
     1  C   -0.695453   0.008085
     2  C    0.763463  -0.027563
     3  C   -0.695541   0.008093
     4  C   -0.470205   0.001311
     5  C    0.585550   0.087520
     6  C   -0.323759   0.058940
     7  C   -0.636516   0.120065
     8  O   -0.523165   0.231578
     9  C   -0.323705   0.058904
    10  C    0.585366   0.087518
    11  C   -0.821839   0.131403
    12  O   -0.382297   0.258704
    13  C    0.763518  -0.027567
    14  C   -0.695555   0.008112
    15  C   -0.470211   0.001310
    16  C   -0.695461   0.008069
    17  H    0.146844   0.000207
    18  H    0.135197   0.000901
    19  H    0.171966  -0.001224
    20  H    0.172012  -0.001228
    21  H    0.146817   0.000212
    22  H    0.135172   0.000893
    23  H    0.129419  -0.000423
    24  H    0.129398  -0.000423
    25  H    0.167055   0.000095
    26  H    0.184033  -0.006252
    27  H    0.184035  -0.006249
    28  H    0.146822   0.000213
    29  H    0.135169   0.000893
    30  H    0.172054  -0.001233
    31  H    0.129433  -0.000424
    32  H    0.167057   0.000095
    33  H    0.129386  -0.000422
    34  H    0.146830   0.000206
    35  H    0.135194   0.000902
    36  H    0.171919  -0.001219
 Sum of Mulliken charges =  -1.00000   1.00000

 Dipole moment (field-independent basis, Debye):
    X=             -0.0005    Y=             -5.9127    Z=              0.0020  Tot=              5.9127
 Quadrupole moment (field-independent basis, Debye-Ang):
   XX=           -104.9959   YY=           -151.1770   ZZ=           -106.4982
   XY=              0.0001   XZ=             -0.0013   YZ=             -0.0021

 Normal termination of Gaussian 16 at Sun Jan 21 07:24:58 2024.
