 Q-Chem 5.4, Q-Chem, Inc., Pleasanton, CA (2021)
 Q-Chem 5.4.0 for Intel X86 EM64T Linux

User input:
--------------------------------------------------------------
$molecule
-1 1
C                 -1.8580200000      2.7968120000     -0.7932290000
C                 -2.9308370000      1.9638980000     -0.5004900000
C                 -2.6842500000      0.6610020000     -0.0667300000
C                 -0.5457990000      2.3352550000     -0.6549940000
C                 -0.2877370000      1.0154030000     -0.2156430000
C                 -1.3823280000      0.1881750000      0.0755030000
C                  0.5713570000      3.2599230000     -0.9792830000
C                  2.0208830000      2.7160880000     -0.8153840000
C                  2.1662000000      1.3421810000     -0.3562460000
C                  1.1076500000      0.5512780000     -0.0775560000
O                  0.3951980000      4.4000600000     -1.3593870000
O                  2.9602220000      3.4488330000     -1.0733110000
H                 -2.0090400000      3.8147640000     -1.1326370000
H                 -3.9484050000      2.3239000000     -0.6084080000
H                 -3.5131650000      0.0006380000      0.1651060000
H                 -1.2057830000     -0.8227590000      0.4123190000
H                  3.1706040000      0.9527630000     -0.2383390000
S                  1.4444230000     -1.1686950000      0.4951220000
O                  2.9167020000     -1.2788840000      0.5133440000
O                  0.7657270000     -2.0016540000     -0.5292340000
O                  0.7957510000     -1.2103760000      1.8297480000
$end

$rem
BASIS  =  6-311++G(d,p)
GUI  =  2
JOB_TYPE  =  SP
METHOD  =  B3LYP
SCF_CONVERGENCE  = 8
SOLVENT_METHOD = sm12
$end

$smx
solvent dimethylformamide
charges CM5
$end

--------------------------------------------------------------

             Standard Nuclear Orientation (Angstroms)
    I     Atom           X                Y                Z
 ----------------------------------------------------------------
    1      C      -1.8580200000     2.7968120000    -0.7932290000
    2      C      -2.9308370000     1.9638980000    -0.5004900000
    3      C      -2.6842500000     0.6610020000    -0.0667300000
    4      C      -0.5457990000     2.3352550000    -0.6549940000
    5      C      -0.2877370000     1.0154030000    -0.2156430000
    6      C      -1.3823280000     0.1881750000     0.0755030000
    7      C       0.5713570000     3.2599230000    -0.9792830000
    8      C       2.0208830000     2.7160880000    -0.8153840000
    9      C       2.1662000000     1.3421810000    -0.3562460000
   10      C       1.1076500000     0.5512780000    -0.0775560000
   11      O       0.3951980000     4.4000600000    -1.3593870000
   12      O       2.9602220000     3.4488330000    -1.0733110000
   13      H      -2.0090400000     3.8147640000    -1.1326370000
   14      H      -3.9484050000     2.3239000000    -0.6084080000
   15      H      -3.5131650000     0.0006380000     0.1651060000
   16      H      -1.2057830000    -0.8227590000     0.4123190000
   17      H       3.1706040000     0.9527630000    -0.2383390000
   18      S       1.4444230000    -1.1686950000     0.4951220000
   19      O       2.9167020000    -1.2788840000     0.5133440000
   20      O       0.7657270000    -2.0016540000    -0.5292340000
   21      O       0.7957510000    -1.2103760000     1.8297480000
 ----------------------------------------------------------------

   16   -1158.6349896108      4.83e-09  Convergence criterion met
 Total energy in the final basis set =    -1158.7271156630

                    Orbital Energies (a.u.)
 --------------------------------------------------------------

 Alpha MOs
 -- Occupied --
-89.0439 -19.1436 -19.1391 -19.0886 -19.0869 -19.0869 -10.2844 -10.2799
-10.2336 -10.2212 -10.2093 -10.2020 -10.2003 -10.1985 -10.1974 -10.1963
 -8.1027  -6.0653  -6.0651  -6.0650  -1.1082  -1.0836  -1.0562  -0.9745
 -0.9697  -0.8966  -0.8411  -0.7857  -0.7665  -0.7172  -0.6510  -0.6356
 -0.6182  -0.5730  -0.5444  -0.5296  -0.5065  -0.4837  -0.4742  -0.4608
 -0.4597  -0.4552  -0.4530  -0.4470  -0.4414  -0.4223  -0.4046  -0.3918
 -0.3810  -0.3762  -0.3410  -0.3292  -0.3272  -0.3173  -0.2970  -0.2906
 -0.2882  -0.2788  -0.2612  -0.2604  -0.2510

          Ground-State Mulliken Net Atomic Charges

     Atom                 Charge (a.u.)
  ----------------------------------------
      1 C                     1.021166
      2 C                     1.442623
      3 C                     1.042354
      4 C                     0.524908
      5 C                    -0.839820
      6 C                    -0.995994
      7 C                    -0.701737
      8 C                     0.088408
      9 C                    -0.751327
     10 C                    -1.614597
     11 O                    -0.171937
     12 O                    -0.248853
     13 H                     0.259808
     14 H                     0.452485
     15 H                     0.347753
     16 H                     0.052668
     17 H                     0.217094
     18 S                    -0.206820
     19 O                    -0.225759
     20 O                    -0.345760
     21 O                    -0.346662
  ----------------------------------------
  Sum of atomic charges =    -1.000000

                    Cartesian Multipole Moments
 -----------------------------------------------------------------
    Charge (ESU x 10^10)
                -4.8032
    Dipole Moment (Debye)
         X     -11.4330      Y       0.8929      Z      -0.7376
       Tot      11.4915
    Quadrupole Moments (Debye-Ang)
        XX    -117.0081     XY      -6.7827     YY    -144.0950
        XZ       0.9952     YZ      11.9610     ZZ    -113.1420

 Total job time:  336.19s(wall), 2600.48s(cpu)
        *  Thank you very much for using Q-Chem.  Have a nice day.  *
