 Q-Chem 5.4, Q-Chem, Inc., Pleasanton, CA (2021)
 Q-Chem 5.4.0 for Intel X86 EM64T Linux

User input:
--------------------------------------------------------------
$molecule
-2 1
C                 -3.5084840000      0.6739710000     -0.1517610000
O                 -2.7467730000     -0.4883190000     -0.3509250000
C                 -1.3899240000     -0.4334310000     -0.0366270000
C                 -0.7236300000      0.7633600000      0.1945860000
C                  0.6790850000      0.8637870000      0.4970510000
O                  1.2620630000      1.9912480000      0.7414090000
C                  1.3467690000     -0.4097220000      0.5110390000
C                  0.6812880000     -1.6089880000      0.2777790000
C                 -0.7198650000     -1.7219470000      0.0011970000
O                 -1.3146980000     -2.8395910000     -0.2091170000
O                  2.7088960000     -0.4883130000      0.8439530000
C                  3.5585520000      0.2553880000     -0.0168240000
H                 -4.5559720000      0.4190250000     -0.3417120000
H                 -3.2215140000      1.4857130000     -0.8352800000
H                 -3.4206400000      1.0562670000      0.8796960000
H                 -1.2546080000      1.7092010000      0.1810210000
H                  1.2503780000     -2.5346510000      0.3171100000
H                  3.5271860000     -0.1516110000     -1.0424210000
H                  3.2615010000      1.3081160000     -0.0291670000
H                  4.5803910000      0.1504960000      0.3707860000
$end
$rem
MAX_SCF_CYCLES=200
BASIS  =  6-311++G(d,p)
GUI  =  2
JOB_TYPE  =  SP
METHOD  =  B3LYP
SOLVENT_METHOD = COSMO
$end
$solvent
dielectric 37.219
opticaldielectric 1.43
$end

--------------------------------------------------------------

             Standard Nuclear Orientation (Angstroms)
    I     Atom           X                Y                Z
 ----------------------------------------------------------------
    1      C       3.3765715667    -1.3271668527    -0.0507297606
    2      O       2.7870753332    -0.0645205566    -0.2210427441
    3      C       1.4069021676     0.0323522998    -0.0520077870
    4      C       0.5800177854    -1.0825594701     0.0023043397
    5      C      -0.8495489954    -1.0238896199     0.1508866327
    6      O      -1.5873854919    -2.0820092940     0.2328777711
    7      C      -1.3567451046     0.3203312573     0.2112613062
    8      C      -0.5301366454     1.4379510723     0.1550604863
    9      C       0.8965030896     1.3898995807     0.0330884059
   10      O       1.6410508472     2.4341873148    -0.0148506420
   11      O      -2.7281680946     0.5484366453     0.4101712240
   12      C      -3.5594888237    -0.0115743300    -0.5954316262
   13      H       4.4617183261    -1.1957995434    -0.1099673839
   14      H       3.0723328960    -2.0405831354    -0.8298004362
   15      H       3.1287455063    -1.7724575730     0.9280801091
   16      H       0.9916801084    -2.0852043120    -0.0421287093
   17      H      -0.9846975506     2.4235996846     0.2193531127
   18      H      -3.3650622869     0.4649821500    -1.5719424871
   19      H      -3.3915619335    -1.0898025175    -0.6719327601
   20      H      -4.5981860578     0.1944487459    -0.3054983000
 ----------------------------------------------------------------

   18    -610.6426207108      8.65e-06  Convergence criterion met
 Total energy in the final basis set =     -610.6426207108
    6    -610.9501985601      4.81e-06  Convergence criterion met
 Total energy in the final basis set =     -610.9501985601

                    Orbital Energies (a.u.)
 --------------------------------------------------------------

 Alpha MOs
 -- Occupied --
-19.1265 -19.1139 -19.0216 -19.0197 -10.2005 -10.1882 -10.1829 -10.1735
-10.1723 -10.1713 -10.1238 -10.1206  -1.0376  -1.0216  -0.9381  -0.9326
 -0.7801  -0.7178  -0.6848  -0.6623  -0.6220  -0.5619  -0.5383  -0.4825
 -0.4695  -0.4602  -0.4462  -0.4336  -0.4217  -0.4070  -0.3802  -0.3713
 -0.3647  -0.3612  -0.3413  -0.3271  -0.3200  -0.3116  -0.2943  -0.2659
 -0.2246  -0.2044  -0.2009  -0.1940  -0.1167

          Ground-State Mulliken Net Atomic Charges

     Atom                 Charge (a.u.)
  ----------------------------------------
      1 C                    -0.312752
      2 O                    -0.256908
      3 C                    -0.384308
      4 C                     0.487094
      5 C                    -0.326125
      6 O                    -0.766699
      7 C                    -0.361649
      8 C                     0.524229
      9 C                    -0.519271
     10 O                    -0.786833
     11 O                    -0.284702
     12 C                    -0.277867
     13 H                     0.183865
     14 H                     0.147678
     15 H                     0.150389
     16 H                     0.174919
     17 H                     0.171103
     18 H                     0.119475
     19 H                     0.177108
     20 H                     0.141254
  ----------------------------------------
  Sum of atomic charges =    -2.000000

                    Cartesian Multipole Moments
 -----------------------------------------------------------------
    Charge (ESU x 10^10)
                -9.6064
    Dipole Moment (Debye)
         X       0.1705      Y      -4.4512      Z      -2.0627
       Tot       4.9089
    Quadrupole Moments (Debye-Ang)
        XX    -102.5397     XY     -31.7370     YY    -119.5725
        XZ       7.3640     YZ       1.7853     ZZ     -80.2189

 Total job time:  38.85s(wall), 286.81s(cpu)
        *  Thank you very much for using Q-Chem.  Have a nice day.  *
