 Q-Chem 5.4, Q-Chem, Inc., Pleasanton, CA (2021)
 Q-Chem 5.4.0 for Intel X86 EM64T Linux

User input:
--------------------------------------------------------------
$molecule
0 1
C                 -1.8831200000      3.5057350000     -0.9505460000
C                 -2.9893010000      2.9093670000     -0.3631540000
C                 -0.6632560000      2.8231180000     -1.0196650000
C                 -0.5215960000      1.5193390000     -0.4990370000
C                 -2.8709110000      1.6174380000      0.1593600000
C                 -1.6613440000      0.9444510000      0.0891910000
C                  0.4753590000      3.5240410000     -1.6616710000
C                  1.8322660000      2.7743430000     -1.7426800000
C                  1.9002910000      1.4066390000     -1.1729020000
C                  0.7722230000      0.8044250000     -0.5764020000
C                  3.1270360000      0.7373470000     -1.2500960000
C                  3.2612310000     -0.5444350000     -0.7369400000
C                  2.1556380000     -1.1600560000     -0.1412710000
C                  0.9423550000     -0.4942840000     -0.0666010000
O                  0.3919130000      4.6425240000     -2.1194300000
O                  2.7788530000      3.3236980000     -2.2620000000
O                  4.4270200000     -1.2515120000     -0.7797120000
O                 -4.2057050000      3.5186960000     -0.2634240000
H                 -1.9322820000      4.5063320000     -1.3677730000
H                 -3.7368860000      1.1548640000      0.6173690000
H                 -1.6170970000     -0.0524090000      0.5064590000
H                  3.9596550000      1.2507140000     -1.7200780000
H                  2.2641290000     -2.1611310000      0.2584060000
H                  0.1154200000     -1.0098270000      0.4026460000
H                  5.1136470000     -0.7301280000     -1.2098100000
H                 -4.1672490000      4.3983120000     -0.6546780000
$end
$rem
MAX_SCF_CYCLES=200
BASIS  =  6-311++G(d,p)
GUI  =  2
JOB_TYPE  =  SP
METHOD  =  B3LYP
SOLVENT_METHOD = PCM
$end
$pcm
theory = CPCM
$end
$solvent
dielectric 37.219
opticaldielectric 1.43
$end

--------------------------------------------------------------

             Standard Nuclear Orientation (Angstroms)
    I     Atom           X                Y                Z
 ----------------------------------------------------------------
    1      C      -1.8831200000     3.5057350000    -0.9505460000
    2      C      -2.9893010000     2.9093670000    -0.3631540000
    3      C      -0.6632560000     2.8231180000    -1.0196650000
    4      C      -0.5215960000     1.5193390000    -0.4990370000
    5      C      -2.8709110000     1.6174380000     0.1593600000
    6      C      -1.6613440000     0.9444510000     0.0891910000
    7      C       0.4753590000     3.5240410000    -1.6616710000
    8      C       1.8322660000     2.7743430000    -1.7426800000
    9      C       1.9002910000     1.4066390000    -1.1729020000
   10      C       0.7722230000     0.8044250000    -0.5764020000
   11      C       3.1270360000     0.7373470000    -1.2500960000
   12      C       3.2612310000    -0.5444350000    -0.7369400000
   13      C       2.1556380000    -1.1600560000    -0.1412710000
   14      C       0.9423550000    -0.4942840000    -0.0666010000
   15      O       0.3919130000     4.6425240000    -2.1194300000
   16      O       2.7788530000     3.3236980000    -2.2620000000
   17      O       4.4270200000    -1.2515120000    -0.7797120000
   18      O      -4.2057050000     3.5186960000    -0.2634240000
   19      H      -1.9322820000     4.5063320000    -1.3677730000
   20      H      -3.7368860000     1.1548640000     0.6173690000
   21      H      -1.6170970000    -0.0524090000     0.5064590000
   22      H       3.9596550000     1.2507140000    -1.7200780000
   23      H       2.2641290000    -2.1611310000     0.2584060000
   24      H       0.1154200000    -1.0098270000     0.4026460000
   25      H       5.1136470000    -0.7301280000    -1.2098100000
   26      H      -4.1672490000     4.3983120000    -0.6546780000
 ----------------------------------------------------------------

    9    -839.4594863263      2.12e-06  Convergence criterion met
 Total energy in the final basis set =     -839.4594863263

                    Orbital Energies (a.u.)
 --------------------------------------------------------------

 Alpha MOs
 -- Occupied --
-19.1674 -19.1674 -19.1445 -19.1445 -10.2862 -10.2860 -10.2550 -10.2549
-10.2115 -10.2112 -10.2059 -10.2058 -10.1953 -10.1953 -10.1949 -10.1948
-10.1943 -10.1943  -1.0910  -1.0792  -1.0792  -1.0641  -0.8995  -0.8716
 -0.8078  -0.7891  -0.7775  -0.7413  -0.7135  -0.6606  -0.6486  -0.6215
 -0.6182  -0.5816  -0.5663  -0.5374  -0.5212  -0.5081  -0.4940  -0.4848
 -0.4677  -0.4649  -0.4577  -0.4571  -0.4495  -0.4325  -0.4292  -0.4273
 -0.4169  -0.4016  -0.3978  -0.3837  -0.3807  -0.3783  -0.3600  -0.3438
 -0.3183  -0.2844  -0.2775  -0.2765  -0.2699  -0.2248

          Ground-State Mulliken Net Atomic Charges

     Atom                 Charge (a.u.)
  ----------------------------------------
      1 C                     0.260580
      2 C                    -0.541109
      3 C                     0.757817
      4 C                     0.487017
      5 C                    -0.439430
      6 C                    -0.341360
      7 C                    -0.523805
      8 C                    -0.524784
      9 C                     0.758549
     10 C                     0.486122
     11 C                     0.261158
     12 C                    -0.541166
     13 C                    -0.439621
     14 C                    -0.341639
     15 O                    -0.285380
     16 O                    -0.284770
     17 O                    -0.286267
     18 O                    -0.286403
     19 H                     0.187488
     20 H                     0.246470
     21 H                     0.149980
     22 H                     0.187513
     23 H                     0.246703
     24 H                     0.149565
     25 H                     0.328400
     26 H                     0.328373
  ----------------------------------------
  Sum of atomic charges =     0.000000

                    Cartesian Multipole Moments
 -----------------------------------------------------------------
    Charge (ESU x 10^10)
                 0.0000
    Dipole Moment (Debye)
         X      -2.2820      Y      -4.4115      Z       2.5848
       Tot       5.5991
    Quadrupole Moments (Debye-Ang)
        XX     -92.3848     XY     -18.1449     YY    -121.7576
        XZ       3.9902     YZ      12.5278     ZZ    -111.8302

 Total job time:  44.77s(wall), 335.62s(cpu)
        *  Thank you very much for using Q-Chem.  Have a nice day.  *
