 Gaussian 16, Revision A.03,
 Gaussian 16:  ES64L-G16RevA.03 25-Dec-2016

 ----------------------------------------------------------------
 #P UB3LYP/6-311++G(d,p) SCRF=(PCM,Solvent=n,n-DiMethylFormamide)
 ----------------------------------------------------------------

 ------------------
 Quinone PCM in DMF
 ------------------
 Symbolic Z-matrix:
 Charge =  0 Multiplicity = 1

                         Standard orientation:
 ---------------------------------------------------------------------
 Center     Atomic      Atomic             Coordinates (Angstroms)
 Number     Number       Type             X           Y           Z
 ---------------------------------------------------------------------
      1          6           0       -1.131408   -2.551914   -0.000260
      2          6           0       -0.319020   -1.293059   -0.000189
      3          6           0        1.024633   -1.266140    0.000009
      4          6           0        1.789234   -0.000250    0.000113
      5          8           0        3.012047   -0.000458    0.000099
      6          6           0        1.025015    1.265840    0.000077
      7          6           0       -0.318635    1.293147   -0.000141
      8          6           0       -1.130603    2.552286   -0.000301
      9          6           0       -1.077900    0.000131    0.000048
     10          8           0       -2.298011    0.000319    0.000554
     11          1           0       -1.787006   -2.587379   -0.874679
     12          1           0       -0.487653   -3.432156   -0.000529
     13          1           0       -1.786454   -2.587678    0.874588
     14          1           0        1.619268   -2.173949   -0.000004
     15          1           0        1.619920    2.173474    0.000033
     16          1           0       -0.486521    3.432286   -0.001814
     17          1           0       -1.784752    2.588927    0.875185
     18          1           0       -1.786985    2.587339   -0.874139
 ---------------------------------------------------------------------

 SCF Done:  E(UB3LYP) =  -460.235106037     A.U. after   14 cycles

 The electronic state is 1-A.
 Alpha  occ. eigenvalues --  -19.14495 -19.13886 -10.28747 -10.28333 -10.22093
 Alpha  occ. eigenvalues --  -10.22092 -10.20317 -10.20316 -10.17902 -10.17902
 Alpha  occ. eigenvalues --   -1.07622  -1.06836  -0.86813  -0.82002  -0.74560
 Alpha  occ. eigenvalues --   -0.71258  -0.68393  -0.60625  -0.59335  -0.53309
 Alpha  occ. eigenvalues --   -0.50661  -0.47345  -0.46564  -0.44366  -0.44275
 Alpha  occ. eigenvalues --   -0.43070  -0.42895  -0.42544  -0.40770  -0.39976
 Alpha  occ. eigenvalues --   -0.39505  -0.38870  -0.30551  -0.29203  -0.28630
 Alpha  occ. eigenvalues --   -0.27889
 Alpha virt. eigenvalues --   -0.13346  -0.02476  -0.00728  -0.00293   0.00676
 Alpha virt. eigenvalues --    0.01209   0.02844   0.02869   0.03142   0.05063
 Alpha virt. eigenvalues --    0.05235   0.05842   0.06188   0.06568   0.07896

  Beta  occ. eigenvalues --  -19.14495 -19.13886 -10.28747 -10.28333 -10.22093
  Beta  occ. eigenvalues --  -10.22092 -10.20317 -10.20316 -10.17902 -10.17902
  Beta  occ. eigenvalues --   -1.07622  -1.06836  -0.86813  -0.82002  -0.74560
  Beta  occ. eigenvalues --   -0.71258  -0.68393  -0.60625  -0.59335  -0.53309
  Beta  occ. eigenvalues --   -0.50661  -0.47345  -0.46564  -0.44366  -0.44275
  Beta  occ. eigenvalues --   -0.43070  -0.42895  -0.42544  -0.40770  -0.39976
  Beta  occ. eigenvalues --   -0.39505  -0.38870  -0.30551  -0.29203  -0.28630
  Beta  occ. eigenvalues --   -0.27889
  Beta virt. eigenvalues --   -0.13346  -0.02476  -0.00728  -0.00293   0.00676
  Beta virt. eigenvalues --    0.01209   0.02844   0.02869   0.03142   0.05063
  Beta virt. eigenvalues --    0.05235   0.05842   0.06188   0.06568   0.07896

 Mulliken charges and spin densities:
               1          2
     1  C   -0.348391   0.000000
     2  C    1.390389  -0.000000
     3  C   -0.615180  -0.000000
     4  C   -0.237121  -0.000000
     5  O   -0.307058   0.000000
     6  C   -0.615150  -0.000000
     7  C    1.390325  -0.000000
     8  C   -0.348361   0.000000
     9  C   -1.569220   0.000000
    10  O   -0.245432   0.000000
    11  H    0.188838   0.000000
    12  H    0.166859   0.000000
    13  H    0.188869   0.000000
    14  H    0.208038   0.000000
    15  H    0.208033  -0.000000
    16  H    0.166861  -0.000000
    17  H    0.188936   0.000000
    18  H    0.188765   0.000000
 Sum of Mulliken charges =  -0.00000  -0.00000

 Dipole moment (field-independent basis, Debye):
    X=             -1.6582    Y=              0.0003    Z=             -0.0010  Tot=              1.6582
 Quadrupole moment (field-independent basis, Debye-Ang):
   XX=            -80.3116   YY=            -46.9493   ZZ=            -58.3031
   XY=              0.0051   XZ=              0.0030   YZ=              0.0003

 Normal termination of Gaussian 16 at Sun Jan 21 06:56:26 2024.
