 Q-Chem 5.4, Q-Chem, Inc., Pleasanton, CA (2021)
 Q-Chem 5.4.0 for Intel X86 EM64T Linux

User input:
--------------------------------------------------------------
$molecule
-2 1
Cl                -2.5166040000      2.8736260000      1.6226190000
C                 -2.3869310000      1.1905610000      0.9984920000
C                 -3.6064410000      0.5592540000      0.8698190000
C                 -3.6597310000     -0.7444700000      0.3078770000
C                 -2.5005190000     -1.3322150000     -0.1351110000
C                 -1.2383660000     -0.6919230000     -0.0290580000
C                 -0.0937170000     -1.3923890000     -0.5522190000
O                 -0.1815000000     -2.5751230000     -1.0639340000
C                  1.1511880000     -0.6708420000     -0.4874450000
C                  2.2949920000     -1.2896410000     -1.0558620000
C                  3.5258330000     -0.6811940000     -1.0707900000
C                  3.6626230000      0.6224740000     -0.5231060000
C                  2.5669200000      1.2332640000      0.0502150000
Cl                 2.8908490000      2.9193440000      0.5899710000
C                  1.2741260000      0.6449250000      0.1445720000
C                  0.1525780000      1.2570990000      0.8535970000
O                  0.2947620000      2.2389740000      1.6415110000
C                 -1.1411250000      0.6239200000      0.6070990000
H                 -4.5097740000      1.0747280000      1.1751150000
H                 -4.6178410000     -1.2520650000      0.2158580000
H                 -2.4915480000     -2.3155650000     -0.5932160000
H                  2.1336320000     -2.2740530000     -1.4822490000
H                  4.3901430000     -1.1724200000     -1.5132190000
H                  4.6062540000      1.1537280000     -0.5709350000
$end

$rem
BASIS  =  6-311++G(d,p)
GUI  =  2
JOB_TYPE  =  SP
METHOD  =  B3LYP
SCF_CONVERGENCE  = 8
SOLVENT_METHOD = sm12
$end

$smx
solvent dimethylformamide
charges CM5
$end

--------------------------------------------------------------

             Standard Nuclear Orientation (Angstroms)
    I     Atom           X                Y                Z
 ----------------------------------------------------------------
    1      Cl     -2.5166040000     2.8736260000     1.6226190000
    2      C      -2.3869310000     1.1905610000     0.9984920000
    3      C      -3.6064410000     0.5592540000     0.8698190000
    4      C      -3.6597310000    -0.7444700000     0.3078770000
    5      C      -2.5005190000    -1.3322150000    -0.1351110000
    6      C      -1.2383660000    -0.6919230000    -0.0290580000
    7      C      -0.0937170000    -1.3923890000    -0.5522190000
    8      O      -0.1815000000    -2.5751230000    -1.0639340000
    9      C       1.1511880000    -0.6708420000    -0.4874450000
   10      C       2.2949920000    -1.2896410000    -1.0558620000
   11      C       3.5258330000    -0.6811940000    -1.0707900000
   12      C       3.6626230000     0.6224740000    -0.5231060000
   13      C       2.5669200000     1.2332640000     0.0502150000
   14      Cl      2.8908490000     2.9193440000     0.5899710000
   15      C       1.2741260000     0.6449250000     0.1445720000
   16      C       0.1525780000     1.2570990000     0.8535970000
   17      O       0.2947620000     2.2389740000     1.6415110000
   18      C      -1.1411250000     0.6239200000     0.6070990000
   19      H      -4.5097740000     1.0747280000     1.1751150000
   20      H      -4.6178410000    -1.2520650000     0.2158580000
   21      H      -2.4915480000    -2.3155650000    -0.5932160000
   22      H       2.1336320000    -2.2740530000    -1.4822490000
   23      H       4.3901430000    -1.1724200000    -1.5132190000
   24      H       4.6062540000     1.1537280000    -0.5709350000
 ----------------------------------------------------------------

   18   -1608.1585243684      6.90e-09  Convergence criterion met
 Total energy in the final basis set =    -1608.4250471984

                    Orbital Energies (a.u.)
 --------------------------------------------------------------

 Alpha MOs
 -- Occupied --
********-101.5351 -19.0288 -19.0244 -10.2283 -10.2282 -10.2020 -10.1842
-10.1749 -10.1748 -10.1718 -10.1717 -10.1679 -10.1678 -10.1653 -10.1652
-10.1577 -10.1577  -9.4485  -9.4484  -7.2130  -7.2129  -7.2038  -7.2037
 -7.2029  -7.2029  -0.9584  -0.9411  -0.8705  -0.8684  -0.8200  -0.8157
 -0.7732  -0.7307  -0.7260  -0.7226  -0.6558  -0.6284  -0.6158  -0.5673
 -0.5435  -0.5243  -0.5143  -0.4692  -0.4570  -0.4566  -0.4495  -0.4184
 -0.4184  -0.4063  -0.4051  -0.3894  -0.3828  -0.3776  -0.3664  -0.3492
 -0.3469  -0.3418  -0.3338  -0.3202  -0.3181  -0.3015  -0.3010  -0.2900
 -0.2409  -0.2390  -0.2390  -0.2303  -0.2051  -0.1946  -0.1169

          Ground-State Mulliken Net Atomic Charges

     Atom                 Charge (a.u.)
  ----------------------------------------
      1 Cl                    0.995365
      2 C                     0.834817
      3 C                     1.740946
      4 C                     1.012814
      5 C                    -0.033699
      6 C                    -2.212708
      7 C                    -4.178148
      8 O                    -0.362427
      9 C                    -2.220972
     10 C                    -0.042186
     11 C                     0.999425
     12 C                     1.730478
     13 C                     0.839890
     14 Cl                    0.995795
     15 C                     0.251802
     16 C                    -4.191214
     17 O                    -0.102311
     18 C                     0.274789
     19 H                     0.372868
     20 H                     0.367644
     21 H                     0.094185
     22 H                     0.093872
     23 H                     0.366681
     24 H                     0.372295
  ----------------------------------------
  Sum of atomic charges =    -2.000000

                    Cartesian Multipole Moments
 -----------------------------------------------------------------
    Charge (ESU x 10^10)
                -9.6064
    Dipole Moment (Debye)
         X      -0.3917      Y      -1.5337      Z      -2.0192
       Tot       2.5657
    Quadrupole Moments (Debye-Ang)
        XX    -161.3921     XY      -4.1151     YY    -175.9970
        XZ       3.6490     YZ     -22.1671     ZZ    -144.0436

 Total job time:  615.72s(wall), 4587.62s(cpu)
        *  Thank you very much for using Q-Chem.  Have a nice day.  *
