 Gaussian 16, Revision A.03,
 Gaussian 16:  ES64L-G16RevA.03 25-Dec-2016

 --------------------------------------
 #P UB3LYP/6-311++G(d,p) nosym opt freq
 --------------------------------------

 -------
 Reduced
 -------
 Symbolic Z-matrix:
 Charge = -2 Multiplicity = 1

 SCF Done:  E(UB3LYP) =  -1608.16569171     A.U. after   24 cycles
 SCF Done:  E(UB3LYP) =  -1608.16569248     A.U. after   14 cycles
 SCF Done:  E(UB3LYP) =  -1608.16569350     A.U. after   16 cycles
 SCF Done:  E(UB3LYP) =  -1608.16569447     A.U. after   16 cycles
 SCF Done:  E(UB3LYP) =  -1608.16570154     A.U. after   18 cycles
 SCF Done:  E(UB3LYP) =  -1608.16570912     A.U. after   18 cycles
 SCF Done:  E(UB3LYP) =  -1608.16578988     A.U. after   19 cycles
 SCF Done:  E(UB3LYP) =  -1608.12348675     A.U. after   21 cycles
 SCF Done:  E(UB3LYP) =  -1608.16510512     A.U. after   22 cycles
 SCF Done:  E(UB3LYP) =  -1608.16610308     A.U. after   19 cycles
 SCF Done:  E(UB3LYP) =  -1608.16615681     A.U. after   19 cycles
 SCF Done:  E(UB3LYP) =  -1608.16619890     A.U. after   18 cycles
 SCF Done:  E(UB3LYP) =  -1608.16620185     A.U. after   18 cycles
 SCF Done:  E(UB3LYP) =  -1608.16620333     A.U. after   17 cycles
 SCF Done:  E(UB3LYP) =  -1608.16620361     A.U. after   15 cycles
 Optimization completed.
    -- Stationary point found.
 Normal termination of Gaussian 16 at Fri Jan 12 22:11:46 2024.

 ----------------------------------------------------------------------
 #P Geom=AllCheck Guess=TCheck SCRF=Check GenChk UB3LYP/6-311++G(d,p) F
 req
 ----------------------------------------------------------------------

 Structure from the checkpoint file:  "122-an.chk"
 -------
 Reduced
 -------
 Charge = -2 Multiplicity = 1

                          Input orientation:
 ---------------------------------------------------------------------
 Center     Atomic      Atomic             Coordinates (Angstroms)
 Number     Number       Type             X           Y           Z
 ---------------------------------------------------------------------
      1         17           0       -2.516604    2.873626    1.622619
      2          6           0       -2.386931    1.190561    0.998492
      3          6           0       -3.606441    0.559254    0.869819
      4          6           0       -3.659731   -0.744470    0.307877
      5          6           0       -2.500519   -1.332215   -0.135111
      6          6           0       -1.238366   -0.691923   -0.029058
      7          6           0       -0.093717   -1.392389   -0.552219
      8          8           0       -0.181500   -2.575123   -1.063934
      9          6           0        1.151188   -0.670842   -0.487445
     10          6           0        2.294992   -1.289641   -1.055862
     11          6           0        3.525833   -0.681194   -1.070790
     12          6           0        3.662623    0.622474   -0.523106
     13          6           0        2.566920    1.233264    0.050215
     14         17           0        2.890849    2.919344    0.589971
     15          6           0        1.274126    0.644925    0.144572
     16          6           0        0.152578    1.257099    0.853597
     17          8           0        0.294762    2.238974    1.641511
     18          6           0       -1.141125    0.623920    0.607099
     19          1           0       -4.509774    1.074728    1.175115
     20          1           0       -4.617841   -1.252065    0.215858
     21          1           0       -2.491548   -2.315565   -0.593216
     22          1           0        2.133632   -2.274053   -1.482249
     23          1           0        4.390143   -1.172420   -1.513219
     24          1           0        4.606254    1.153728   -0.570935
 ---------------------------------------------------------------------

 SCF Done:  E(UB3LYP) =  -1608.16620361     A.U. after    2 cycles

 Alpha  occ. eigenvalues -- -101.30534-101.30534 -18.78227 -18.77581  -9.99088
 Alpha  occ. eigenvalues --   -9.99087  -9.95559  -9.93786  -9.93549  -9.93548
 Alpha  occ. eigenvalues --   -9.93492  -9.93492  -9.92347  -9.92345  -9.92291
 Alpha  occ. eigenvalues --   -9.92290  -9.91161  -9.91160  -9.21986  -9.21986
 Alpha  occ. eigenvalues --   -6.98411  -6.98411  -6.97521  -6.97521  -6.97429
 Alpha  occ. eigenvalues --   -6.97429  -0.71203  -0.69310  -0.63337  -0.63131
 Alpha  occ. eigenvalues --   -0.58315  -0.57883  -0.53067  -0.48973  -0.48669
 Alpha  occ. eigenvalues --   -0.48396  -0.41283  -0.38759  -0.37488  -0.32769
 Alpha  occ. eigenvalues --   -0.30238  -0.28457  -0.27489  -0.23124  -0.21978
 Alpha  occ. eigenvalues --   -0.21472  -0.20855  -0.18200  -0.18175  -0.16408
 Alpha  occ. eigenvalues --   -0.16187  -0.15264  -0.14306  -0.14058  -0.12020
 Alpha  occ. eigenvalues --   -0.10987  -0.10796  -0.09960  -0.09118  -0.08608
 Alpha  occ. eigenvalues --   -0.07643  -0.07445  -0.06571  -0.06242  -0.00301
 Alpha  occ. eigenvalues --    0.00206   0.00550   0.01341   0.04162   0.04954
 Alpha  occ. eigenvalues --    0.12926
 Alpha virt. eigenvalues --    0.16285   0.16312   0.18222   0.18273   0.19372
 Alpha virt. eigenvalues --    0.20300   0.21407   0.21508   0.21714   0.22473
 Alpha virt. eigenvalues --    0.23294   0.24840   0.25454   0.25913   0.26417

  Beta  occ. eigenvalues -- -101.30534-101.30534 -18.78227 -18.77581  -9.99088
  Beta  occ. eigenvalues --   -9.99087  -9.95559  -9.93786  -9.93549  -9.93548
  Beta  occ. eigenvalues --   -9.93492  -9.93492  -9.92347  -9.92345  -9.92291
  Beta  occ. eigenvalues --   -9.92290  -9.91161  -9.91160  -9.21986  -9.21986
  Beta  occ. eigenvalues --   -6.98411  -6.98411  -6.97521  -6.97521  -6.97429
  Beta  occ. eigenvalues --   -6.97429  -0.71203  -0.69310  -0.63337  -0.63131
  Beta  occ. eigenvalues --   -0.58315  -0.57883  -0.53067  -0.48973  -0.48669
  Beta  occ. eigenvalues --   -0.48396  -0.41283  -0.38759  -0.37488  -0.32769
  Beta  occ. eigenvalues --   -0.30238  -0.28457  -0.27489  -0.23124  -0.21978
  Beta  occ. eigenvalues --   -0.21472  -0.20855  -0.18200  -0.18175  -0.16408
  Beta  occ. eigenvalues --   -0.16187  -0.15264  -0.14306  -0.14058  -0.12020
  Beta  occ. eigenvalues --   -0.10987  -0.10796  -0.09960  -0.09118  -0.08608
  Beta  occ. eigenvalues --   -0.07643  -0.07445  -0.06571  -0.06242  -0.00301
  Beta  occ. eigenvalues --    0.00206   0.00550   0.01341   0.04162   0.04954
  Beta  occ. eigenvalues --    0.12926
  Beta virt. eigenvalues --    0.16285   0.16312   0.18222   0.18273   0.19372
  Beta virt. eigenvalues --    0.20300   0.21407   0.21508   0.21714   0.22473
  Beta virt. eigenvalues --    0.23294   0.24840   0.25454   0.25913   0.26417

 Mulliken charges and spin densities:
               1          2
     1  Cl   0.312995  -0.000000
     2  C    0.840314  -0.000000
     3  C   -0.517369   0.000000
     4  C   -0.762144   0.000000
     5  C    0.266275   0.000000
     6  C    0.435229  -0.000000
     7  C   -1.177946  -0.000000
     8  O   -0.503726   0.000000
     9  C    0.435406  -0.000000
    10  C    0.267650  -0.000000
    11  C   -0.762647   0.000000
    12  C   -0.516098  -0.000000
    13  C    0.841885   0.000000
    14  Cl   0.312958  -0.000000
    15  C    0.448789  -0.000000
    16  C   -2.714156  -0.000000
    17  O   -0.283918   0.000000
    18  C    0.450664   0.000000
    19  H    0.091559  -0.000000
    20  H    0.075757  -0.000000
    21  H    0.145568   0.000000
    22  H    0.145576  -0.000000
    23  H    0.075751   0.000000
    24  H    0.091624  -0.000000
 Sum of Mulliken charges =  -2.00000  -0.00000

 Dipole moment (field-independent basis, Debye):
    X=             -0.4638    Y=             -3.1998    Z=             -2.5668  Tot=              4.1282
 Quadrupole moment (field-independent basis, Debye-Ang):
   XX=           -172.8118   YY=           -178.8029   ZZ=           -144.2414
   XY=             -4.4481   XZ=              5.8960   YZ=            -23.4472

  Exact polarizability: 429.345  12.466 261.307 -51.939  56.848 171.175
 Approx polarizability: 769.700  27.730 468.186 -96.965 129.988 288.893

                      1                      2                      3
                      A                      A                      A
 Frequencies --     39.0661                43.3818                68.1328
 Red. masses --     10.1994                10.7326                 9.0157
 Frc consts  --      0.0092                 0.0119                 0.0247
 IR Inten    --      0.0236                 5.1084                 0.8216

                      4                      5                      6
                      A                      A                      A
 Frequencies --    149.2430               167.1036               189.6778
 Red. masses --     16.3561                 8.8219                 4.5796
 Frc consts  --      0.2146                 0.1451                 0.0971
 IR Inten    --      3.6869                 3.6198                 0.0012

                      7                      8                      9
                      A                      A                      A
 Frequencies --    207.9211               214.6405               264.8013
 Red. masses --      4.8958                15.0813                 6.4892
 Frc consts  --      0.1247                 0.4094                 0.2681
 IR Inten    --      1.7934                 0.7533                 0.8487

                     10                     11                     12
                      A                      A                      A
 Frequencies --    299.8954               316.4575               363.6591
 Red. masses --      8.1998                14.5219                 8.0379
 Frc consts  --      0.4345                 0.8569                 0.6263
 IR Inten    --      0.3893                 2.3731                 6.2788

                     13                     14                     15
                      A                      A                      A
 Frequencies --    370.9309               376.8917               380.9397
 Red. masses --     11.5552                 8.7400                 7.2409
 Frc consts  --      0.9367                 0.7315                 0.6191
 IR Inten    --      1.5183                 3.5939                 7.5315

                     16                     17                     18
                      A                      A                      A
 Frequencies --    422.8215               472.9199               482.9314
 Red. masses --      8.7938                 8.7572                 4.2682
 Frc consts  --      0.9263                 1.1540                 0.5865
 IR Inten    --      6.4163                12.1875                 0.6150

                     19                     20                     21
                      A                      A                      A
 Frequencies --    493.0527               509.4784               558.7562
 Red. masses --      6.4747                 8.8190                 5.1905
 Frc consts  --      0.9274                 1.3487                 0.9548
 IR Inten    --      3.1145                 2.7364                 5.6427

                     22                     23                     24
                      A                      A                      A
 Frequencies --    600.6663               623.8660               674.3433
 Red. masses --      5.2868                 5.0510                 7.0869
 Frc consts  --      1.1238                 1.1583                 1.8988
 IR Inten    --     21.4009                25.2015                17.3973

                     25                     26                     27
                      A                      A                      A
 Frequencies --    687.4903               693.8976               710.8982
 Red. masses --      2.6933                 1.6278                 3.9611
 Frc consts  --      0.7500                 0.4618                 1.1795
 IR Inten    --      0.4192                98.3739                14.0499

                     28                     29                     30
                      A                      A                      A
 Frequencies --    736.4390               740.3725               748.3494
 Red. masses --      2.9247                 2.3612                 5.5593
 Frc consts  --      0.9346                 0.7626                 1.8343
 IR Inten    --     39.6456                 3.1411                80.0715

                     31                     32                     33
                      A                      A                      A
 Frequencies --    790.5700               795.7396               809.6984
 Red. masses --      1.8562                 1.3473                 3.9836
 Frc consts  --      0.6835                 0.5026                 1.5388
 IR Inten    --      0.8459                 2.8396                 3.1455

                     34                     35                     36
                      A                      A                      A
 Frequencies --    835.3107               924.4043               951.0978
 Red. masses --      8.4099                 6.8255                 8.1918
 Frc consts  --      3.4573                 3.4364                 4.3660
 IR Inten    --     70.8560                 1.6210                 2.1192

                     37                     38                     39
                      A                      A                      A
 Frequencies --    959.3079               963.1401              1057.1872
 Red. masses --      1.2790                 1.3088                 2.1053
 Frc consts  --      0.6935                 0.7153                 1.3863
 IR Inten    --      0.1728                 3.4416               301.2520

                     40                     41                     42
                      A                      A                      A
 Frequencies --   1058.5867              1089.3541              1099.1619
 Red. masses --      2.2692                 4.0753                 2.0103
 Frc consts  --      1.4982                 2.8494                 1.4310
 IR Inten    --      6.8985                16.4968                 8.3996

                     43                     44                     45
                      A                      A                      A
 Frequencies --   1116.8355              1154.8089              1181.3391
 Red. masses --      2.4920                 1.3608                 2.7563
 Frc consts  --      1.8313                 1.0692                 2.2663
 IR Inten    --    303.0653                12.5447                 0.3900

                     46                     47                     48
                      A                      A                      A
 Frequencies --   1204.7182              1222.0649              1302.3317
 Red. masses --      2.1363                 2.6381                 6.8230
 Frc consts  --      1.8268                 2.3213                 6.8182
 IR Inten    --     87.2568                60.2219               264.5163

                     49                     50                     51
                      A                      A                      A
 Frequencies --   1309.6909              1333.2495              1343.6147
 Red. masses --      4.1767                 2.3381                 3.4504
 Frc consts  --      4.2210                 2.4487                 3.6700
 IR Inten    --    399.1025                21.7624               594.4182

                     52                     53                     54
                      A                      A                      A
 Frequencies --   1407.5896              1438.1768              1456.6212
 Red. masses --      3.7007                 2.9816                 4.3401
 Frc consts  --      4.3200                 3.6335                 5.4255
 IR Inten    --    104.4626               173.1446                80.8244

                     55                     56                     57
                      A                      A                      A
 Frequencies --   1457.3208              1501.9635              1507.7957
 Red. masses --      5.6194                 6.2862                 5.3781
 Frc consts  --      7.0316                 8.3552                 7.2039
 IR Inten    --    303.4329               373.6262                80.0678

                     58                     59                     60
                      A                      A                      A
 Frequencies --   1558.1298              1577.5063              1582.0009
 Red. masses --      6.6509                 5.1806                 6.9708
 Frc consts  --      9.5134                 7.5958                10.2789
 IR Inten    --     44.7712                14.7829                34.1721

                     61                     62                     63
                      A                      A                      A
 Frequencies --   3109.1058              3109.2253              3163.4091
 Red. masses --      1.0853                 1.0857                 1.0900
 Frc consts  --      6.1811                 6.1840                 6.4266
 IR Inten    --     68.7633                82.8110                38.8330

                     64                     65                     66
                      A                      A                      A
 Frequencies --   3163.4481              3168.1614              3169.0275
 Red. masses --      1.0899                 1.0920                 1.0921
 Frc consts  --      6.4261                 6.4576                 6.4619
 IR Inten    --     17.4570                74.9560                10.7592

 - Thermochemistry -
 -------------------
 Temperature   298.150 Kelvin.  Pressure   1.00000 Atm.
 Atom     1 has atomic number 17 and mass  34.96885

 Molecular mass:   275.97448 amu.
 Principal axes and moments of inertia in atomic units:
                           1         2         3
     Eigenvalues --  3543.616445905.148959382.92644
           X            0.98213   0.06776   0.17560
           Y            0.00860   0.91584  -0.40145
           Z           -0.18802   0.39578   0.89889
 This molecule is an asymmetric top.
 Rotational symmetry number  1.
 Warning -- assumption of classical behavior for rotation
           may cause significant error
 Rotational temperatures (Kelvin)      0.02444     0.01467     0.00923
 Rotational constants (GHZ):           0.50929     0.30562     0.19234
 Zero-point vibrational energy     403624.3 (Joules/Mol)
                                   96.46853 (Kcal/Mol)
 Warning -- explicit consideration of  22 degrees of freedom as
           vibrations may cause significant error
 Vibrational temperatures:     56.21    62.42    98.03   214.73   240.42
          (Kelvin)            272.90   299.15   308.82   380.99   431.48
                              455.31   523.22   533.69   542.26   548.09
                              608.35   680.43   694.83   709.39   733.03
                              803.93   864.22   897.60   970.23   989.15
                              998.36  1022.82  1059.57  1065.23  1076.71
                             1137.45  1144.89  1164.98  1201.83  1330.01
                             1368.42  1380.23  1385.74  1521.06  1523.07
                             1567.34  1581.45  1606.88  1661.51  1699.68
                             1733.32  1758.28  1873.76  1884.35  1918.25
                             1933.16  2025.21  2069.22  2095.75  2096.76
                             2160.99  2169.38  2241.80  2269.68  2276.15
                             4473.31  4473.48  4551.44  4551.50  4558.28
                             4559.52

 Zero-point correction=                           0.153732 (Hartree/Particle)
 Thermal correction to Energy=                    0.167861
 Thermal correction to Enthalpy=                  0.168805
 Thermal correction to Gibbs Free Energy=         0.111730
 Sum of electronic and zero-point Energies=          -1608.012471
 Sum of electronic and thermal Energies=             -1607.998342
 Sum of electronic and thermal Enthalpies=           -1607.997398
 Sum of electronic and thermal Free Energies=        -1608.054473

                     E (Thermal)             CV                S
                      KCal/Mol        Cal/Mol-Kelvin    Cal/Mol-Kelvin
 Total                  105.335             55.484            120.124
 Electronic               0.000              0.000              0.000
 Translational            0.889              2.981             42.744
 Rotational               0.889              2.981             33.640
 Vibrational            103.557             49.523             43.741
 Vibration     1          0.594              1.981              5.306
 Vibration     2          0.595              1.980              5.098
 Vibration     3          0.598              1.969              4.207
 Vibration     4          0.618              1.903              2.682
 Vibration     5          0.624              1.883              2.468
 Vibration     6          0.633              1.854              2.231
 Vibration     7          0.641              1.829              2.062
 Vibration     8          0.645              1.819              2.004
 Vibration     9          0.671              1.738              1.630
 Vibration    10          0.692              1.674              1.417
 Vibration    11          0.703              1.642              1.328
 Vibration    12          0.737              1.547              1.106
 Vibration    13          0.743              1.532              1.076
 Vibration    14          0.747              1.519              1.052
 Vibration    15          0.751              1.511              1.035
 Vibration    16          0.785              1.421              0.882
 Vibration    17          0.830              1.310              0.729
 Vibration    18          0.839              1.288              0.702
 Vibration    19          0.849              1.265              0.676
 Vibration    20          0.865              1.229              0.635
 Vibration    21          0.914              1.121              0.526
 Vibration    22          0.959              1.030              0.449

                           ! Non-Optimized Parameters !
 Normal termination of Gaussian 16 at Fri Jan 12 23:55:09 2024.
