 Q-Chem 5.4, Q-Chem, Inc., Pleasanton, CA (2021)
 Q-Chem 5.4.0 for Intel X86 EM64T Linux

User input:
--------------------------------------------------------------
$molecule
0 1
C                 -3.0152980000      3.7702920000      0.4075160000
C                 -4.2718310000      3.1954110000      0.5225650000
C                 -4.4402810000      1.8096460000      0.4780320000
C                 -1.8952400000      2.9526560000      0.2493280000
C                 -2.0458720000      1.5557670000      0.2082560000
C                 -3.3239910000      0.9999730000      0.3233700000
C                 -0.5526240000      3.5927190000      0.1259500000
C                  0.6235830000      2.6870990000     -0.0286330000
C                  0.4706560000      1.2904550000     -0.0695020000
C                 -0.8719240000      0.6530030000      0.0410720000
C                  1.8952440000      3.2525740000     -0.1344790000
C                  3.0009250000      2.4286600000     -0.2802870000
C                  2.8665360000      1.0392960000     -0.3286470000
C                  1.6008680000      0.4807680000     -0.2203490000
O                 -0.4220420000      4.8049780000      0.1511600000
O                 -1.0047060000     -0.5595820000     -0.0037320000
H                 -3.4238710000     -0.0776150000      0.2870170000
H                  1.4662920000     -0.5931590000     -0.2529860000
H                 -2.8956840000      4.8456680000      0.4355640000
H                  2.0087280000      4.3285960000     -0.1057870000
H                  3.7383460000      0.4102140000     -0.4420300000
O                  4.2264400000      3.0602270000     -0.4589300000
C                  5.3279920000      2.6877740000      0.2816870000
C                  6.5099020000      3.5289450000     -0.1118440000
O                  5.3077680000      1.8252930000      1.1136050000
O                 -5.3500330000      4.0697280000      0.5984660000
H                  6.3012600000      4.5801160000      0.1004570000
H                  6.6910250000      3.4419940000     -1.1852820000
H                  7.3856610000      3.2045830000      0.4457130000
C                 -6.3171390000      3.9161480000      1.5689240000
C                 -7.3566460000      4.9918340000      1.4217110000
O                 -6.2950930000      3.0497310000      2.3966980000
H                 -5.4264930000      1.3764970000      0.5699120000
H                 -6.8952040000      5.9718630000      1.5639890000
H                 -8.1403050000      4.8402880000      2.1605960000
H                 -7.7771590000      4.9717290000      0.4140750000
$end

$rem
BASIS  =  6-311++G(d,p)
GUI  =  2
JOB_TYPE  =  SP
METHOD  =  B3LYP
SCF_CONVERGENCE  = 8
SOLVENT_METHOD = sm12
$end

$smx
solvent dimethylformamide
charges CM5
$end

--------------------------------------------------------------

             Standard Nuclear Orientation (Angstroms)
    I     Atom           X                Y                Z
 ----------------------------------------------------------------
    1      C      -3.0152980000     3.7702920000     0.4075160000
    2      C      -4.2718310000     3.1954110000     0.5225650000
    3      C      -4.4402810000     1.8096460000     0.4780320000
    4      C      -1.8952400000     2.9526560000     0.2493280000
    5      C      -2.0458720000     1.5557670000     0.2082560000
    6      C      -3.3239910000     0.9999730000     0.3233700000
    7      C      -0.5526240000     3.5927190000     0.1259500000
    8      C       0.6235830000     2.6870990000    -0.0286330000
    9      C       0.4706560000     1.2904550000    -0.0695020000
   10      C      -0.8719240000     0.6530030000     0.0410720000
   11      C       1.8952440000     3.2525740000    -0.1344790000
   12      C       3.0009250000     2.4286600000    -0.2802870000
   13      C       2.8665360000     1.0392960000    -0.3286470000
   14      C       1.6008680000     0.4807680000    -0.2203490000
   15      O      -0.4220420000     4.8049780000     0.1511600000
   16      O      -1.0047060000    -0.5595820000    -0.0037320000
   17      H      -3.4238710000    -0.0776150000     0.2870170000
   18      H       1.4662920000    -0.5931590000    -0.2529860000
   19      H      -2.8956840000     4.8456680000     0.4355640000
   20      H       2.0087280000     4.3285960000    -0.1057870000
   21      H       3.7383460000     0.4102140000    -0.4420300000
   22      O       4.2264400000     3.0602270000    -0.4589300000
   23      C       5.3279920000     2.6877740000     0.2816870000
   24      C       6.5099020000     3.5289450000    -0.1118440000
   25      O       5.3077680000     1.8252930000     1.1136050000
   26      O      -5.3500330000     4.0697280000     0.5984660000
   27      H       6.3012600000     4.5801160000     0.1004570000
   28      H       6.6910250000     3.4419940000    -1.1852820000
   29      H       7.3856610000     3.2045830000     0.4457130000
   30      C      -6.3171390000     3.9161480000     1.5689240000
   31      C      -7.3566460000     4.9918340000     1.4217110000
   32      O      -6.2950930000     3.0497310000     2.3966980000
   33      H      -5.4264930000     1.3764970000     0.5699120000
   34      H      -6.8952040000     5.9718630000     1.5639890000
   35      H      -8.1403050000     4.8402880000     2.1605960000
   36      H      -7.7771590000     4.9717290000     0.4140750000
 ----------------------------------------------------------------

   15   -1144.8407578171      6.70e-09  Convergence criterion met
 Total energy in the final basis set =    -1144.8700235566

                    Orbital Energies (a.u.)
 --------------------------------------------------------------

 Alpha MOs
 -- Occupied --
-19.1929 -19.1929 -19.1343 -19.1314 -19.1314 -19.1296 -10.3229 -10.3229
-10.2867 -10.2828 -10.2672 -10.2672 -10.2160 -10.2160 -10.2113 -10.2113
-10.2056 -10.2056 -10.2040 -10.2040 -10.2039 -10.2039 -10.1795 -10.1795
 -1.1317  -1.1317  -1.0691  -1.0640  -1.0512  -1.0512  -0.9011  -0.8904
 -0.8238  -0.7959  -0.7918  -0.7851  -0.7606  -0.7484  -0.7014  -0.6799
 -0.6723  -0.6333  -0.6293  -0.6044  -0.5915  -0.5529  -0.5416  -0.5224
 -0.5083  -0.5062  -0.5033  -0.4997  -0.4976  -0.4831  -0.4795  -0.4635
 -0.4612  -0.4593  -0.4568  -0.4556  -0.4520  -0.4358  -0.4302  -0.4215
 -0.4190  -0.4187  -0.4052  -0.4035  -0.3955  -0.3937  -0.3875  -0.3809
 -0.3796  -0.3669  -0.3462  -0.3430  -0.3034  -0.3027  -0.2899  -0.2883
 -0.2846  -0.2771  -0.2759  -0.2695

          Ground-State Mulliken Net Atomic Charges

     Atom                 Charge (a.u.)
  ----------------------------------------
      1 C                     0.089817
      2 C                    -0.269491
      3 C                     0.472577
      4 C                     0.170660
      5 C                    -0.058153
      6 C                     0.365033
      7 C                    -1.273310
      8 C                     0.174565
      9 C                    -0.059712
     10 C                    -1.338236
     11 C                     0.089259
     12 C                    -0.273388
     13 C                     0.476101
     14 C                     0.363860
     15 O                    -0.244398
     16 O                    -0.259811
     17 H                     0.230217
     18 H                     0.230164
     19 H                     0.226569
     20 H                     0.226633
     21 H                     0.278379
     22 O                     0.019868
     23 C                    -0.165674
     24 C                    -0.154532
     25 O                    -0.326187
     26 O                     0.019970
     27 H                     0.231615
     28 H                     0.239772
     29 H                     0.207353
     30 C                    -0.166385
     31 C                    -0.154304
     32 O                    -0.326274
     33 H                     0.278498
     34 H                     0.231872
     35 H                     0.207362
     36 H                     0.239712
  ----------------------------------------
  Sum of atomic charges =     0.000000

                    Cartesian Multipole Moments
 -----------------------------------------------------------------
    Charge (ESU x 10^10)
                 0.0000
    Dipole Moment (Debye)
         X       0.0461      Y       3.0595      Z      -2.4844
       Tot       3.9414
    Quadrupole Moments (Debye-Ang)
        XX     -89.1073     XY      -6.7994     YY    -125.0564
        XZ      -4.0881     YZ       0.1180     ZZ    -146.1511

 Total job time:  1129.06s(wall), 8836.65s(cpu)
        *  Thank you very much for using Q-Chem.  Have a nice day.  *
