 Q-Chem 5.4, Q-Chem, Inc., Pleasanton, CA (2021)
 Q-Chem 5.4.0 for Intel X86 EM64T Linux

User input:
--------------------------------------------------------------
$molecule
-2 1
C                 -1.3928500000      0.2610430000     -0.2008680000
C                 -0.9349420000     -1.0479310000     -0.3315330000
C                  0.4289150000     -1.4079870000     -0.0224150000
C                  1.3110810000     -0.3237500000      0.3402100000
C                  0.8895100000      1.0034880000      0.3085870000
C                 -0.4926650000      1.3543260000      0.0812590000
O                 -0.9018880000      2.5803930000      0.1275760000
O                  0.8379290000     -2.6341450000     -0.0679870000
C                  1.8619380000      2.1494900000      0.4850190000
C                  2.7083640000     -0.7022330000      0.7810080000
C                  3.6582920000      0.4635580000      0.9662900000
C                  3.2587160000      1.7435470000      0.9091250000
C                 -2.8616980000      0.6038570000     -0.3228310000
C                 -3.7446910000     -0.5280550000     -0.8073230000
C                 -3.2981690000     -1.7845300000     -0.9597190000
C                 -1.8354520000     -2.1576480000     -0.8292160000
H                  1.4472750000      2.8356710000      1.2405430000
C                  1.9439600000      2.9795920000     -0.8284970000
H                  3.1298780000     -1.3870130000      0.0280300000
C                  2.6415270000     -1.5259880000      2.0992980000
C                  5.0954320000      0.0838030000      1.2816250000
C                  4.2031610000      2.8944760000      1.2126870000
C                 -5.1965210000     -0.1553790000     -1.0565930000
C                 -4.2265810000     -2.9273270000     -1.3351560000
C                 -1.3154760000     -2.6861820000     -2.1971460000
H                  2.3797990000      2.3685760000     -1.6267980000
H                  2.5627830000      3.8792990000     -0.7064420000
H                  0.9340420000      3.2828400000     -1.1071320000
H                  2.2568190000     -0.8975970000      2.9102730000
H                  3.6293350000     -1.9048480000      2.3959890000
H                  1.9729570000     -2.3731710000      1.9416610000
H                  5.3359200000     -0.8891200000      0.8405560000
H                  5.2824240000     -0.0073070000      2.3619050000
H                  5.8147020000      0.8094170000      0.8910540000
H                  4.9410100000      2.6387790000      1.9785640000
H                  3.6401420000      3.7615170000      1.5735860000
H                  4.7607150000      3.2303180000      0.3257800000
H                 -5.2733440000      0.8985890000     -1.3433320000
H                 -5.8262510000     -0.2836510000     -0.1637060000
H                 -5.6485940000     -0.7483620000     -1.8568350000
H                 -5.2302680000     -2.8046610000     -0.9181030000
H                 -3.8284610000     -3.8769930000     -0.9628020000
H                 -4.3402300000     -3.0407370000     -2.4234880000
C                 -3.3970810000      1.1262980000      1.0415410000
H                 -2.9574200000      1.4515920000     -1.0197960000
H                 -1.7468430000     -3.0070720000     -0.1333420000
H                 -1.4008810000     -1.8996610000     -2.9552210000
H                 -1.8850970000     -3.5603040000     -2.5418100000
H                 -0.2694960000     -2.9721110000     -2.0800830000
H                 -3.3619730000      0.3229300000      1.7858130000
H                 -4.4343460000      1.4808830000      0.9659520000
H                 -2.7651840000      1.9545980000      1.3643030000
$end

$rem
BASIS  =  6-311++G(d,p)
GUI  =  2
JOB_TYPE  =  SP
METHOD  =  B3LYP
SCF_CONVERGENCE  = 8
SOLVENT_METHOD = sm12
$end

$smx
solvent dimethylformamide
charges CM5
$end

--------------------------------------------------------------

             Standard Nuclear Orientation (Angstroms)
    I     Atom           X                Y                Z
 ----------------------------------------------------------------
    1      C      -1.3928500000     0.2610430000    -0.2008680000
    2      C      -0.9349420000    -1.0479310000    -0.3315330000
    3      C       0.4289150000    -1.4079870000    -0.0224150000
    4      C       1.3110810000    -0.3237500000     0.3402100000
    5      C       0.8895100000     1.0034880000     0.3085870000
    6      C      -0.4926650000     1.3543260000     0.0812590000
    7      O      -0.9018880000     2.5803930000     0.1275760000
    8      O       0.8379290000    -2.6341450000    -0.0679870000
    9      C       1.8619380000     2.1494900000     0.4850190000
   10      C       2.7083640000    -0.7022330000     0.7810080000
   11      C       3.6582920000     0.4635580000     0.9662900000
   12      C       3.2587160000     1.7435470000     0.9091250000
   13      C      -2.8616980000     0.6038570000    -0.3228310000
   14      C      -3.7446910000    -0.5280550000    -0.8073230000
   15      C      -3.2981690000    -1.7845300000    -0.9597190000
   16      C      -1.8354520000    -2.1576480000    -0.8292160000
   17      H       1.4472750000     2.8356710000     1.2405430000
   18      C       1.9439600000     2.9795920000    -0.8284970000
   19      H       3.1298780000    -1.3870130000     0.0280300000
   20      C       2.6415270000    -1.5259880000     2.0992980000
   21      C       5.0954320000     0.0838030000     1.2816250000
   22      C       4.2031610000     2.8944760000     1.2126870000
   23      C      -5.1965210000    -0.1553790000    -1.0565930000
   24      C      -4.2265810000    -2.9273270000    -1.3351560000
   25      C      -1.3154760000    -2.6861820000    -2.1971460000
   26      H       2.3797990000     2.3685760000    -1.6267980000
   27      H       2.5627830000     3.8792990000    -0.7064420000
   28      H       0.9340420000     3.2828400000    -1.1071320000
   29      H       2.2568190000    -0.8975970000     2.9102730000
   30      H       3.6293350000    -1.9048480000     2.3959890000
   31      H       1.9729570000    -2.3731710000     1.9416610000
   32      H       5.3359200000    -0.8891200000     0.8405560000
   33      H       5.2824240000    -0.0073070000     2.3619050000
   34      H       5.8147020000     0.8094170000     0.8910540000
   35      H       4.9410100000     2.6387790000     1.9785640000
   36      H       3.6401420000     3.7615170000     1.5735860000
   37      H       4.7607150000     3.2303180000     0.3257800000
   38      H      -5.2733440000     0.8985890000    -1.3433320000
   39      H      -5.8262510000    -0.2836510000    -0.1637060000
   40      H      -5.6485940000    -0.7483620000    -1.8568350000
   41      H      -5.2302680000    -2.8046610000    -0.9181030000
   42      H      -3.8284610000    -3.8769930000    -0.9628020000
   43      H      -4.3402300000    -3.0407370000    -2.4234880000
   44      C      -3.3970810000     1.1262980000     1.0415410000
   45      H      -2.9574200000     1.4515920000    -1.0197960000
   46      H      -1.7468430000    -3.0070720000    -0.1333420000
   47      H      -1.4008810000    -1.8996610000    -2.9552210000
   48      H      -1.8850970000    -3.5603040000    -2.5418100000
   49      H      -0.2694960000    -2.9721110000    -2.0800830000
   50      H      -3.3619730000     0.3229300000     1.7858130000
   51      H      -4.4343460000     1.4808830000     0.9659520000
   52      H      -2.7651840000     1.9545980000     1.3643030000
 ----------------------------------------------------------------

   16   -1005.8595190756      8.08e-09  Convergence criterion met
 Total energy in the final basis set =    -1006.1328201837

                    Orbital Energies (a.u.)
 --------------------------------------------------------------

 Alpha MOs
 -- Occupied --
-19.0063 -19.0063 -10.1700 -10.1699 -10.1697 -10.1697 -10.1683 -10.1683
-10.1681 -10.1681 -10.1680 -10.1678 -10.1673 -10.1670 -10.1612 -10.1611
-10.1558 -10.1558 -10.1556 -10.1556 -10.1260 -10.1260 -10.1255 -10.1254
 -0.9258  -0.9227  -0.8410  -0.8399  -0.7813  -0.7784  -0.7778  -0.7587
 -0.7211  -0.7106  -0.7098  -0.6897  -0.6700  -0.6551  -0.6472  -0.6344
 -0.5991  -0.5947  -0.5729  -0.5535  -0.5171  -0.4886  -0.4835  -0.4709
 -0.4616  -0.4504  -0.4504  -0.4341  -0.4326  -0.4261  -0.4212  -0.4130
 -0.4083  -0.4066  -0.4039  -0.4024  -0.3988  -0.3951  -0.3923  -0.3835
 -0.3833  -0.3777  -0.3767  -0.3746  -0.3686  -0.3619  -0.3576  -0.3511
 -0.3404  -0.3401  -0.3390  -0.3383  -0.3223  -0.3180  -0.3148  -0.2968
 -0.2894  -0.2885  -0.2318  -0.2285  -0.2136  -0.2002  -0.1877  -0.1790
 -0.1075

          Ground-State Mulliken Net Atomic Charges

     Atom                 Charge (a.u.)
  ----------------------------------------
      1 C                    -2.624601
      2 C                    -2.642793
      3 C                    -1.593169
      4 C                    -2.629057
      5 C                    -2.632955
      6 C                    -1.595744
      7 O                    -0.276866
      8 O                    -0.277151
      9 C                    -1.010676
     10 C                    -1.012982
     11 C                     1.118519
     12 C                     1.128602
     13 C                    -1.011728
     14 C                     1.128185
     15 C                     1.135845
     16 C                    -1.008333
     17 H                    -0.111252
     18 C                    -0.347360
     19 H                    -0.112149
     20 C                    -0.344658
     21 C                     2.009020
     22 C                     2.007047
     23 C                     2.011564
     24 C                     2.007590
     25 C                    -0.347849
     26 H                     0.050652
     27 H                     0.315468
     28 H                     0.054081
     29 H                     0.050046
     30 H                     0.315035
     31 H                     0.055230
     32 H                     0.348576
     33 H                     0.273502
     34 H                     0.359327
     35 H                     0.359912
     36 H                     0.347860
     37 H                     0.272659
     38 H                     0.348277
     39 H                     0.272961
     40 H                     0.359768
     41 H                     0.360028
     42 H                     0.347803
     43 H                     0.272789
     44 C                    -0.347232
     45 H                    -0.112551
     46 H                    -0.110585
     47 H                     0.050295
     48 H                     0.316509
     49 H                     0.052836
     50 H                     0.050384
     51 H                     0.315277
     52 H                     0.054041
  ----------------------------------------
  Sum of atomic charges =    -2.000000

                    Cartesian Multipole Moments
 -----------------------------------------------------------------
    Charge (ESU x 10^10)
                -9.6064
    Dipole Moment (Debye)
         X       0.2893      Y       0.2483      Z      -0.2948
       Tot       0.4819
    Quadrupole Moments (Debye-Ang)
        XX    -194.8111     XY       8.5380     YY    -216.8838
        XZ      -4.7570     YZ      -3.4323     ZZ    -170.7579

 Total job time:  3650.03s(wall), 23656.56s(cpu)
        *  Thank you very much for using Q-Chem.  Have a nice day.  *
