 Q-Chem 5.4, Q-Chem, Inc., Pleasanton, CA (2021)
 Q-Chem 5.4.0 for Intel X86 EM64T Linux

User input:
--------------------------------------------------------------
$molecule
-1 2
C                  0.0663160000      1.7226620000     -0.0000220000
C                 -1.1676360000      0.9135870000     -0.0007870000
C                 -1.1558600000     -0.4481220000      0.0002160000
C                  0.0918990000     -1.2357320000      0.0021110000
C                  1.3150190000     -0.4454630000      0.0028830000
C                  1.3029190000      0.9536700000      0.0018600000
O                  0.0432800000      2.9612790000     -0.0010130000
O                  0.0902880000     -2.4745630000      0.0031010000
C                  2.5151700000      1.6985270000      0.0026380000
C                  2.5399590000     -1.1692620000      0.0047340000
N                  3.5051900000      2.2986270000      0.0032810000
N                  3.5401940000     -1.7521740000      0.0062360000
Cl                -2.6562810000      1.8224170000     -0.0030620000
Cl                -2.6285680000     -1.3825640000     -0.0006870000
$end
$rem
MAX_SCF_CYCLES=200
BASIS  =  6-311++G(d,p)
GUI  =  2
JOB_TYPE  =  SP
METHOD  =  B3LYP
SOLVENT_METHOD = PCM
$end
$pcm
theory = CPCM
$end
$solvent
dielectric 37.219
opticaldielectric 1.43
$end

--------------------------------------------------------------

             Standard Nuclear Orientation (Angstroms)
    I     Atom           X                Y                Z
 ----------------------------------------------------------------
    1      C       0.0663160000     1.7226620000    -0.0000220000
    2      C      -1.1676360000     0.9135870000    -0.0007870000
    3      C      -1.1558600000    -0.4481220000     0.0002160000
    4      C       0.0918990000    -1.2357320000     0.0021110000
    5      C       1.3150190000    -0.4454630000     0.0028830000
    6      C       1.3029190000     0.9536700000     0.0018600000
    7      O       0.0432800000     2.9612790000    -0.0010130000
    8      O       0.0902880000    -2.4745630000     0.0031010000
    9      C       2.5151700000     1.6985270000     0.0026380000
   10      C       2.5399590000    -1.1692620000     0.0047340000
   11      N       3.5051900000     2.2986270000     0.0032810000
   12      N       3.5401940000    -1.7521740000     0.0062360000
   13      Cl     -2.6562810000     1.8224170000    -0.0030620000
   14      Cl     -2.6285680000    -1.3825640000    -0.0006870000
 ----------------------------------------------------------------

    9   -1485.5169062688      5.15e-06  Convergence criterion met
 Total energy in the final basis set =    -1485.5169062688

                    Orbital Energies (a.u.)
 --------------------------------------------------------------

 Alpha MOs
 -- Occupied --
********-101.5735 -19.1221 -19.1220 -14.3329 -14.3329 -10.2793 -10.2793
-10.2671 -10.2664 -10.2420 -10.2415 -10.2337 -10.2337  -9.4878  -9.4878
 -7.2525  -7.2525  -7.2430  -7.2430  -7.2417  -7.2417  -1.0575  -1.0546
 -0.9375  -0.9296  -0.9214  -0.8689  -0.8664  -0.7769  -0.7522  -0.6668
 -0.6408  -0.5576  -0.5500  -0.5364  -0.4821  -0.4725  -0.4567  -0.4439
 -0.4400  -0.4286  -0.4102  -0.3968  -0.3955  -0.3769  -0.3749  -0.3650
 -0.3586  -0.3513  -0.3446  -0.3234  -0.3107  -0.2908  -0.2850  -0.2750
 -0.2068

 Beta MOs
 -- Occupied --
********-101.5735 -19.1158 -19.1158 -14.3316 -14.3316 -10.2788 -10.2788
-10.2667 -10.2660 -10.2395 -10.2390 -10.2342 -10.2342  -9.4878  -9.4877
 -7.2526  -7.2526  -7.2429  -7.2429  -7.2417  -7.2417  -1.0472  -1.0440
 -0.9350  -0.9276  -0.9197  -0.8682  -0.8605  -0.7749  -0.7426  -0.6628
 -0.6378  -0.5544  -0.5479  -0.5336  -0.4806  -0.4590  -0.4502  -0.4394
 -0.4383  -0.4075  -0.4051  -0.3948  -0.3934  -0.3703  -0.3639  -0.3608
 -0.3578  -0.3466  -0.3443  -0.3231  -0.2849  -0.2849  -0.2792  -0.2688

          Ground-State Mulliken Net Atomic Charges

     Atom                 Charge (a.u.)    Spin (a.u.)
  --------------------------------------------------------
      1 C                    -1.549135       0.006558
      2 C                     0.701844       0.018172
      3 C                     0.702049       0.018158
      4 C                    -1.548062       0.006567
      5 C                     1.959221       0.200426
      6 C                     1.959052       0.200455
      7 O                    -0.348839       0.233612
      8 O                    -0.348851       0.233599
      9 C                    -1.404364      -0.021970
     10 C                    -1.404324      -0.021963
     11 N                    -0.284828       0.064244
     12 N                    -0.284775       0.064232
     13 Cl                    0.425473      -0.001041
     14 Cl                    0.425540      -0.001048
  --------------------------------------------------------
  Sum of atomic charges =    -1.000000

                    Cartesian Multipole Moments
 -----------------------------------------------------------------
    Charge (ESU x 10^10)
                -4.8032
    Dipole Moment (Debye)
         X      -8.1642      Y      -1.2364      Z      -0.0135
       Tot       8.2573
    Quadrupole Moments (Debye-Ang)
        XX    -137.3649     XY      -1.9613     YY    -139.9569
        XZ      -0.0570     YZ       0.0320     ZZ     -92.0790

 Total job time:  29.87s(wall), 154.46s(cpu)
        *  Thank you very much for using Q-Chem.  Have a nice day.  *
