 Gaussian 16, Revision A.03,
 Gaussian 16:  ES64L-G16RevA.03 25-Dec-2016

 ----------------------------------------------------------------------
 #P UB3LYP/6-311++G(d,p) nosym opt freq SCRF=(PCM,Solvent=n,n-DiMethylF
 ormamide)
 ----------------------------------------------------------------------

 -------
 Reduced
 -------
 Symbolic Z-matrix:
 Charge = -2 Multiplicity = 1

 SCF Done:  E(UB3LYP) =  -535.703874515     A.U. after   17 cycles
 SCF Done:  E(UB3LYP) =  -535.705128123     A.U. after   14 cycles
 SCF Done:  E(UB3LYP) =  -535.705423918     A.U. after   14 cycles
 SCF Done:  E(UB3LYP) =  -535.705494338     A.U. after   13 cycles
 SCF Done:  E(UB3LYP) =  -535.705527791     A.U. after   11 cycles
 SCF Done:  E(UB3LYP) =  -535.705545248     A.U. after   12 cycles
 SCF Done:  E(UB3LYP) =  -535.705565516     A.U. after   12 cycles
 SCF Done:  E(UB3LYP) =  -535.705608673     A.U. after   13 cycles
 SCF Done:  E(UB3LYP) =  -535.705559433     A.U. after   13 cycles
 SCF Done:  E(UB3LYP) =  -535.705652294     A.U. after   13 cycles
 SCF Done:  E(UB3LYP) =  -535.705725144     A.U. after   13 cycles
 SCF Done:  E(UB3LYP) =  -535.705736840     A.U. after   12 cycles
 SCF Done:  E(UB3LYP) =  -535.705734423     A.U. after   11 cycles
 SCF Done:  E(UB3LYP) =  -535.705740314     A.U. after   12 cycles
 SCF Done:  E(UB3LYP) =  -535.705740909     A.U. after   10 cycles
 SCF Done:  E(UB3LYP) =  -535.705740778     A.U. after   10 cycles
 SCF Done:  E(UB3LYP) =  -535.705741575     A.U. after   11 cycles
 SCF Done:  E(UB3LYP) =  -535.705741690     A.U. after   10 cycles
 SCF Done:  E(UB3LYP) =  -535.705741708     A.U. after    9 cycles
 Optimization completed.
    -- Stationary point found.
 Normal termination of Gaussian 16 at Sat Feb 10 12:57:51 2024.

 ----------------------------------------------------------------------
 #P Geom=AllCheck Guess=TCheck SCRF=Check GenChk UB3LYP/6-311++G(d,p) F
 req
 ----------------------------------------------------------------------

 Structure from the checkpoint file:  "083-an.chk"
 -------
 Reduced
 -------
 Charge = -2 Multiplicity = 1

                          Input orientation:
 ---------------------------------------------------------------------
 Center     Atomic      Atomic             Coordinates (Angstroms)
 Number     Number       Type             X           Y           Z
 ---------------------------------------------------------------------
      1          6           0        1.648371    0.973022   -0.720567
      2          6           0        0.604333    1.599275    0.004682
      3          6           0       -0.534430    0.918652    0.456943
      4          6           0       -0.741850   -0.465931    0.235770
      5          6           0        0.307035   -1.134238   -0.481867
      6          6           0        1.437919   -0.428816   -0.928291
      7          8           0        2.707454    1.615651   -1.171398
      8          8           0       -1.814321   -1.106712    0.658384
      9          6           0        0.157793   -2.613767   -0.742964
     10          8           0        2.391864   -1.134395   -1.681716
     11          6           0        3.632229   -1.332236   -1.007435
     12          1           0        0.698376    2.667935    0.194532
     13          1           0       -1.303142    1.466626    1.000291
     14          1           0        0.003678   -3.166361    0.191409
     15          1           0        1.033974   -3.020487   -1.248261
     16          1           0       -0.723861   -2.826179   -1.361426
     17          1           0        4.301634   -1.840214   -1.705993
     18          1           0        3.496801   -1.965303   -0.120218
     19          1           0        4.066254   -0.373210   -0.714067
 ---------------------------------------------------------------------

 SCF Done:  E(UB3LYP) =  -535.705741708     A.U. after    1 cycles

 Alpha  occ. eigenvalues --  -19.10628 -19.00698 -19.00666 -10.19073 -10.16879
 Alpha  occ. eigenvalues --  -10.16004 -10.15914 -10.13484 -10.12591 -10.11584
 Alpha  occ. eigenvalues --  -10.11388  -1.01454  -0.91069  -0.90673  -0.77608
 Alpha  occ. eigenvalues --   -0.72152  -0.68476  -0.63411  -0.62660  -0.54113
 Alpha  occ. eigenvalues --   -0.52150  -0.46139  -0.44466  -0.43301  -0.41088
 Alpha  occ. eigenvalues --   -0.40440  -0.38653  -0.37253  -0.36226  -0.34434
 Alpha  occ. eigenvalues --   -0.33928  -0.32782  -0.31490  -0.30684  -0.29513
 Alpha  occ. eigenvalues --   -0.25172  -0.21436  -0.19598  -0.18751  -0.18607
 Alpha  occ. eigenvalues --   -0.11367
 Alpha virt. eigenvalues --    0.00123   0.01426   0.01551   0.02790   0.03317
 Alpha virt. eigenvalues --    0.03613   0.04319   0.05142   0.05561   0.06326
 Alpha virt. eigenvalues --    0.06615   0.07598   0.08174   0.09221   0.09749

  Beta  occ. eigenvalues --  -19.10628 -19.00698 -19.00666 -10.19073 -10.16879
  Beta  occ. eigenvalues --  -10.16004 -10.15914 -10.13484 -10.12591 -10.11584
  Beta  occ. eigenvalues --  -10.11388  -1.01454  -0.91069  -0.90673  -0.77608
  Beta  occ. eigenvalues --   -0.72152  -0.68476  -0.63411  -0.62660  -0.54113
  Beta  occ. eigenvalues --   -0.52150  -0.46139  -0.44466  -0.43301  -0.41088
  Beta  occ. eigenvalues --   -0.40440  -0.38653  -0.37253  -0.36226  -0.34434
  Beta  occ. eigenvalues --   -0.33928  -0.32782  -0.31490  -0.30684  -0.29513
  Beta  occ. eigenvalues --   -0.25172  -0.21436  -0.19598  -0.18751  -0.18607
  Beta  occ. eigenvalues --   -0.11367
  Beta virt. eigenvalues --    0.00123   0.01426   0.01551   0.02790   0.03317
  Beta virt. eigenvalues --    0.03613   0.04319   0.05142   0.05561   0.06326
  Beta virt. eigenvalues --    0.06615   0.07598   0.08174   0.09221   0.09749

 Mulliken charges and spin densities:
               1          2
     1  C   -0.015578  -0.000000
     2  C   -0.103318  -0.000000
     3  C    0.171802  -0.000000
     4  C   -1.140528   0.000000
     5  C    1.847261   0.000000
     6  C   -1.535440  -0.000000
     7  O   -0.763842   0.000000
     8  O   -0.751710   0.000000
     9  C   -0.288235   0.000000
    10  O   -0.228839  -0.000000
    11  C   -0.278464  -0.000000
    12  H    0.128477  -0.000000
    13  H    0.121044   0.000000
    14  H    0.135884   0.000000
    15  H    0.150107  -0.000000
    16  H    0.135172  -0.000000
    17  H    0.136858   0.000000
    18  H    0.115643  -0.000000
    19  H    0.163705   0.000000
 Sum of Mulliken charges =  -2.00000  -0.00000

 Dipole moment (field-independent basis, Debye):
    X=             -3.8456    Y=             -2.0841    Z=              3.8670  Tot=              5.8383
 Quadrupole moment (field-independent basis, Debye-Ang):
   XX=           -114.8693   YY=            -92.2250   ZZ=            -86.9365
   XY=            -26.2463   XZ=             21.3740   YZ=              8.5430

  Exact polarizability: 207.741  17.786 206.114 -39.466   7.411 138.977
 Approx polarizability: 220.684  21.096 218.755 -44.407   9.173 151.345

                      1                      2                      3
                      A                      A                      A
 Frequencies --     99.0118               108.1688               129.3630
 Red. masses --      2.7351                 3.4663                 1.1523
 Frc consts  --      0.0158                 0.0239                 0.0114
 IR Inten    --      9.4214                 2.8360                 1.8193

                      4                      5                      6
                      A                      A                      A
 Frequencies --    150.7360               163.6830               204.0226
 Red. masses --      3.9840                 1.0870                 3.7981
 Frc consts  --      0.0533                 0.0172                 0.0931
 IR Inten    --     28.0741                 2.2927                 6.4305

                      7                      8                      9
                      A                      A                      A
 Frequencies --    309.4996               328.3111               355.8322
 Red. masses --      3.8408                 4.1163                 9.4358
 Frc consts  --      0.2168                 0.2614                 0.7039
 IR Inten    --      4.2016                15.9959                 8.7272

                     10                     11                     12
                      A                      A                      A
 Frequencies --    359.8779               388.6264               481.7865
 Red. masses --      6.9140                 5.1551                 6.1264
 Frc consts  --      0.5276                 0.4587                 0.8378
 IR Inten    --      4.1031                 3.9943                10.0165

                     13                     14                     15
                      A                      A                      A
 Frequencies --    483.8425               538.1393               613.9472
 Red. masses --      9.6055                 3.4147                 4.0201
 Frc consts  --      1.3249                 0.5826                 0.8928
 IR Inten    --      1.5525                 1.9613                 1.2945

                     16                     17                     18
                      A                      A                      A
 Frequencies --    639.8930               668.6062               758.1012
 Red. masses --      3.3957                 3.5477                 6.2866
 Frc consts  --      0.8192                 0.9344                 2.1287
 IR Inten    --      5.2980                14.6848                96.6799

                     19                     20                     21
                      A                      A                      A
 Frequencies --    763.1589               798.1855               871.8903
 Red. masses --      5.2127                 2.3029                 1.3317
 Frc consts  --      1.7887                 0.8644                 0.5965
 IR Inten    --     63.3783                79.4870                 0.6358

                     22                     23                     24
                      A                      A                      A
 Frequencies --    873.9140              1007.7088              1020.9135
 Red. masses --      2.5222                 4.0403                 2.7201
 Frc consts  --      1.1349                 2.4173                 1.6703
 IR Inten    --     65.2805                34.5160               184.0491

                     25                     26                     27
                      A                      A                      A
 Frequencies --   1045.9772              1079.2877              1143.7917
 Red. masses --      1.4714                 2.8924                 1.8308
 Frc consts  --      0.9485                 1.9851                 1.4112
 IR Inten    --      5.3896               306.6039               118.9454

                     28                     29                     30
                      A                      A                      A
 Frequencies --   1156.6403              1168.9523              1208.4673
 Red. masses --      1.3528                 2.1801                 3.1884
 Frc consts  --      1.0663                 1.7552                 2.7434
 IR Inten    --     51.2420                89.7753                88.0622

                     31                     32                     33
                      A                      A                      A
 Frequencies --   1214.7419              1280.0817              1314.4907
 Red. masses --      1.9870                 3.2884                 7.4106
 Frc consts  --      1.7274                 3.1748                 7.5443
 IR Inten    --    133.7283               975.6005                30.5769

                     34                     35                     36
                      A                      A                      A
 Frequencies --   1384.1286              1409.3337              1425.9638
 Red. masses --      1.3042                 3.1031                 3.3704
 Frc consts  --      1.4721                 3.6313                 4.0379
 IR Inten    --      3.8667               431.3844               716.9817

                     37                     38                     39
                      A                      A                      A
 Frequencies --   1449.2109              1471.2327              1472.5004
 Red. masses --      1.2661                 1.0501                 1.0724
 Frc consts  --      1.5667                 1.3392                 1.3700
 IR Inten    --      2.2943                 6.6968                 3.2241

                     40                     41                     42
                      A                      A                      A
 Frequencies --   1481.0106              1499.2793              1511.6511
 Red. masses --      1.1820                 1.0486                 5.0193
 Frc consts  --      1.5275                 1.3887                 6.7577
 IR Inten    --     33.6701                15.0657               123.5691

                     43                     44                     45
                      A                      A                      A
 Frequencies --   1603.2954              2979.2086              2994.2034
 Red. masses --      7.0349                 1.0416                 1.0461
 Frc consts  --     10.6545                 5.4468                 5.5258
 IR Inten    --      8.8368               145.9701               153.6051

                     46                     47                     48
                      A                      A                      A
 Frequencies --   3024.6916              3056.3874              3090.0889
 Red. masses --      1.0924                 1.0890                 1.0845
 Frc consts  --      5.8883                 5.9939                 6.1014
 IR Inten    --     87.9177                83.4127                83.4791

                     49                     50                     51
                      A                      A                      A
 Frequencies --   3091.7916              3108.7277              3114.1392
 Red. masses --      1.1054                 1.0944                 1.0925
 Frc consts  --      6.2256                 6.2316                 6.2425
 IR Inten    --     53.1818                35.0335               113.4995

 - Thermochemistry -
 -------------------
 Temperature   298.150 Kelvin.  Pressure   1.00000 Atm.
 Atom     1 has atomic number  6 and mass  12.00000

 Molecular mass:   152.04734 amu.
 Principal axes and moments of inertia in atomic units:
                           1         2         3
     Eigenvalues --  1080.994641768.661302732.08472
           X            0.92111  -0.09479   0.37758
           Y            0.15603   0.97848  -0.13500
           Z           -0.35666   0.18327   0.91608
 This molecule is an asymmetric top.
 Rotational symmetry number  1.
 Warning -- assumption of classical behavior for rotation
           may cause significant error
 Rotational temperatures (Kelvin)      0.08012     0.04897     0.03170
 Rotational constants (GHZ):           1.66952     1.02040     0.66057
 Zero-point vibrational energy     370223.3 (Joules/Mol)
                                   88.48548 (Kcal/Mol)
 Warning -- explicit consideration of  15 degrees of freedom as
           vibrations may cause significant error
 Vibrational temperatures:    142.46   155.63   186.12   216.88   235.50
          (Kelvin)            293.54   445.30   472.37   511.96   517.78
                              559.15   693.18   696.14   774.26   883.33
                              920.66   961.98  1090.74  1098.02  1148.41
                             1254.46  1257.37  1449.87  1468.87  1504.93
                             1552.85  1645.66  1664.15  1681.86  1738.71
                             1747.74  1841.75  1891.26  1991.45  2027.72
                             2051.64  2085.09  2116.78  2118.60  2130.84
                             2157.13  2174.93  2306.78  4286.42  4307.99
                             4351.86  4397.46  4445.95  4448.40  4472.77
                             4480.55

 Zero-point correction=                           0.141011 (Hartree/Particle)
 Thermal correction to Energy=                    0.151384
 Thermal correction to Enthalpy=                  0.152328
 Thermal correction to Gibbs Free Energy=         0.105394
 Sum of electronic and zero-point Energies=           -535.564731
 Sum of electronic and thermal Energies=              -535.554358
 Sum of electronic and thermal Enthalpies=            -535.553414
 Sum of electronic and thermal Free Energies=         -535.600347

                     E (Thermal)             CV                S
                      KCal/Mol        Cal/Mol-Kelvin    Cal/Mol-Kelvin
 Total                   94.995             38.634             98.779
 Electronic               0.000              0.000              0.000
 Translational            0.889              2.981             40.967
 Rotational               0.889              2.981             30.036
 Vibrational             93.217             32.673             27.776
 Vibration     1          0.604              1.950              3.474
 Vibration     2          0.606              1.943              3.302
 Vibration     3          0.612              1.924              2.955
 Vibration     4          0.618              1.902              2.663
 Vibration     5          0.623              1.887              2.507
 Vibration     6          0.640              1.834              2.097
 Vibration     7          0.699              1.656              1.365
 Vibration     8          0.712              1.619              1.268
 Vibration     9          0.731              1.563              1.140
 Vibration    10          0.734              1.555              1.123
 Vibration    11          0.757              1.494              1.005
 Vibration    12          0.838              1.290              0.705
 Vibration    13          0.840              1.286              0.700
 Vibration    14          0.893              1.166              0.569
 Vibration    15          0.973              1.002              0.426

 Optimization completed.
    -- Stationary point found.
 Normal termination of Gaussian 16 at Sat Feb 10 13:09:37 2024.
