 Gaussian 16, Revision A.03,
 Gaussian 16:  ES64L-G16RevA.03 25-Dec-2016

 --------------------------------------
 #P UB3LYP/6-311++G(d,p) nosym opt freq
 --------------------------------------

 --------
 Oxidized
 --------
 Symbolic Z-matrix:
 Charge =  0 Multiplicity = 1

 SCF Done:  E(UB3LYP) =  -842.593571330     A.U. after   16 cycles
 SCF Done:  E(UB3LYP) =  -842.618991477     A.U. after   15 cycles
 SCF Done:  E(UB3LYP) =  -842.624081008     A.U. after   14 cycles
 SCF Done:  E(UB3LYP) =  -842.625389526     A.U. after   12 cycles
 SCF Done:  E(UB3LYP) =  -842.625468110     A.U. after   11 cycles
 SCF Done:  E(UB3LYP) =  -842.625472832     A.U. after   10 cycles
 Optimization completed.
    -- Stationary point found.
 Normal termination of Gaussian 16 at Thu Dec 21 06:01:14 2023.

 ----------------------------------------------------------------------
 #P Geom=AllCheck Guess=TCheck SCRF=Check GenChk UB3LYP/6-311++G(d,p) F
 req
 ----------------------------------------------------------------------

 Structure from the checkpoint file:  "133.chk"
 --------
 Oxidized
 --------
 Charge =  0 Multiplicity = 1

                          Input orientation:
 ---------------------------------------------------------------------
 Center     Atomic      Atomic             Coordinates (Angstroms)
 Number     Number       Type             X           Y           Z
 ---------------------------------------------------------------------
      1          8           0        1.516655   -3.026931    0.081405
      2          6           0        1.303563   -1.825273    0.043142
      3          6           0        2.416744   -0.848121   -0.007476
      4          6           0        3.739704   -1.300753   -0.011725
      5          6           0        4.784936   -0.386770   -0.059190
      6          6           0        4.512727    0.983625   -0.102669
      7          6           0        3.198717    1.437328   -0.098591
      8          6           0        2.140397    0.524138   -0.050877
      9          6           0        0.737148    1.050416   -0.047798
     10          8           0        0.569507    2.260623   -0.087714
     11          6           0       -0.395090    0.070224    0.003460
     12          6           0       -1.777234    0.490877    0.010142
     13          6           0       -2.208116    1.847891   -0.029594
     14          6           0       -3.546194    2.171157   -0.020155
     15          6           0       -4.540001    1.171757    0.029092
     16          6           0       -4.166786   -0.148245    0.068442
     17          6           0       -2.798185   -0.519260    0.060277
     18          6           0       -2.435458   -1.888337    0.101663
     19          6           0       -1.122662   -2.268149    0.094859
     20          6           0       -0.097839   -1.295873    0.045945
     21          1           0        3.922181   -2.367655    0.022542
     22          1           0        5.810964   -0.736702   -0.062512
     23          1           0        5.328630    1.696582   -0.139737
     24          1           0        2.968929    2.494598   -0.131849
     25          1           0       -1.468232    2.629175   -0.067556
     26          1           0       -3.838257    3.214935   -0.051283
     27          1           0       -5.588613    1.446713    0.035703
     28          1           0       -4.914320   -0.933374    0.106635
     29          1           0       -3.222045   -2.634810    0.139137
     30          1           0       -0.831773   -3.309787    0.126283
 ---------------------------------------------------------------------

 SCF Done:  E(UB3LYP) =  -842.625472832     A.U. after    1 cycles

 Alpha  occ. eigenvalues --  -19.12696 -19.12578 -10.28173 -10.27812 -10.21679
 Alpha  occ. eigenvalues --  -10.21179 -10.21093 -10.20771 -10.20662 -10.20614
 Alpha  occ. eigenvalues --  -10.20139 -10.20081 -10.20035 -10.19838 -10.19724
 Alpha  occ. eigenvalues --  -10.19266 -10.19259 -10.19195 -10.18917 -10.18243
 Alpha  occ. eigenvalues --   -1.06247  -1.06044  -0.90039  -0.88833  -0.85103
 Alpha  occ. eigenvalues --   -0.81210  -0.78815  -0.77833  -0.76732  -0.74563
 Alpha  occ. eigenvalues --   -0.69187  -0.66623  -0.65141  -0.62926  -0.61849
 Alpha  occ. eigenvalues --   -0.58583  -0.57126  -0.54904  -0.52517  -0.51766
 Alpha  occ. eigenvalues --   -0.50025  -0.49174  -0.47795  -0.46514  -0.45732
 Alpha  occ. eigenvalues --   -0.45456  -0.45243  -0.45034  -0.43537  -0.42916
 Alpha  occ. eigenvalues --   -0.42418  -0.41596  -0.40721  -0.40108  -0.38367
 Alpha  occ. eigenvalues --   -0.37833  -0.37202  -0.36518  -0.35894  -0.34474
 Alpha  occ. eigenvalues --   -0.30624  -0.28489  -0.28109  -0.27836  -0.26820
 Alpha  occ. eigenvalues --   -0.26754  -0.24311
 Alpha virt. eigenvalues --   -0.12105  -0.07119  -0.05490  -0.03278  -0.01283
 Alpha virt. eigenvalues --   -0.00988  -0.00668   0.00444   0.01196   0.01435
 Alpha virt. eigenvalues --    0.02308   0.02620   0.03186   0.03677   0.03766

  Beta  occ. eigenvalues --  -19.12696 -19.12578 -10.28173 -10.27812 -10.21679
  Beta  occ. eigenvalues --  -10.21179 -10.21093 -10.20771 -10.20662 -10.20614
  Beta  occ. eigenvalues --  -10.20139 -10.20081 -10.20035 -10.19838 -10.19724
  Beta  occ. eigenvalues --  -10.19266 -10.19259 -10.19195 -10.18917 -10.18243
  Beta  occ. eigenvalues --   -1.06247  -1.06044  -0.90039  -0.88833  -0.85103
  Beta  occ. eigenvalues --   -0.81210  -0.78815  -0.77833  -0.76732  -0.74563
  Beta  occ. eigenvalues --   -0.69187  -0.66623  -0.65141  -0.62926  -0.61849
  Beta  occ. eigenvalues --   -0.58583  -0.57126  -0.54904  -0.52517  -0.51766
  Beta  occ. eigenvalues --   -0.50025  -0.49174  -0.47795  -0.46514  -0.45732
  Beta  occ. eigenvalues --   -0.45456  -0.45243  -0.45034  -0.43537  -0.42916
  Beta  occ. eigenvalues --   -0.42418  -0.41596  -0.40721  -0.40108  -0.38367
  Beta  occ. eigenvalues --   -0.37833  -0.37202  -0.36518  -0.35894  -0.34474
  Beta  occ. eigenvalues --   -0.30624  -0.28489  -0.28109  -0.27836  -0.26820
  Beta  occ. eigenvalues --   -0.26754  -0.24311
  Beta virt. eigenvalues --   -0.12105  -0.07119  -0.05490  -0.03278  -0.01283
  Beta virt. eigenvalues --   -0.00988  -0.00668   0.00444   0.01196   0.01435
  Beta virt. eigenvalues --    0.02308   0.02620   0.03186   0.03677   0.03766

 Mulliken charges and spin densities:
               1          2
     1  O   -0.199715   0.000000
     2  C   -0.921099  -0.000000
     3  C    0.131447   0.000000
     4  C   -0.020354  -0.000000
     5  C   -0.395814   0.000000
     6  C   -0.374299   0.000000
     7  C    0.061710  -0.000000
     8  C    0.193734   0.000000
     9  C   -0.699670  -0.000000
    10  O   -0.177062  -0.000000
    11  C    0.743607  -0.000000
    12  C    0.984604  -0.000000
    13  C   -0.563147  -0.000000
    14  C   -0.488564   0.000000
    15  C   -0.244766  -0.000000
    16  C   -0.432856  -0.000000
    17  C    0.563310   0.000000
    18  C   -0.422373  -0.000000
    19  C   -0.188533  -0.000000
    20  C    0.765303   0.000000
    21  H    0.181640   0.000000
    22  H    0.175770  -0.000000
    23  H    0.177464   0.000000
    24  H    0.177853   0.000000
    25  H    0.150186   0.000000
    26  H    0.182298   0.000000
    27  H    0.167117   0.000000
    28  H    0.131358  -0.000000
    29  H    0.158854  -0.000000
    30  H    0.181996   0.000000
 Sum of Mulliken charges =  -0.00000  -0.00000

 Dipole moment (field-independent basis, Debye):
    X=             -0.5439    Y=              0.4953    Z=             -0.0074  Tot=              0.7357
 Quadrupole moment (field-independent basis, Debye-Ang):
   XX=            -86.4949   YY=           -119.3422   ZZ=           -118.9322
   XY=              4.5526   XZ=             -0.6496   YZ=             -0.0483

  Exact polarizability: 338.494 -19.575 242.287  -2.961  -4.618  99.731
 Approx polarizability: 492.968 -38.036 493.493  -3.696 -10.790 164.144

                      1                      2                      3
                      A                      A                      A
 Frequencies --     16.6750                48.3124                98.2313
 Red. masses --      8.2230                 5.3940                 5.2589
 Frc consts  --      0.0013                 0.0074                 0.0299
 IR Inten    --      4.3187                 0.6936                 1.1291

                      4                      5                      6
                      A                      A                      A
 Frequencies --    111.3335               171.9870               177.0389
 Red. masses --      4.9129                 5.5771                 5.3672
 Frc consts  --      0.0359                 0.0972                 0.0991
 IR Inten    --      0.2863                 0.0619                 0.9688

                      7                      8                      9
                      A                      A                      A
 Frequencies --    201.1969               267.8438               286.9968
 Red. masses --      4.6433                 5.1284                 6.1197
 Frc consts  --      0.1107                 0.2168                 0.2970
 IR Inten    --      2.1540                 0.2549                 0.1542

                     10                     11                     12
                      A                      A                      A
 Frequencies --    318.2096               360.2283               400.7599
 Red. masses --      7.6447                 7.7553                 3.7670
 Frc consts  --      0.4561                 0.5929                 0.3565
 IR Inten    --      0.1722                 1.3889                 0.2239

                     13                     14                     15
                      A                      A                      A
 Frequencies --    403.1577               425.6012               441.1281
 Red. masses --     10.6633                 3.3812                 6.2124
 Frc consts  --      1.0212                 0.3609                 0.7123
 IR Inten    --     18.1508                 0.0340                10.2009

                     16                     17                     18
                      A                      A                      A
 Frequencies --    450.2614               475.7456               502.6953
 Red. masses --      4.2742                11.9746                 3.8631
 Frc consts  --      0.5105                 1.5968                 0.5752
 IR Inten    --      0.9986                 1.6072                 0.2243

                     19                     20                     21
                      A                      A                      A
 Frequencies --    519.6192               540.4725               568.7132
 Red. masses --      3.4017                 7.1081                 7.1425
 Frc consts  --      0.5412                 1.2234                 1.3611
 IR Inten    --     18.9632                 0.3024                 8.2448

                     22                     23                     24
                      A                      A                      A
 Frequencies --    624.3929               642.1007               672.4932
 Red. masses --      4.4447                 6.8034                 6.7287
 Frc consts  --      1.0210                 1.6527                 1.7929
 IR Inten    --      0.0082                12.0885                 4.7062

                     25                     26                     27
                      A                      A                      A
 Frequencies --    688.4699               703.0224               730.0588
 Red. masses --      7.0930                 4.6195                 1.9505
 Frc consts  --      1.9809                 1.3452                 0.6125
 IR Inten    --      0.9560                 0.4829                25.2225

                     28                     29                     30
                      A                      A                      A
 Frequencies --    753.1908               763.7170               771.7524
 Red. masses --      6.5432                 2.4911                 1.6407
 Frc consts  --      2.1870                 0.8561                 0.5757
 IR Inten    --      0.2158                16.9967                77.5909

                     31                     32                     33
                      A                      A                      A
 Frequencies --    800.1356               811.7846               812.7783
 Red. masses --      5.4496                 5.9055                 1.9684
 Frc consts  --      2.0556                 2.2929                 0.7661
 IR Inten    --      1.5286                12.7198                 0.0010

                     34                     35                     36
                      A                      A                      A
 Frequencies --    859.0875               871.7115               891.7823
 Red. masses --      1.4450                 5.9061                 1.5362
 Frc consts  --      0.6283                 2.6442                 0.7198
 IR Inten    --     33.5143                19.8767                 7.1563

                     37                     38                     39
                      A                      A                      A
 Frequencies --    915.2289               916.5127               984.3175
 Red. masses --      1.3806                 6.7764                 1.3354
 Frc consts  --      0.6814                 3.3537                 0.7623
 IR Inten    --      0.1013                 0.5326                 1.4920

                     40                     41                     42
                      A                      A                      A
 Frequencies --   1001.1688              1002.3641              1010.4336
 Red. masses --      6.3313                 1.3748                 1.3223
 Frc consts  --      3.7390                 0.8138                 0.7954
 IR Inten    --     78.2807                 1.6894                 0.0879

                     43                     44                     45
                      A                      A                      A
 Frequencies --   1016.0310              1017.7161              1053.6278
 Red. masses --      1.3006                 1.3244                 2.2901
 Frc consts  --      0.7911                 0.8082                 1.4979
 IR Inten    --      0.6343                 0.0003                11.3195

                     46                     47                     48
                      A                      A                      A
 Frequencies --   1059.9279              1076.7875              1116.2684
 Red. masses --      2.3591                 3.2859                 2.1047
 Frc consts  --      1.5615                 2.2448                 1.5451
 IR Inten    --     10.5628                19.7158                 3.4891

                     49                     50                     51
                      A                      A                      A
 Frequencies --   1170.3461              1177.0203              1185.9510
 Red. masses --      1.4058                 1.4122                 1.2689
 Frc consts  --      1.1345                 1.1527                 1.0515
 IR Inten    --      2.1527                11.4273                 1.9148

                     52                     53                     54
                      A                      A                      A
 Frequencies --   1186.6196              1202.6117              1230.6719
 Red. masses --      1.3444                 1.9246                 2.0679
 Frc consts  --      1.1153                 1.6400                 1.8453
 IR Inten    --     19.2432                14.8875                47.6900

                     55                     56                     57
                      A                      A                      A
 Frequencies --   1246.1388              1285.2157              1296.4427
 Red. masses --      2.0558                 1.9896                 2.2086
 Frc consts  --      1.8809                 1.9363                 2.1871
 IR Inten    --     18.4208               134.2941               211.6092

                     58                     59                     60
                      A                      A                      A
 Frequencies --   1318.2247              1360.1610              1363.3324
 Red. masses --      3.1077                 6.6878                 5.2187
 Frc consts  --      3.1818                 7.2898                 5.7150
 IR Inten    --    312.6540                 6.0831                 3.1441

                     61                     62                     63
                      A                      A                      A
 Frequencies --   1384.6889              1401.4414              1456.8559
 Red. masses --      5.7230                 4.1552                 2.1373
 Frc consts  --      6.4652                 4.8083                 2.6727
 IR Inten    --     12.5611                33.2646                16.0899

                     64                     65                     66
                      A                      A                      A
 Frequencies --   1479.9493              1488.9458              1509.6784
 Red. masses --      2.3415                 2.3174                 2.5934
 Frc consts  --      3.0216                 3.0269                 3.4824
 IR Inten    --      3.1053                48.9984                 1.7711

                     67                     68                     69
                      A                      A                      A
 Frequencies --   1541.2015              1591.2735              1620.4535
 Red. masses --      3.3154                 7.4974                 7.1129
 Frc consts  --      4.6399                11.1853                11.0045
 IR Inten    --     19.1401                10.8936                 4.8206

                     70                     71                     72
                      A                      A                      A
 Frequencies --   1627.0931              1630.9370              1652.6357
 Red. masses --      5.9815                 5.9514                 5.5924
 Frc consts  --      9.3300                 9.3271                 8.9991
 IR Inten    --     96.7453                 2.0723                 0.9941

                     73                     74                     75
                      A                      A                      A
 Frequencies --   1706.0110              1719.7610              3161.8184
 Red. masses --     12.0395                12.2961                 1.0868
 Frc consts  --     20.6454                21.4267                 6.4015
 IR Inten    --     33.1850               302.7954                 0.0619

                     76                     77                     78
                      A                      A                      A
 Frequencies --   3166.9179              3170.0012              3172.8593
 Red. masses --      1.0894                 1.0871                 1.0908
 Frc consts  --      6.4372                 6.4361                 6.4697
 IR Inten    --      4.8117                 3.5328                18.8995

                     79                     80                     81
                      A                      A                      A
 Frequencies --   3184.6465              3187.4425              3201.3745
 Red. masses --      1.0922                 1.0968                 1.0933
 Frc consts  --      6.5262                 6.5652                 6.6016
 IR Inten    --     12.9099                23.8924                 3.9417

                     82                     83                     84
                      A                      A                      A
 Frequencies --   3205.9402              3209.0465              3261.7071
 Red. masses --      1.0936                 1.0928                 1.0916
 Frc consts  --      6.6224                 6.6307                 6.8422
 IR Inten    --      9.1784                 5.1538                16.1263

 - Thermochemistry -
 -------------------
 Temperature   298.150 Kelvin.  Pressure   1.00000 Atm.
 Atom     1 has atomic number  8 and mass  15.99491

 Molecular mass:   258.06808 amu.
 Principal axes and moments of inertia in atomic units:
                           1         2         3
     Eigenvalues --  2255.589707412.299029667.88838
           X            0.99351   0.11272   0.01522
           Y           -0.11319   0.99298   0.03445
           Z           -0.01123  -0.03595   0.99929
 This molecule is an asymmetric top.
 Rotational symmetry number  1.
 Warning -- assumption of classical behavior for rotation
           may cause significant error
 Rotational temperatures (Kelvin)      0.03840     0.01169     0.00896
 Rotational constants (GHZ):           0.80012     0.24348     0.18667
 Zero-point vibrational energy     592800.4 (Joules/Mol)
                                  141.68269 (Kcal/Mol)
 Warning -- explicit consideration of  21 degrees of freedom as
           vibrations may cause significant error
 Vibrational temperatures:     23.99    69.51   141.33   160.18   247.45
          (Kelvin)            254.72   289.48   385.37   412.92   457.83
                              518.29   576.60   580.05   612.35   634.68
                              647.83   684.49   723.27   747.62   777.62
                              818.25   898.36   923.84   967.57   990.55
                             1011.49  1050.39  1083.67  1098.82  1110.38
                             1151.22  1167.98  1169.41  1236.04  1254.20
                             1283.08  1316.81  1318.66  1416.21  1440.46
                             1442.18  1453.79  1461.84  1464.27  1515.94
                             1525.00  1549.26  1606.06  1683.87  1693.47
                             1706.32  1707.28  1730.29  1770.66  1792.92
                             1849.14  1865.29  1896.63  1956.97  1961.53
                             1992.26  2016.36  2096.09  2129.32  2142.26
                             2172.09  2217.45  2289.49  2331.47  2341.02
                             2346.55  2377.77  2454.57  2474.35  4549.15
                             4556.49  4560.92  4565.04  4582.00  4586.02
                             4606.06  4612.63  4617.10  4692.87

 Zero-point correction=                           0.225786 (Hartree/Particle)
 Thermal correction to Energy=                    0.239780
 Thermal correction to Enthalpy=                  0.240724
 Thermal correction to Gibbs Free Energy=         0.183728
 Sum of electronic and zero-point Energies=           -842.399687
 Sum of electronic and thermal Energies=              -842.385693
 Sum of electronic and thermal Enthalpies=            -842.384749
 Sum of electronic and thermal Free Energies=         -842.441745

                     E (Thermal)             CV                S
                      KCal/Mol        Cal/Mol-Kelvin    Cal/Mol-Kelvin
 Total                  150.464             57.472            119.959
 Electronic               0.000              0.000              0.000
 Translational            0.889              2.981             42.544
 Rotational               0.889              2.981             33.446
 Vibrational            148.687             51.510             43.968
 Vibration     1          0.593              1.986              6.995
 Vibration     2          0.595              1.978              4.885
 Vibration     3          0.604              1.950              3.489
 Vibration     4          0.607              1.940              3.246
 Vibration     5          0.626              1.877              2.414
 Vibration     6          0.628              1.871              2.359
 Vibration     7          0.638              1.838              2.122
 Vibration     8          0.673              1.732              1.610
 Vibration     9          0.684              1.698              1.492
 Vibration    10          0.705              1.639              1.319
 Vibration    11          0.735              1.554              1.121
 Vibration    12          0.767              1.468              0.960
 Vibration    13          0.769              1.463              0.951
 Vibration    14          0.787              1.415              0.873
 Vibration    15          0.801              1.380              0.823
 Vibration    16          0.809              1.360              0.795
 Vibration    17          0.832              1.304              0.722
 Vibration    18          0.858              1.244              0.651
 Vibration    19          0.875              1.207              0.611
 Vibration    20          0.896              1.161              0.564
 Vibration    21          0.925              1.099              0.507

                           ! Non-Optimized Parameters !
 Normal termination of Gaussian 16 at Thu Dec 21 06:47:23 2023.
