 Gaussian 16, Revision A.03,
 Gaussian 16:  ES64L-G16RevA.03 25-Dec-2016

 ----------------------------------------------------------------------
 #P UB3LYP/6-311++G(d,p) nosym opt freq SCRF=(PCM,Solvent=n,n-DiMethylF
 ormamide)
 ----------------------------------------------------------------------

 -------
 Reduced
 -------
 Symbolic Z-matrix:
 Charge = -2 Multiplicity = 1

 SCF Done:  E(UB3LYP) =  -2015.63247163     A.U. after   19 cycles
 SCF Done:  E(UB3LYP) =  -2015.63526902     A.U. after   14 cycles
 SCF Done:  E(UB3LYP) =  -2015.63644791     A.U. after   13 cycles
 SCF Done:  E(UB3LYP) =  -2015.63666951     A.U. after   13 cycles
 SCF Done:  E(UB3LYP) =  -2015.63671324     A.U. after   12 cycles
 SCF Done:  E(UB3LYP) =  -2015.63675255     A.U. after   12 cycles
 SCF Done:  E(UB3LYP) =  -2015.63678402     A.U. after   12 cycles
 SCF Done:  E(UB3LYP) =  -2015.63680317     A.U. after   13 cycles
 SCF Done:  E(UB3LYP) =  -2015.63681526     A.U. after   11 cycles
 SCF Done:  E(UB3LYP) =  -2015.63682261     A.U. after   12 cycles
 SCF Done:  E(UB3LYP) =  -2015.63682300     A.U. after   10 cycles
 Optimization completed.
    -- Stationary point found.
 Normal termination of Gaussian 16 at Sat Feb 10 23:52:26 2024.

 ----------------------------------------------------------------------
 #P Geom=AllCheck Guess=TCheck SCRF=Check GenChk UB3LYP/6-311++G(d,p) F
 req
 ----------------------------------------------------------------------

 Structure from the checkpoint file:  "216-an.chk"
 -------
 Reduced
 -------
 Charge = -2 Multiplicity = 1

                          Input orientation:
 ---------------------------------------------------------------------
 Center     Atomic      Atomic             Coordinates (Angstroms)
 Number     Number       Type             X           Y           Z
 ---------------------------------------------------------------------
      1          6           0        5.134316   -2.603346    0.210850
      2          6           0        5.906680   -1.974158   -0.730766
      3          6           0        5.247847   -1.164472   -1.703765
      4          6           0        3.716200   -2.480559    0.250648
      5          6           0        3.069211   -1.650811   -0.748989
      6          6           0        3.878615   -1.004459   -1.707576
      7          6           0        2.972214   -3.173749    1.265391
      8          6           0        1.538719   -2.976971    1.207297
      9          6           0        0.891730   -2.147225    0.207658
     10          6           0        1.635716   -1.454030   -0.807081
     11          6           0        0.729313   -3.623328    2.165880
     12          6           0       -0.526387   -2.024445    0.247450
     13          6           0       -1.298752   -2.653639    1.189061
     14          8           0        3.531137   -3.915297    2.158756
     15          8           0        1.076791   -0.712501   -1.700460
     16          1           0        5.599872   -3.228114    0.963925
     17          1           0        6.982570   -2.091404   -0.748593
     18         16           0        6.207800   -0.328894   -2.915131
     19          1           0       -2.374643   -2.536399    1.206882
     20          1           0        3.391319   -0.384453   -2.448980
     21          1           0        1.216609   -4.243334    2.907285
     22          1           0       -0.991944   -1.399681   -0.505628
     23          6           0       -0.639920   -3.463323    2.162063
     24         16           0       -1.599874   -4.298904    3.373424
     25          8           0       -0.757123   -4.853007    4.438553
     26          8           0       -2.760712   -3.494854    3.778977
     27          8           0       -2.168736   -5.553805    2.468083
     28          6           0       -3.178726   -6.396413    3.083827
     29          1           0       -2.787235   -6.862515    3.989305
     30          1           0       -3.399338   -7.157599    2.339176
     31          1           0       -4.074076   -5.814706    3.304802
     32          8           0        5.365044    0.225206   -3.980259
     33          8           0        7.368637   -1.132946   -3.320684
     34          8           0        6.776666    0.926009   -2.009798
     35          6           0        7.786722    1.768559   -2.625511
     36          1           0        7.395299    2.234656   -3.531021
     37          1           0        8.682058    1.186808   -2.846427
     38          1           0        8.007329    2.529754   -1.880868
 ---------------------------------------------------------------------

 SCF Done:  E(UB3LYP) =  -2015.63682300     A.U. after    1 cycles

 Alpha  occ. eigenvalues --  -89.08027 -89.08027 -19.17215 -19.17215 -19.12881
 Alpha  occ. eigenvalues --  -19.12881 -19.12796 -19.12796 -19.03458 -19.03457
 Alpha  occ. eigenvalues --  -10.22881 -10.22881 -10.20314 -10.20313 -10.19463
 Alpha  occ. eigenvalues --  -10.19461 -10.18147 -10.18147 -10.17404 -10.17404
 Alpha  occ. eigenvalues --  -10.16642 -10.16642 -10.16090 -10.16089 -10.15661
 Alpha  occ. eigenvalues --  -10.15660  -8.14123  -8.14123  -6.10501  -6.10501
 Alpha  occ. eigenvalues --   -6.10339  -6.10339  -6.10150  -6.10150  -1.14717
 Alpha  occ. eigenvalues --   -1.14716  -1.04065  -1.04064  -1.01762  -1.01761
 Alpha  occ. eigenvalues --   -0.95424  -0.95014  -0.86001  -0.85723  -0.79529
 Alpha  occ. eigenvalues --   -0.77355  -0.75607  -0.74790  -0.73511  -0.72107
 Alpha  occ. eigenvalues --   -0.67027  -0.66820  -0.62822  -0.62639  -0.59338
 Alpha  occ. eigenvalues --   -0.58510  -0.55981  -0.55537  -0.53266  -0.52844
 Alpha  occ. eigenvalues --   -0.51889  -0.51101  -0.49040  -0.48807  -0.47076
 Alpha  occ. eigenvalues --   -0.46531  -0.46081  -0.45715  -0.45198  -0.44915
 Alpha  occ. eigenvalues --   -0.44844  -0.42796  -0.42592  -0.41744  -0.40387
 Alpha  occ. eigenvalues --   -0.40352  -0.40073  -0.39638  -0.39303  -0.37545
 Alpha  occ. eigenvalues --   -0.37012  -0.35880  -0.35470  -0.35127  -0.35091
 Alpha  occ. eigenvalues --   -0.34534  -0.34300  -0.34125  -0.33586  -0.32835
 Alpha  occ. eigenvalues --   -0.32773  -0.32550  -0.31825  -0.31790  -0.29899
 Alpha  occ. eigenvalues --   -0.29876  -0.26041  -0.24995  -0.24233  -0.24172
 Alpha  occ. eigenvalues --   -0.21656  -0.21087  -0.12692
 Alpha virt. eigenvalues --   -0.06124  -0.03120  -0.01355  -0.00448  -0.00120
 Alpha virt. eigenvalues --    0.00983   0.01359   0.01761   0.01995   0.02342
 Alpha virt. eigenvalues --    0.02921   0.03141   0.03508   0.03658   0.04213

  Beta  occ. eigenvalues --  -89.08027 -89.08027 -19.17215 -19.17215 -19.12881
  Beta  occ. eigenvalues --  -19.12881 -19.12796 -19.12796 -19.03458 -19.03457
  Beta  occ. eigenvalues --  -10.22881 -10.22881 -10.20314 -10.20313 -10.19463
  Beta  occ. eigenvalues --  -10.19461 -10.18147 -10.18147 -10.17404 -10.17404
  Beta  occ. eigenvalues --  -10.16642 -10.16642 -10.16090 -10.16089 -10.15661
  Beta  occ. eigenvalues --  -10.15660  -8.14123  -8.14123  -6.10501  -6.10501
  Beta  occ. eigenvalues --   -6.10339  -6.10339  -6.10150  -6.10150  -1.14717
  Beta  occ. eigenvalues --   -1.14716  -1.04065  -1.04064  -1.01762  -1.01761
  Beta  occ. eigenvalues --   -0.95424  -0.95014  -0.86001  -0.85723  -0.79529
  Beta  occ. eigenvalues --   -0.77355  -0.75607  -0.74790  -0.73511  -0.72107
  Beta  occ. eigenvalues --   -0.67027  -0.66820  -0.62822  -0.62639  -0.59338
  Beta  occ. eigenvalues --   -0.58510  -0.55981  -0.55537  -0.53266  -0.52844
  Beta  occ. eigenvalues --   -0.51889  -0.51101  -0.49040  -0.48807  -0.47076
  Beta  occ. eigenvalues --   -0.46531  -0.46081  -0.45715  -0.45198  -0.44915
  Beta  occ. eigenvalues --   -0.44844  -0.42796  -0.42592  -0.41744  -0.40387
  Beta  occ. eigenvalues --   -0.40352  -0.40073  -0.39638  -0.39303  -0.37545
  Beta  occ. eigenvalues --   -0.37012  -0.35880  -0.35470  -0.35127  -0.35091
  Beta  occ. eigenvalues --   -0.34534  -0.34300  -0.34125  -0.33586  -0.32835
  Beta  occ. eigenvalues --   -0.32773  -0.32550  -0.31825  -0.31790  -0.29899
  Beta  occ. eigenvalues --   -0.29876  -0.26041  -0.24995  -0.24233  -0.24172
  Beta  occ. eigenvalues --   -0.21656  -0.21087  -0.12692
  Beta virt. eigenvalues --   -0.06124  -0.03120  -0.01355  -0.00448  -0.00120
  Beta virt. eigenvalues --    0.00983   0.01359   0.01761   0.01995   0.02342
  Beta virt. eigenvalues --    0.02921   0.03141   0.03508   0.03658   0.04213

 Mulliken charges and spin densities:
               1          2
     1  C   -0.117568  -0.000000
     2  C   -0.468441  -0.000000
     3  C   -1.105100   0.000000
     4  C    0.632680   0.000000
     5  C    0.235003   0.000000
     6  C    0.182522   0.000000
     7  C   -0.598200  -0.000000
     8  C    0.235008  -0.000000
     9  C    0.632679   0.000000
    10  C   -0.598188  -0.000000
    11  C    0.182523   0.000000
    12  C   -0.117565   0.000000
    13  C   -0.468419   0.000000
    14  O   -0.600683   0.000000
    15  O   -0.600684   0.000000
    16  H    0.156942  -0.000000
    17  H    0.214693  -0.000000
    18  S    0.458630   0.000000
    19  H    0.214693   0.000000
    20  H    0.218790   0.000000
    21  H    0.218790  -0.000000
    22  H    0.156942   0.000000
    23  C   -1.105130  -0.000000
    24  S    0.458621  -0.000000
    25  O   -0.222181   0.000000
    26  O   -0.275296   0.000000
    27  O   -0.081135   0.000000
    28  C   -0.163328   0.000000
    29  H    0.175635  -0.000000
    30  H    0.185272   0.000000
    31  H    0.171770  -0.000000
    32  O   -0.222172  -0.000000
    33  O   -0.275307   0.000000
    34  O   -0.081141  -0.000000
    35  C   -0.163335  -0.000000
    36  H    0.175638  -0.000000
    37  H    0.171770   0.000000
    38  H    0.185271  -0.000000
 Sum of Mulliken charges =  -2.00000   0.00000

 Dipole moment (field-independent basis, Debye):
    X=            -22.1327    Y=             22.2282    Z=             -2.2012  Tot=             31.4451
 Quadrupole moment (field-independent basis, Debye-Ang):
   XX=           -264.6553   YY=           -230.8778   ZZ=           -260.3075
   XY=             70.6810   XZ=             29.2403   YZ=             37.5813

  Exact polarizability: 816.777  91.427 345.966-177.610-148.125 438.529
 Approx polarizability: 904.414  47.041 380.922-150.459-152.727 487.147

                      1                      2                      3
                      A                      A                      A
 Frequencies --     10.3155                19.6805                21.7319
 Red. masses --      5.3886                 5.3809                 7.0979
 Frc consts  --      0.0003                 0.0012                 0.0020
 IR Inten    --     11.6721                 0.0000                 6.9990

                      4                      5                      6
                      A                      A                      A
 Frequencies --     52.0056                52.9245                58.0720
 Red. masses --      3.2590                 5.2638                 3.3223
 Frc consts  --      0.0052                 0.0087                 0.0066
 IR Inten    --      7.1087                 0.0000                 0.0000

                      7                      8                      9
                      A                      A                      A
 Frequencies --     68.7753                86.4316               116.8510
 Red. masses --      6.5100                 7.0306                 3.7890
 Frc consts  --      0.0181                 0.0309                 0.0305
 IR Inten    --     11.8445                 5.1369                 4.2147

                     10                     11                     12
                      A                      A                      A
 Frequencies --    123.6613               128.0142               144.1180
 Red. masses --      6.8193                 3.3837                 1.2182
 Frc consts  --      0.0614                 0.0327                 0.0149
 IR Inten    --      0.0000                 0.0000                 1.8311

                     13                     14                     15
                      A                      A                      A
 Frequencies --    146.4154               162.1102               180.8885
 Red. masses --      1.4032                 8.1111                 9.3930
 Frc consts  --      0.0177                 0.1256                 0.1811
 IR Inten    --      0.0000                19.6497                 0.0000

                     16                     17                     18
                      A                      A                      A
 Frequencies --    211.0727               222.3996               239.0242
 Red. masses --      5.5095                 8.8091                 6.0932
 Frc consts  --      0.1446                 0.2567                 0.2051
 IR Inten    --      0.0000                24.0287                80.2886

                     19                     20                     21
                      A                      A                      A
 Frequencies --    261.6985               262.8694               267.5892
 Red. masses --      6.9155                 8.0203                 7.6083
 Frc consts  --      0.2790                 0.3265                 0.3210
 IR Inten    --      0.0000                13.6087                 0.0000

                     22                     23                     24
                      A                      A                      A
 Frequencies --    333.0464               338.8020               367.5395
 Red. masses --      6.1327                 6.2410                 7.4408
 Frc consts  --      0.4008                 0.4221                 0.5922
 IR Inten    --      1.5629                 0.0000                43.8297

                     25                     26                     27
                      A                      A                      A
 Frequencies --    368.1120               383.5606               412.0409
 Red. masses --      7.5913                 9.6585                 7.0009
 Frc consts  --      0.6061                 0.8372                 0.7003
 IR Inten    --      0.0000                22.1723                 0.0000

                     28                     29                     30
                      A                      A                      A
 Frequencies --    418.5222               427.5801               460.7558
 Red. masses --      3.4048                 7.2332                10.1577
 Frc consts  --      0.3514                 0.7791                 1.2705
 IR Inten    --     13.6208                 0.0000                66.5887

                     31                     32                     33
                      A                      A                      A
 Frequencies --    461.7965               479.0375               484.8654
 Red. masses --      8.3666                 4.2346                10.2339
 Frc consts  --      1.0512                 0.5725                 1.4175
 IR Inten    --      0.0000                 0.0000                55.1767

                     34                     35                     36
                      A                      A                      A
 Frequencies --    489.3005               492.9377               522.5523
 Red. masses --     10.7078                 8.3526                 8.2725
 Frc consts  --      1.5104                 1.1958                 1.3309
 IR Inten    --      0.0000                 0.0000                 0.0000

                     37                     38                     39
                      A                      A                      A
 Frequencies --    540.8960               585.0256               620.5419
 Red. masses --      5.3060                 9.8894                 7.5557
 Frc consts  --      0.9146                 1.9942                 1.7142
 IR Inten    --    333.3206              1422.0678                 0.0000

                     40                     41                     42
                      A                      A                      A
 Frequencies --    631.7255               639.1011               647.2983
 Red. masses --      6.3065                 7.3640                 8.7290
 Frc consts  --      1.4829                 1.7722                 2.1549
 IR Inten    --      0.0000               125.0060              1066.1485

                     43                     44                     45
                      A                      A                      A
 Frequencies --    662.2251               680.8597               689.7069
 Red. masses --      8.6429                 7.8293                 6.6777
 Frc consts  --      2.2332                 2.1384                 1.8716
 IR Inten    --      0.0000              1024.2389                 0.0000

                     46                     47                     48
                      A                      A                      A
 Frequencies --    715.7443               716.1950               731.3787
 Red. masses --      4.6012                 3.7182                 8.8262
 Frc consts  --      1.3888                 1.1237                 2.7817
 IR Inten    --     43.0546                 6.4176                 0.0000

                     49                     50                     51
                      A                      A                      A
 Frequencies --    767.4480               799.9516               824.4146
 Red. masses --      1.5653                 1.7515                 3.8566
 Frc consts  --      0.5432                 0.6604                 1.5443
 IR Inten    --      0.0000                48.5651                 0.0000

                     52                     53                     54
                      A                      A                      A
 Frequencies --    843.9900               944.2495               951.6666
 Red. masses --      6.9719                 5.2264                 1.4920
 Frc consts  --      2.9260                 2.7455                 0.7962
 IR Inten    --    282.4835               787.6881                 0.0039

                     55                     56                     57
                      A                      A                      A
 Frequencies --    951.9371               963.3531               964.1001
 Red. masses --      1.6038                 9.2736                 4.8582
 Frc consts  --      0.8563                 5.0707                 2.6605
 IR Inten    --    269.0083                 0.0001               973.2494

                     58                     59                     60
                      A                      A                      A
 Frequencies --    968.6722               978.6075               980.5491
 Red. masses --      6.0924                 1.3096                 1.3337
 Frc consts  --      3.3682                 0.7389                 0.7555
 IR Inten    --      0.0000                 0.0000                 5.9282

                     61                     62                     63
                      A                      A                      A
 Frequencies --   1032.8880              1045.5359              1064.4285
 Red. masses --      2.4073                 2.3799                 9.2976
 Frc consts  --      1.5132                 1.5328                 6.2066
 IR Inten    --   1775.2824                 0.0000              2107.1841

                     64                     65                     66
                      A                      A                      A
 Frequencies --   1084.1504              1104.7227              1132.9563
 Red. masses --      7.0843                 4.7369                 1.5727
 Frc consts  --      4.9060                 3.4060                 1.1894
 IR Inten    --      0.0000              1036.8618                 0.0000

                     67                     68                     69
                      A                      A                      A
 Frequencies --   1139.0623              1162.6542              1162.6571
 Red. masses --      2.1552                 1.2623                 1.2623
 Frc consts  --      1.6476                 1.0054                 1.0054
 IR Inten    --    589.5789                10.4218                 0.0458

                     70                     71                     72
                      A                      A                      A
 Frequencies --   1178.8334              1179.7685              1180.2488
 Red. masses --      2.7838                 1.3398                 1.7073
 Frc consts  --      2.2792                 1.0987                 1.4013
 IR Inten    --      0.0000                30.8303                 0.0000

                     73                     74                     75
                      A                      A                      A
 Frequencies --   1203.4962              1206.2665              1230.2709
 Red. masses --      2.0040                 1.6604                11.3988
 Frc consts  --      1.7101                 1.4235                10.1650
 IR Inten    --    552.5699                 0.0000              1009.7634

                     76                     77                     78
                      A                      A                      A
 Frequencies --   1231.7198              1244.9551              1312.1044
 Red. masses --     16.9481                 2.5411                 2.5155
 Frc consts  --     15.1494                 2.3205                 2.5516
 IR Inten    --      0.0001               242.0352                 0.0000

                     79                     80                     81
                      A                      A                      A
 Frequencies --   1336.8524              1339.2611              1356.4883
 Red. masses --      5.0676                 3.4279                 6.8794
 Frc consts  --      5.3361                 3.6225                 7.4582
 IR Inten    --      0.0000              1866.3710              1206.7498

                     82                     83                     84
                      A                      A                      A
 Frequencies --   1435.1765              1449.7541              1454.7271
 Red. masses --      5.1715                 3.2539                 1.1650
 Frc consts  --      6.2759                 4.0294                 1.4526
 IR Inten    --    943.8934                 0.0000                21.4243

                     85                     86                     87
                      A                      A                      A
 Frequencies --   1455.1539              1458.5202              1472.5169
 Red. masses --      1.1579                 2.5000                 5.6667
 Frc consts  --      1.4446                 3.1334                 7.2394
 IR Inten    --      0.0000               202.2682                 0.0000

                     88                     89                     90
                      A                      A                      A
 Frequencies --   1474.6626              1474.7146              1491.3531
 Red. masses --      1.0461                 1.0695                 1.0481
 Frc consts  --      1.3403                 1.3703                 1.3735
 IR Inten    --     16.9600                 0.0000                38.1482

                     91                     92                     93
                      A                      A                      A
 Frequencies --   1491.3541              1496.5939              1520.2240
 Red. masses --      1.0482                 5.4731                 6.9351
 Frc consts  --      1.3736                 7.2226                 9.4431
 IR Inten    --      0.6325                 0.0000               156.2908

                     94                     95                     96
                      A                      A                      A
 Frequencies --   1565.5369              1573.5240              1597.5138
 Red. masses --      8.0478                 6.3663                 6.6614
 Frc consts  --     11.6212                 9.2871                10.0163
 IR Inten    --      0.0000               296.3506                 0.0000

                     97                     98                     99
                      A                      A                      A
 Frequencies --   3047.3614              3047.4011              3128.7735
 Red. masses --      1.0291                 1.0291                 1.1086
 Frc consts  --      5.6305                 5.6307                 6.3938
 IR Inten    --    149.6259                 0.0082                 5.2325

                    100                    101                    102
                      A                      A                      A
 Frequencies --   3128.7746              3158.0969              3158.0973
 Red. masses --      1.1086                 1.1058                 1.1058
 Frc consts  --      6.3938                 6.4977                 6.4977
 IR Inten    --     40.3003                 1.3932                17.0921

                    103                    104                    105
                      A                      A                      A
 Frequencies --   3180.9222              3181.2160              3199.4041
 Red. masses --      1.0863                 1.0865                 1.0942
 Frc consts  --      6.4762                 6.4784                 6.5989
 IR Inten    --     25.5777                 0.0000                33.9895

                    106                    107                    108
                      A                      A                      A
 Frequencies --   3199.4526              3200.4546              3200.6850
 Red. masses --      1.0935                 1.0899                 1.0905
 Frc consts  --      6.5952                 6.5773                 6.5823
 IR Inten    --      0.0000                18.6595                 0.0000

 - Thermochemistry -
 -------------------
 Temperature   298.150 Kelvin.  Pressure   1.00000 Atm.
 Atom     1 has atomic number  6 and mass  12.00000

 Molecular mass:   395.99736 amu.
 Principal axes and moments of inertia in atomic units:
                           1         2         3
     Eigenvalues --  2933.43154********************
           X            0.74840   0.66234   0.03467
           Y            0.40673  -0.49960   0.76483
           Z           -0.52390   0.55830   0.64330
 This molecule is an asymmetric top.
 Rotational symmetry number  1.
 Warning -- assumption of classical behavior for rotation
           may cause significant error
 Rotational temperatures (Kelvin)      0.02953     0.00306     0.00289
 Rotational constants (GHZ):           0.61523     0.06368     0.06032
 Zero-point vibrational energy     677373.6 (Joules/Mol)
                                  161.89617 (Kcal/Mol)
 Warning -- explicit consideration of  39 degrees of freedom as
           vibrations may cause significant error
 Vibrational temperatures:     14.84    28.32    31.27    74.82    76.15
          (Kelvin)             83.55    98.95   124.36   168.12   177.92
                              184.18   207.35   210.66   233.24   260.26
                              303.69   319.98   343.90   376.53   378.21
                              385.00   479.18   487.46   528.81   529.63
                              551.86   592.83   602.16   615.19   662.92
                              664.42   689.23   697.61   703.99   709.23
                              751.84   778.23   841.72   892.82   908.91
                              919.52   931.32   952.79   979.61   992.33
                             1029.80  1030.44  1052.29  1104.19  1150.95
                             1186.15  1214.31  1358.56  1369.24  1369.63
                             1386.05  1387.12  1393.70  1408.00  1410.79
                             1486.10  1504.29  1531.48  1559.85  1589.45
                             1630.07  1638.86  1672.80  1672.80  1696.08
                             1697.42  1698.11  1731.56  1735.55  1770.09
                             1772.17  1791.21  1887.83  1923.43  1926.90
                             1951.68  2064.90  2085.87  2093.03  2093.64
                             2098.49  2118.62  2121.71  2121.79  2145.72
                             2145.73  2153.26  2187.26  2252.46  2263.95
                             2298.47  4384.47  4384.53  4501.61  4501.61
                             4543.80  4543.80  4576.64  4577.06  4603.23
                             4603.30  4604.74  4605.07

 Zero-point correction=                           0.257998 (Hartree/Particle)
 Thermal correction to Energy=                    0.282167
 Thermal correction to Enthalpy=                  0.283111
 Thermal correction to Gibbs Free Energy=         0.200588
 Sum of electronic and zero-point Energies=          -2015.378825
 Sum of electronic and thermal Energies=             -2015.354656
 Sum of electronic and thermal Enthalpies=           -2015.353712
 Sum of electronic and thermal Free Energies=        -2015.436235

                     E (Thermal)             CV                S
                      KCal/Mol        Cal/Mol-Kelvin    Cal/Mol-Kelvin
 Total                  177.062             89.596            173.685
 Electronic               0.000              0.000              0.000
 Translational            0.889              2.981             43.820
 Rotational               0.889              2.981             36.163
 Vibrational            175.285             83.634             93.702
 Vibration     1          0.593              1.987              7.949
 Vibration     2          0.593              1.986              6.666
 Vibration     3          0.593              1.985              6.469
 Vibration     4          0.596              1.977              4.740
 Vibration     5          0.596              1.976              4.705
 Vibration     6          0.596              1.974              4.522
 Vibration     7          0.598              1.969              4.188
 Vibration     8          0.601              1.959              3.739
 Vibration     9          0.608              1.935              3.152
 Vibration    10          0.610              1.929              3.042
 Vibration    11          0.611              1.925              2.976
 Vibration    12          0.616              1.909              2.748
 Vibration    13          0.617              1.907              2.718
 Vibration    14          0.622              1.889              2.525
 Vibration    15          0.630              1.866              2.319
 Vibration    16          0.643              1.824              2.034
 Vibration    17          0.648              1.807              1.939
 Vibration    18          0.657              1.781              1.810
 Vibration    19          0.669              1.743              1.650
 Vibration    20          0.670              1.741              1.643
 Vibration    21          0.673              1.733              1.612
 Vibration    22          0.715              1.610              1.245
 Vibration    23          0.719              1.598              1.218
 Vibration    24          0.740              1.539              1.090
 Vibration    25          0.741              1.538              1.088
 Vibration    26          0.753              1.505              1.025
 Vibration    27          0.776              1.444              0.919
 Vibration    28          0.781              1.430              0.897
 Vibration    29          0.789              1.410              0.867
 Vibration    30          0.819              1.337              0.764
 Vibration    31          0.820              1.335              0.761
 Vibration    32          0.835              1.297              0.713
 Vibration    33          0.841              1.284              0.697
 Vibration    34          0.845              1.274              0.685
 Vibration    35          0.849              1.266              0.676
 Vibration    36          0.878              1.200              0.604
 Vibration    37          0.896              1.160              0.563
 Vibration    38          0.942              1.064              0.476
 Vibration    39          0.981              0.989              0.416

                           ! Non-Optimized Parameters !
 Normal termination of Gaussian 16 at Sun Feb 11 02:04:56 2024.
