 Q-Chem 5.4, Q-Chem, Inc., Pleasanton, CA (2021)
 Q-Chem 5.4.0 for Intel X86 EM64T Linux

User input:
--------------------------------------------------------------
$molecule
-2 1
C                  0.7901260000      1.7059230000     -0.6366420000
C                 -0.5047370000      1.0407330000     -0.5920940000
C                 -0.6257160000     -0.2751560000     -0.0807200000
C                  0.5543080000     -1.0310760000      0.3156970000
C                  1.8235420000     -0.3609340000      0.2427660000
C                  1.9373100000      0.9473140000     -0.2197310000
C                  3.2831760000      1.6287670000     -0.3174170000
C                  3.0362790000     -1.1363260000      0.7044790000
O                  0.9220930000      2.9300040000     -1.0541190000
O                  0.4767260000     -2.2572530000      0.7405650000
H                  4.0426110000      0.9824700000     -0.7807780000
H                  3.6826840000      1.9214900000      0.6684150000
H                  3.1656160000      2.5406120000     -0.9081000000
H                  2.6937360000     -2.0294870000      1.2328490000
H                  3.6829280000     -0.5403730000      1.3645930000
H                  3.6703480000     -1.4704520000     -0.1342690000
C                 -1.9032790000     -1.0795830000      0.1944790000
C                 -3.0925500000     -0.3577890000      0.8504150000
C                 -2.3459340000     -1.9730120000     -0.9885110000
C                 -1.5937250000      1.9317640000     -1.2046680000
C                 -2.2852650000      2.8657180000     -0.1833620000
C                 -2.5996120000      1.2906510000     -2.1756130000
H                 -1.5524860000     -1.8028070000      0.9391510000
H                 -3.8164820000     -1.0993500000      1.2170030000
H                 -3.6373140000      0.3161610000      0.1876500000
H                 -2.7544310000      0.2303030000      1.7099290000
H                 -3.1665230000     -2.6453320000     -0.6855540000
H                 -1.5000520000     -2.5919460000     -1.2982090000
H                 -2.6894650000     -1.3981380000     -1.8523320000
H                 -0.9978350000      2.6210980000     -1.8132440000
H                 -2.9378500000      3.5921120000     -0.6968290000
H                 -1.5181610000      3.4255030000      0.3576740000
H                 -2.8972560000      2.3253390000      0.5433230000
H                 -3.1372580000      2.0785430000     -2.7220100000
H                 -3.3547520000      0.6632820000     -1.6997670000
H                 -2.0766680000      0.6721460000     -2.9124460000
$end
$rem
MAX_SCF_CYCLES=200
BASIS  =  6-311++G(d,p)
GUI  =  2
JOB_TYPE  =  SP
METHOD  =  B3LYP
SOLVENT_METHOD = PCM
$end
$pcm
theory = CPCM
$end
$solvent
dielectric 37.219
opticaldielectric 1.43
$end

--------------------------------------------------------------

             Standard Nuclear Orientation (Angstroms)
    I     Atom           X                Y                Z
 ----------------------------------------------------------------
    1      C       0.7901260000     1.7059230000    -0.6366420000
    2      C      -0.5047370000     1.0407330000    -0.5920940000
    3      C      -0.6257160000    -0.2751560000    -0.0807200000
    4      C       0.5543080000    -1.0310760000     0.3156970000
    5      C       1.8235420000    -0.3609340000     0.2427660000
    6      C       1.9373100000     0.9473140000    -0.2197310000
    7      C       3.2831760000     1.6287670000    -0.3174170000
    8      C       3.0362790000    -1.1363260000     0.7044790000
    9      O       0.9220930000     2.9300040000    -1.0541190000
   10      O       0.4767260000    -2.2572530000     0.7405650000
   11      H       4.0426110000     0.9824700000    -0.7807780000
   12      H       3.6826840000     1.9214900000     0.6684150000
   13      H       3.1656160000     2.5406120000    -0.9081000000
   14      H       2.6937360000    -2.0294870000     1.2328490000
   15      H       3.6829280000    -0.5403730000     1.3645930000
   16      H       3.6703480000    -1.4704520000    -0.1342690000
   17      C      -1.9032790000    -1.0795830000     0.1944790000
   18      C      -3.0925500000    -0.3577890000     0.8504150000
   19      C      -2.3459340000    -1.9730120000    -0.9885110000
   20      C      -1.5937250000     1.9317640000    -1.2046680000
   21      C      -2.2852650000     2.8657180000    -0.1833620000
   22      C      -2.5996120000     1.2906510000    -2.1756130000
   23      H      -1.5524860000    -1.8028070000     0.9391510000
   24      H      -3.8164820000    -1.0993500000     1.2170030000
   25      H      -3.6373140000     0.3161610000     0.1876500000
   26      H      -2.7544310000     0.2303030000     1.7099290000
   27      H      -3.1665230000    -2.6453320000    -0.6855540000
   28      H      -1.5000520000    -2.5919460000    -1.2982090000
   29      H      -2.6894650000    -1.3981380000    -1.8523320000
   30      H      -0.9978350000     2.6210980000    -1.8132440000
   31      H      -2.9378500000     3.5921120000    -0.6968290000
   32      H      -1.5181610000     3.4255030000     0.3576740000
   33      H      -2.8972560000     2.3253390000     0.5433230000
   34      H      -3.1372580000     2.0785430000    -2.7220100000
   35      H      -3.3547520000     0.6632820000    -1.6997670000
   36      H      -2.0766680000     0.6721460000    -2.9124460000
 ----------------------------------------------------------------

    9    -696.3936417120      9.51e-06  Convergence criterion met
 Total energy in the final basis set =     -696.3936417120

                    Orbital Energies (a.u.)
 --------------------------------------------------------------

 Alpha MOs
 -- Occupied --
-19.0031 -19.0031 -10.1507 -10.1506 -10.1378 -10.1377 -10.1345 -10.1344
-10.1336 -10.1336 -10.1290 -10.1289 -10.1166 -10.1161 -10.1126 -10.1120
 -0.9207  -0.9173  -0.7842  -0.7653  -0.7554  -0.7024  -0.6877  -0.6636
 -0.6583  -0.6234  -0.6203  -0.5616  -0.5478  -0.4943  -0.4811  -0.4541
 -0.4249  -0.4137  -0.4132  -0.4068  -0.3994  -0.3876  -0.3843  -0.3810
 -0.3673  -0.3669  -0.3588  -0.3565  -0.3533  -0.3530  -0.3323  -0.3263
 -0.3178  -0.3147  -0.3095  -0.3068  -0.2908  -0.2907  -0.2746  -0.2737
 -0.2085  -0.1896  -0.1826  -0.1750  -0.1027

          Ground-State Mulliken Net Atomic Charges

     Atom                 Charge (a.u.)
  ----------------------------------------
      1 C                    -1.311175
      2 C                     0.672188
      3 C                     0.681423
      4 C                    -1.309585
      5 C                     0.666063
      6 C                     0.668208
      7 C                    -0.539068
      8 C                    -0.535455
      9 O                    -0.707787
     10 O                    -0.707878
     11 H                     0.131478
     12 H                     0.141251
     13 H                     0.154383
     14 H                     0.153959
     15 H                     0.131533
     16 H                     0.141070
     17 C                     0.187393
     18 C                    -0.686577
     19 C                    -0.703683
     20 C                     0.186260
     21 C                    -0.701972
     22 C                    -0.683979
     23 H                     0.178127
     24 H                     0.143497
     25 H                     0.121954
     26 H                     0.134509
     27 H                     0.130389
     28 H                     0.164716
     29 H                     0.111794
     30 H                     0.179530
     31 H                     0.130389
     32 H                     0.163590
     33 H                     0.112502
     34 H                     0.143536
     35 H                     0.122137
     36 H                     0.135280
  ----------------------------------------
  Sum of atomic charges =    -2.000000

                    Cartesian Multipole Moments
 -----------------------------------------------------------------
    Charge (ESU x 10^10)
                -9.6064
    Dipole Moment (Debye)
         X      -5.5566      Y      -3.2735      Z       1.6829
       Tot       6.6651
    Quadrupole Moments (Debye-Ang)
        XX    -125.2093     XY      -6.0721     YY    -168.3951
        XZ       1.1053     YZ      18.2617     ZZ    -118.5458

 Total job time:  71.64s(wall), 515.22s(cpu)
        *  Thank you very much for using Q-Chem.  Have a nice day.  *
