 Gaussian 16, Revision A.03,
 Gaussian 16:  ES64L-G16RevA.03 25-Dec-2016

 --------------------------------------
 #P UB3LYP/6-311++G(d,p) nosym opt freq
 --------------------------------------

 -------
 Radical
 -------
 Symbolic Z-matrix:
 Charge = -1 Multiplicity = 2

 SCF Done:  E(UB3LYP) =  -996.334991224     A.U. after   33 cycles
 SCF Done:  E(UB3LYP) =  -996.367082412     A.U. after   22 cycles
 SCF Done:  E(UB3LYP) =  -996.371154259     A.U. after   19 cycles
 SCF Done:  E(UB3LYP) =  -996.371248086     A.U. after   17 cycles
 SCF Done:  E(UB3LYP) =  -996.371261932     A.U. after   17 cycles
 Optimization completed.
    -- Stationary point found.
 Normal termination of Gaussian 16 at Thu Dec 21 07:09:21 2023.

 ----------------------------------------------------------------------
 #P Geom=AllCheck Guess=TCheck SCRF=Check GenChk UB3LYP/6-311++G(d,p) F
 req
 ----------------------------------------------------------------------

 Structure from the checkpoint file:  "136-rad.chk"
 -------
 Radical
 -------
 Charge = -1 Multiplicity = 2

                          Input orientation:
 ---------------------------------------------------------------------
 Center     Atomic      Atomic             Coordinates (Angstroms)
 Number     Number       Type             X           Y           Z
 ---------------------------------------------------------------------
      1          8           0       -0.050191   -1.533288   -2.353267
      2          6           0       -0.027368   -0.834625   -1.313114
      3          6           0        1.231580   -0.455033   -0.661009
      4          6           0        2.436069   -0.883586   -1.214393
      5          6           0        3.675458   -0.558769   -0.645134
      6          6           0        4.915879   -0.991611   -1.202445
      7          6           0        6.111571   -0.656967   -0.621583
      8          6           0        6.137380    0.137709    0.561939
      9          6           0        4.966878    0.572736    1.127365
     10          6           0        3.701317    0.246139    0.553552
     11          6           0        2.487021    0.675085    1.106820
     12          6           0        1.257335    0.349839    0.537513
     13          6           0        0.027109    0.834763    1.172780
     14          8           0        0.050505    1.533711    2.213670
     15          6           0       -1.231097    0.455548    0.521448
     16          6           0       -2.436401    0.883845    1.074541
     17          6           0       -3.675155    0.558782    0.505121
     18          6           0       -4.916054    0.991399    1.062212
     19          6           0       -6.111647    0.656528    0.481183
     20          6           0       -6.137580   -0.137990   -0.702091
     21          6           0       -4.966764   -0.572811   -1.267331
     22          6           0       -3.701691   -0.246205   -0.693709
     23          6           0       -2.486892   -0.674862   -1.246663
     24          6           0       -1.257655   -0.349493   -0.677371
     25          1           0        2.388445   -1.486874   -2.114774
     26          1           0        4.892841   -1.596757   -2.103948
     27          1           0        7.045085   -0.995271   -1.059708
     28          1           0        7.090271    0.396085    1.012493
     29          1           0        4.983620    1.178129    2.028811
     30          1           0        2.479018    1.280711    2.006829
     31          1           0       -2.388846    1.487149    1.974922
     32          1           0       -4.893485    1.596562    1.963691
     33          1           0       -7.044907    0.994997    0.919685
     34          1           0       -7.090159   -0.396777   -1.153105
     35          1           0       -4.982991   -1.178261   -2.168814
     36          1           0       -2.478499   -1.280538   -2.146718
 ---------------------------------------------------------------------

 SCF Done:  E(UB3LYP) =  -996.371261932     A.U. after    1 cycles

 Alpha  occ. eigenvalues --  -18.95737 -18.95687 -10.10868 -10.10814 -10.08342
 Alpha  occ. eigenvalues --  -10.08339 -10.08307 -10.08304 -10.08240 -10.08237
 Alpha  occ. eigenvalues --  -10.08232 -10.08230 -10.08042 -10.08040 -10.08004
 Alpha  occ. eigenvalues --  -10.08001 -10.06406 -10.06405 -10.06391 -10.06390
 Alpha  occ. eigenvalues --  -10.06341 -10.06340 -10.06308 -10.06307  -0.88526
 Alpha  occ. eigenvalues --   -0.88252  -0.77439  -0.77327  -0.73069  -0.71790
 Alpha  occ. eigenvalues --   -0.67545  -0.67521  -0.66653  -0.63525  -0.62595
 Alpha  occ. eigenvalues --   -0.62182  -0.56040  -0.55294  -0.51936  -0.51918
 Alpha  occ. eigenvalues --   -0.49775  -0.48853  -0.46605  -0.44301  -0.42326
 Alpha  occ. eigenvalues --   -0.41734  -0.41475  -0.38093  -0.36646  -0.36447
 Alpha  occ. eigenvalues --   -0.35411  -0.34763  -0.33642  -0.33282  -0.31637
 Alpha  occ. eigenvalues --   -0.31267  -0.31170  -0.30926  -0.30474  -0.29403
 Alpha  occ. eigenvalues --   -0.29238  -0.28993  -0.27865  -0.27585  -0.26196
 Alpha  occ. eigenvalues --   -0.26162  -0.25843  -0.23821  -0.23101  -0.22643
 Alpha  occ. eigenvalues --   -0.22023  -0.20641  -0.19111  -0.18745  -0.15124
 Alpha  occ. eigenvalues --   -0.14066  -0.12677  -0.12012  -0.12004  -0.11908
 Alpha  occ. eigenvalues --   -0.01724
 Alpha virt. eigenvalues --    0.02442   0.05704   0.06631   0.06644   0.07465
 Alpha virt. eigenvalues --    0.08307   0.08356   0.09651   0.09798   0.10011
 Alpha virt. eigenvalues --    0.10960   0.11456   0.11458   0.11740   0.12124

  Beta  occ. eigenvalues --  -18.95196 -18.95139 -10.10729 -10.10673 -10.08317
  Beta  occ. eigenvalues --  -10.08314 -10.08292 -10.08290 -10.08244 -10.08241
  Beta  occ. eigenvalues --  -10.08227 -10.08224 -10.07993 -10.07991 -10.07954
  Beta  occ. eigenvalues --  -10.07952 -10.06402 -10.06401 -10.06384 -10.06383
  Beta  occ. eigenvalues --  -10.06269 -10.06267 -10.06229 -10.06229  -0.87596
  Beta  occ. eigenvalues --   -0.87294  -0.77321  -0.77245  -0.72815  -0.71700
  Beta  occ. eigenvalues --   -0.67466  -0.67420  -0.66350  -0.63375  -0.62354
  Beta  occ. eigenvalues --   -0.62104  -0.55897  -0.54712  -0.51846  -0.51752
  Beta  occ. eigenvalues --   -0.49759  -0.48807  -0.46380  -0.44049  -0.42286
  Beta  occ. eigenvalues --   -0.41590  -0.41442  -0.38009  -0.36537  -0.36217
  Beta  occ. eigenvalues --   -0.35344  -0.34728  -0.33596  -0.33210  -0.31611
  Beta  occ. eigenvalues --   -0.31245  -0.30684  -0.30382  -0.30353  -0.29297
  Beta  occ. eigenvalues --   -0.29015  -0.28411  -0.27829  -0.26837  -0.26074
  Beta  occ. eigenvalues --   -0.25697  -0.24082  -0.23704  -0.23068  -0.22371
  Beta  occ. eigenvalues --   -0.21865  -0.19607  -0.18885  -0.18339  -0.13605
  Beta  occ. eigenvalues --   -0.13276  -0.12174  -0.11762  -0.11395  -0.11118
  Beta virt. eigenvalues --    0.03155   0.03575   0.05860   0.06626   0.06639
  Beta virt. eigenvalues --    0.08301   0.08317   0.08350   0.09647   0.09999
  Beta virt. eigenvalues --    0.10043   0.10959   0.11451   0.11587   0.12132

 Mulliken charges and spin densities:
               1          2
     1  O   -0.337703   0.203818
     2  C   -0.853587   0.068809
     3  C    0.334243   0.048390
     4  C    0.059551   0.011584
     5  C    0.127137   0.037387
     6  C   -0.240607  -0.008923
     7  C   -0.319174   0.026410
     8  C   -0.318807   0.025045
     9  C   -0.242301  -0.007661
    10  C    0.129616   0.036278
    11  C    0.059423   0.013708
    12  C    0.332624   0.048285
    13  C   -0.850784   0.070234
    14  O   -0.339112   0.206265
    15  C    0.331802   0.048420
    16  C    0.059249   0.013755
    17  C    0.128895   0.036374
    18  C   -0.242221  -0.007651
    19  C   -0.318905   0.025106
    20  C   -0.319161   0.026533
    21  C   -0.240340  -0.008972
    22  C    0.127466   0.037519
    23  C    0.059920   0.011530
    24  C    0.333630   0.048634
    25  H    0.134928  -0.001532
    26  H    0.115514   0.001093
    27  H    0.134257  -0.002213
    28  H    0.134252  -0.002116
    29  H    0.115558   0.001027
    30  H    0.135106  -0.001694
    31  H    0.135086  -0.001695
    32  H    0.115542   0.001029
    33  H    0.134242  -0.002121
    34  H    0.134242  -0.002223
    35  H    0.115505   0.001099
    36  H    0.134915  -0.001530
 Sum of Mulliken charges =  -1.00000   1.00000

 Dipole moment (field-independent basis, Debye):
    X=              0.0026    Y=             -0.0123    Z=              0.3185  Tot=              0.3187
 Quadrupole moment (field-independent basis, Debye-Ang):
   XX=           -174.8331   YY=           -154.0778   ZZ=           -160.4623
   XY=              0.9321   XZ=             -0.4296   YZ=             -7.8364

  Exact polarizability: 698.502 -22.039 193.381   6.680  90.503 266.529
 Approx polarizability: 999.050 -28.907 348.180  11.499 194.618 506.116

                      1                      2                      3
                      A                      A                      A
 Frequencies --     27.3144                67.1578                96.1081
 Red. masses --      7.1287                 3.9629                 5.6865
 Frc consts  --      0.0031                 0.0105                 0.0309
 IR Inten    --      2.8977                 0.0000                 0.0001

                      4                      5                      6
                      A                      A                      A
 Frequencies --     99.2770               114.2131               115.7557
 Red. masses --      5.8719                 8.7568                 5.8193
 Frc consts  --      0.0341                 0.0673                 0.0459
 IR Inten    --      0.0000                 3.7352                 5.2391

                      7                      8                      9
                      A                      A                      A
 Frequencies --    203.1775               227.2205               238.9704
 Red. masses --      6.6416                 7.1986                 4.1765
 Frc consts  --      0.1615                 0.2190                 0.1405
 IR Inten    --      0.0009                 4.5976                 0.0001

                     10                     11                     12
                      A                      A                      A
 Frequencies --    244.2329               253.0150               298.9084
 Red. masses --      4.6515                 7.1657                 5.9094
 Frc consts  --      0.1635                 0.2703                 0.3111
 IR Inten    --      0.0000                 0.0027                 0.0000

                     13                     14                     15
                      A                      A                      A
 Frequencies --    337.9577               346.9678               347.5711
 Red. masses --      7.5969                12.0719                 5.0547
 Frc consts  --      0.5112                 0.8563                 0.3598
 IR Inten    --      0.0008                 2.2732                 0.1830

                     16                     17                     18
                      A                      A                      A
 Frequencies --    403.9813               451.6698               459.8454
 Red. masses --      3.4185                 3.5216                 6.8771
 Frc consts  --      0.3287                 0.4233                 0.8568
 IR Inten    --      0.0062                 0.0000                 0.0005

                     19                     20                     21
                      A                      A                      A
 Frequencies --    476.5889               477.1595               478.4588
 Red. masses --     13.4833                 2.5890                 2.6165
 Frc consts  --      1.8044                 0.3473                 0.3529
 IR Inten    --      0.0043                 0.0416                36.3406

                     22                     23                     24
                      A                      A                      A
 Frequencies --    494.7606               531.6102               539.4523
 Red. masses --      5.9766                 4.1246                 7.8480
 Frc consts  --      0.8620                 0.6868                 1.3456
 IR Inten    --      0.0023                 0.0000                13.6631

                     25                     26                     27
                      A                      A                      A
 Frequencies --    576.6606               588.7041               592.5192
 Red. masses --      6.9276                 4.1659                 6.8015
 Frc consts  --      1.3573                 0.8507                 1.4069
 IR Inten    --     43.2464                 0.0000                 0.0020

                     28                     29                     30
                      A                      A                      A
 Frequencies --    619.7479               641.9607               679.3737
 Red. masses --      6.6481                 6.8195                 5.6739
 Frc consts  --      1.5045                 1.6558                 1.5429
 IR Inten    --      0.0005                 7.5569                 0.0000

                     31                     32                     33
                      A                      A                      A
 Frequencies --    698.5161               714.6738               715.8766
 Red. masses --      6.8267                 6.4693                 2.4993
 Frc consts  --      1.9625                 1.9468                 0.7546
 IR Inten    --      0.0002                22.5398                 4.8008

                     34                     35                     36
                      A                      A                      A
 Frequencies --    743.7604               753.0693               754.8287
 Red. masses --      1.2673                 4.1348                 1.7932
 Frc consts  --      0.4130                 1.3816                 0.6020
 IR Inten    --      0.0000                 0.0607               121.9535

                     37                     38                     39
                      A                      A                      A
 Frequencies --    765.5602               770.4210               779.7304
 Red. masses --      3.3169                 5.1216                 8.0229
 Frc consts  --      1.1454                 1.7911                 2.8739
 IR Inten    --      0.0001                31.0835                 0.0016

                     40                     41                     42
                      A                      A                      A
 Frequencies --    788.5387               821.6343               838.6429
 Red. masses --      4.1570                 3.4520                 1.4478
 Frc consts  --      1.5229                 1.3730                 0.5999
 IR Inten    --      0.0052                 0.0006                 0.0000

                     43                     44                     45
                      A                      A                      A
 Frequencies --    838.9114               913.5857               925.8036
 Red. masses --      1.5133                 5.8288                 1.3578
 Frc consts  --      0.6275                 2.8663                 0.6857
 IR Inten    --      0.0001                 0.0032                 0.0006

                     46                     47                     48
                      A                      A                      A
 Frequencies --    929.8935               933.3849               939.3226
 Red. masses --      1.4249                 1.4082                 1.5939
 Frc consts  --      0.7259                 0.7229                 0.8286
 IR Inten    --      0.0005                27.5722                 0.0059

                     49                     50                     51
                      A                      A                      A
 Frequencies --    945.3636               963.8709               964.1156
 Red. masses --      4.9163                 1.4145                 1.2739
 Frc consts  --      2.5887                 0.7743                 0.6977
 IR Inten    --      0.0082                 0.0022                 0.0000

                     52                     53                     54
                      A                      A                      A
 Frequencies --    964.5331               966.6603               989.2309
 Red. masses --      1.2676                 1.4574                 3.3206
 Frc consts  --      0.6948                 0.8024                 1.9145
 IR Inten    --      0.0024                31.0403                 1.0300

                     55                     56                     57
                      A                      A                      A
 Frequencies --   1020.1030              1021.7187              1023.3644
 Red. masses --      2.2642                 2.3564                 4.9315
 Frc consts  --      1.3882                 1.4493                 3.0429
 IR Inten    --     94.3747                 4.4094               610.2541

                     58                     59                     60
                      A                      A                      A
 Frequencies --   1139.4257              1147.8102              1149.9047
 Red. masses --      1.9816                 1.6514                 1.6164
 Frc consts  --      1.5158                 1.2818                 1.2593
 IR Inten    --     54.2130                 0.0090                 1.2738

                     61                     62                     63
                      A                      A                      A
 Frequencies --   1153.4884              1171.1933              1178.7805
 Red. masses --      1.4590                 1.1120                 1.2530
 Frc consts  --      1.1437                 0.8987                 1.0258
 IR Inten    --    148.8518                 0.0182                 0.3140

                     64                     65                     66
                      A                      A                      A
 Frequencies --   1206.3931              1223.4719              1238.6375
 Red. masses --      2.0437                 4.0197                 2.0285
 Frc consts  --      1.7524                 3.5451                 1.8337
 IR Inten    --      0.0391               910.1789                 0.0100

                     67                     68                     69
                      A                      A                      A
 Frequencies --   1256.5214              1276.5363              1279.8488
 Red. masses --      3.9945                 1.7718                 2.4778
 Frc consts  --      3.7158                 1.7011                 2.3913
 IR Inten    --      0.0235               190.8662                81.8248

                     70                     71                     72
                      A                      A                      A
 Frequencies --   1279.9687              1280.1352              1366.5160
 Red. masses --      3.4541                 1.9587                 5.4586
 Frc consts  --      3.3341                 1.8912                 6.0057
 IR Inten    --    187.0990               663.8592                 5.0108

                     73                     74                     75
                      A                      A                      A
 Frequencies --   1378.4259              1386.1359              1388.0038
 Red. masses --      2.2246                 5.3654                 2.6625
 Frc consts  --      2.4904                 6.0738                 3.0222
 IR Inten    --      0.0786                35.9488               590.3945

                     76                     77                     78
                      A                      A                      A
 Frequencies --   1404.9283              1406.1630              1449.7573
 Red. masses --      4.2559                 5.1761                 2.9293
 Frc consts  --      4.9494                 6.0300                 3.6274
 IR Inten    --      9.7773                 0.1418               350.6898

                     79                     80                     81
                      A                      A                      A
 Frequencies --   1472.4127              1473.2696              1478.3644
 Red. masses --      3.2023                 2.9532                 3.7225
 Frc consts  --      4.0905                 3.7767                 4.7934
 IR Inten    --     71.4482                26.3419                 0.0156

                     82                     83                     84
                      A                      A                      A
 Frequencies --   1511.9473              1514.8800              1558.4461
 Red. masses --      3.1534                 3.7221                 6.4732
 Frc consts  --      4.2472                 5.0326                 9.2630
 IR Inten    --     56.5557                 0.0922                 0.0075

                     85                     86                     87
                      A                      A                      A
 Frequencies --   1572.6671              1592.3640              1609.8388
 Red. masses --      6.4837                 5.9164                10.5519
 Frc consts  --      9.4482                 8.8388                16.1118
 IR Inten    --     80.6324                 0.4554                 0.1224

                     88                     89                     90
                      A                      A                      A
 Frequencies --   1629.0285              1634.6809              1635.3133
 Red. masses --      5.9745                 7.0813                 5.4174
 Frc consts  --      9.3413                11.1488                 8.5358
 IR Inten    --     46.8402                28.5291                 0.0586

                     91                     92                     93
                      A                      A                      A
 Frequencies --   3139.2680              3139.5498              3147.2344
 Red. masses --      1.0834                 1.0836                 1.0869
 Frc consts  --      6.2905                 6.2927                 6.3430
 IR Inten    --      1.3081                 0.0316                 0.1946

                     94                     95                     96
                      A                      A                      A
 Frequencies --   3147.3806              3159.5159              3159.6297
 Red. masses --      1.0869                 1.0936                 1.0936
 Frc consts  --      6.3436                 6.4320                 6.4326
 IR Inten    --      0.0963                41.0843                57.6419

                     97                     98                     99
                      A                      A                      A
 Frequencies --   3170.9910              3171.2381              3171.3765
 Red. masses --      1.0898                 1.0947                 1.0942
 Frc consts  --      6.4561                 6.4864                 6.4840
 IR Inten    --      5.9584                63.4256                 7.0562

                    100                    101                    102
                      A                      A                      A
 Frequencies --   3171.5031              3173.1461              3173.9490
 Red. masses --      1.0908                 1.0909                 1.0908
 Frc consts  --      6.4642                 6.4719                 6.4742
 IR Inten    --      7.9725                98.8018                 2.5908

 - Thermochemistry -
 -------------------
 Temperature   298.150 Kelvin.  Pressure   1.00000 Atm.
 Atom     1 has atomic number  8 and mass  15.99491

 Molecular mass:   308.08373 amu.
 Principal axes and moments of inertia in atomic units:
                           1         2         3
     Eigenvalues --  2195.65998********************
           X            0.99908   0.01815   0.03880
           Y           -0.04233   0.55740   0.82917
           Z            0.00658   0.83005  -0.55765
 This molecule is an asymmetric top.
 Rotational symmetry number  1.
 Warning -- assumption of classical behavior for rotation
           may cause significant error
 Rotational temperatures (Kelvin)      0.03945     0.00561     0.00491
 Rotational constants (GHZ):           0.82196     0.11693     0.10236
 Zero-point vibrational energy     705111.8 (Joules/Mol)
                                  168.52578 (Kcal/Mol)
 Warning -- explicit consideration of  28 degrees of freedom as
           vibrations may cause significant error
 Vibrational temperatures:     39.30    96.63   138.28   142.84   164.33
          (Kelvin)            166.55   292.33   326.92   343.83   351.40
                              364.03   430.06   486.25   499.21   500.08
                              581.24   649.85   661.61   685.71   686.53
                              688.40   711.85   764.87   776.15   829.69
                              847.01   852.50   891.68   923.64   977.47
                             1005.01  1028.26  1029.99  1070.11  1083.50
                             1086.03  1101.47  1108.46  1121.86  1134.53
                             1182.15  1206.62  1207.01  1314.45  1332.02
                             1337.91  1342.93  1351.48  1360.17  1386.80
                             1387.15  1387.75  1390.81  1423.28  1467.70
                             1470.03  1472.39  1639.38  1651.44  1654.46
                             1659.61  1685.09  1696.00  1735.73  1760.30
                             1782.12  1807.85  1836.65  1841.42  1841.59
                             1841.83  1966.11  1983.25  1994.34  1997.03
                             2021.38  2023.15  2085.88  2118.47  2119.71
                             2127.04  2175.35  2179.57  2242.26  2262.72
                             2291.06  2316.20  2343.81  2351.94  2352.85
                             4516.71  4517.11  4528.17  4528.38  4545.84
                             4546.00  4562.35  4562.70  4562.90  4563.09
                             4565.45  4566.60

 Zero-point correction=                           0.268563 (Hartree/Particle)
 Thermal correction to Energy=                    0.285219
 Thermal correction to Enthalpy=                  0.286163
 Thermal correction to Gibbs Free Energy=         0.223650
 Sum of electronic and zero-point Energies=           -996.102699
 Sum of electronic and thermal Energies=              -996.086043
 Sum of electronic and thermal Enthalpies=            -996.085099
 Sum of electronic and thermal Free Energies=         -996.147612

                     E (Thermal)             CV                S
                      KCal/Mol        Cal/Mol-Kelvin    Cal/Mol-Kelvin
 Total                  178.978             70.089            131.571
 Electronic               0.000              0.000              1.377
 Translational            0.889              2.981             43.072
 Rotational               0.889              2.981             34.745
 Vibrational            177.200             64.128             52.376
 Vibration     1          0.593              1.984              6.015
 Vibration     2          0.598              1.970              4.235
 Vibration     3          0.603              1.952              3.532
 Vibration     4          0.604              1.950              3.468
 Vibration     5          0.607              1.938              3.196
 Vibration     6          0.608              1.936              3.170
 Vibration     7          0.639              1.835              2.104
 Vibration     8          0.651              1.800              1.901
 Vibration     9          0.657              1.781              1.811
 Vibration    10          0.660              1.772              1.772
 Vibration    11          0.664              1.758              1.709
 Vibration    12          0.692              1.676              1.423
 Vibration    13          0.718              1.600              1.222
 Vibration    14          0.725              1.581              1.180
 Vibration    15          0.725              1.580              1.177
 Vibration    16          0.769              1.462              0.948
 Vibration    17          0.810              1.357              0.791
 Vibration    18          0.818              1.339              0.767
 Vibration    19          0.833              1.302              0.719
 Vibration    20          0.834              1.301              0.718
 Vibration    21          0.835              1.298              0.714
 Vibration    22          0.850              1.262              0.671
 Vibration    23          0.887              1.180              0.584
 Vibration    24          0.895              1.163              0.566
 Vibration    25          0.933              1.082              0.492
 Vibration    26          0.946              1.056              0.469
 Vibration    27          0.950              1.048              0.463
 Vibration    28          0.980              0.990              0.417

 Optimization completed.
    -- Stationary point found.
 Normal termination of Gaussian 16 at Thu Dec 21 10:38:18 2023.
