 Q-Chem 5.4, Q-Chem, Inc., Pleasanton, CA (2021)
 Q-Chem 5.4.0 for Intel X86 EM64T Linux

User input:
--------------------------------------------------------------
$molecule
0 1
O                  2.4073240000      2.9037480000     -1.1305460000
N                  2.6526400000      2.3270390000     -0.0858820000
O                  3.1727050000      2.8130490000      0.9042640000
C                  2.3928340000      0.8625900000     -0.0543920000
C                  3.5170620000      0.0551470000     -0.1369560000
C                  3.3590120000     -1.3285760000     -0.1876780000
C                  2.0868070000     -1.8840000000     -0.1545130000
C                  0.9613720000     -1.0623420000     -0.0555670000
C                 -0.3906650000     -1.7094070000     -0.0413350000
O                 -0.4985800000     -2.9221000000     -0.0982230000
C                 -1.5811470000     -0.8204410000      0.0241900000
C                 -2.8590610000     -1.3864570000     -0.0238420000
C                 -3.9836680000     -0.5727890000      0.0394590000
C                 -3.8418230000      0.8128880000      0.1583240000
C                 -2.5759370000      1.3834280000      0.2156020000
C                 -1.4389140000      0.5727620000      0.1441220000
C                 -0.0964990000      1.2131120000      0.2206660000
O                  0.0318090000      2.3964920000      0.4714800000
C                  1.0980290000      0.3372050000      0.0087410000
H                  4.5006460000      0.5073860000     -0.1695470000
H                  4.2325960000     -1.9655430000     -0.2572220000
H                  1.9372770000     -2.9551970000     -0.2013260000
H                 -2.9459560000     -2.4623750000     -0.1101100000
H                 -4.9727410000     -1.0142810000     -0.0020230000
H                 -4.7209530000      1.4449840000      0.2080010000
H                 -2.4441690000      2.4536760000      0.3143150000
$end
$rem
MAX_SCF_CYCLES=200
BASIS  =  6-311++G(d,p)
GUI  =  2
JOB_TYPE  =  SP
METHOD  =  B3LYP
SOLVENT_METHOD = COSMO
$end
$solvent
dielectric 37.219
opticaldielectric 1.43
$end

--------------------------------------------------------------

             Standard Nuclear Orientation (Angstroms)
    I     Atom           X                Y                Z
 ----------------------------------------------------------------
    1      O      -2.8293530876     1.8688119339     1.1882481786
    2      N      -2.8775543057     1.3071175425     0.1083073762
    3      O      -3.4927459382     1.6819759989    -0.8756046211
    4      C      -2.2110404569    -0.0195988686     0.0151166837
    5      C      -3.0604600092    -1.1155708030     0.0163623290
    6      C      -2.5162361521    -2.3985134065     0.0053835288
    7      C      -1.1381541111    -2.5682918462    -0.0075187480
    8      C      -0.2912670213    -1.4574299469    -0.0243774832
    9      C       1.1889968833    -1.6934348112    -0.0198841566
   10      O       1.6363565668    -2.8271776330    -0.0182314205
   11      C       2.0783380949    -0.5016374887     0.0023153612
   12      C       3.4631377424    -0.6845947884     0.0701529591
   13      C       4.3107290751     0.4163400975     0.0884517289
   14      C       3.7829640622     1.7096458310     0.0321133651
   15      C       2.4086056280     1.9008687062    -0.0442851443
   16      C       1.5480823095     0.7988249380    -0.0547353965
   17      C       0.0809286800     1.0363273071    -0.1498037443
   18      O      -0.3734077125     2.1473493535    -0.3472050737
   19      C      -0.8191961902    -0.1525038100    -0.0253922736
   20      H      -4.1325484572    -0.9628579136     0.0343874365
   21      H      -3.1736811089    -3.2595847666     0.0112634627
   22      H      -0.6909662798    -3.5542110783    -0.0074749386
   23      H       3.8507812313    -1.6950233392     0.1070192164
   24      H       5.3834056464     0.2712242574     0.1450883614
   25      H       4.4466779418     2.5664847202     0.0460316443
   26      H       1.9798413308     2.8938814348    -0.0955173795
 ----------------------------------------------------------------

   10    -893.4990856614      4.38e-06  Convergence criterion met
 Total energy in the final basis set =     -893.4990856614
    5    -893.5200219664      5.61e-06  Convergence criterion met
 Total energy in the final basis set =     -893.5200219664

                    Orbital Energies (a.u.)
 --------------------------------------------------------------

 Alpha MOs
 -- Occupied --
-19.1924 -19.1914 -19.1440 -19.1403 -14.5824 -10.2977 -10.2928 -10.2667
-10.2357 -10.2253 -10.2207 -10.2144 -10.2133 -10.2124 -10.2100 -10.2007
-10.2005 -10.2000 -10.1995  -1.2694  -1.0981  -1.0820  -1.0757  -0.9190
 -0.8923  -0.8368  -0.8211  -0.7828  -0.7819  -0.7335  -0.6987  -0.6729
 -0.6587  -0.6175  -0.6011  -0.5864  -0.5726  -0.5597  -0.5517  -0.5427
 -0.5129  -0.4985  -0.4954  -0.4886  -0.4705  -0.4672  -0.4550  -0.4537
 -0.4496  -0.4311  -0.4107  -0.4094  -0.4069  -0.3843  -0.3808  -0.3726
 -0.3501  -0.3447  -0.3410  -0.3023  -0.2998  -0.2910  -0.2866  -0.2839
 -0.2819

          Ground-State Mulliken Net Atomic Charges

     Atom                 Charge (a.u.)
  ----------------------------------------
      1 O                    -0.024310
      2 N                    -0.107782
      3 O                    -0.016411
      4 C                    -0.291165
      5 C                     0.262974
      6 C                    -0.460406
      7 C                    -0.146574
      8 C                     1.073570
      9 C                    -0.308957
     10 O                    -0.274855
     11 C                     0.326953
     12 C                     0.123574
     13 C                    -0.485668
     14 C                    -0.402797
     15 C                     0.145607
     16 C                     0.048879
     17 C                    -1.003350
     18 O                    -0.235965
     19 C                     0.179869
     20 H                     0.268228
     21 H                     0.253640
     22 H                     0.204638
     23 H                     0.204190
     24 H                     0.229242
     25 H                     0.232308
     26 H                     0.204569
  ----------------------------------------
  Sum of atomic charges =     0.000000

                    Cartesian Multipole Moments
 -----------------------------------------------------------------
    Charge (ESU x 10^10)
                 0.0000
    Dipole Moment (Debye)
         X       3.3516      Y      -4.3116      Z       0.3687
       Tot       5.4734
    Quadrupole Moments (Debye-Ang)
        XX     -87.4718     XY      30.9539     YY    -115.5882
        XZ      -0.4956     YZ       0.1771     ZZ    -112.8852

 Total job time:  91.25s(wall), 528.60s(cpu)
        *  Thank you very much for using Q-Chem.  Have a nice day.  *
