 Q-Chem 5.4, Q-Chem, Inc., Pleasanton, CA (2021)
 Q-Chem 5.4.0 for Intel X86 EM64T Linux

User input:
--------------------------------------------------------------
$molecule
-2 1
C                 -1.5834750000      0.7203230000      1.5050270000
C                 -2.7544450000      1.1597250000      0.7598160000
C                 -2.6789140000      1.0889390000     -0.6420000000
C                 -1.5740350000      0.6328650000     -1.4352060000
C                 -0.4021380000      0.1958170000     -0.6900630000
C                 -0.4783540000      0.2648400000      0.7118010000
O                 -1.6279340000      0.6157930000     -2.7269110000
O                 -1.5304480000      0.7350600000      2.7967960000
Cl                 0.8929040000     -0.2439170000      1.7900370000
Cl                -4.0521220000      1.5928060000     -1.7200460000
C                  0.7838480000     -0.2935270000     -1.5808940000
C                  1.2184450000      0.8733500000     -2.5092270000
C                  2.0800580000     -0.7791810000     -0.8943480000
C                  0.2946430000     -1.4915240000     -2.4396230000
C                 -3.9388560000      1.6532420000      1.6504500000
C                 -3.4450120000      2.8489430000      2.5098770000
C                 -5.2324560000      2.1453390000      0.9635720000
C                 -4.3786560000      0.4878690000      2.5780850000
H                  0.3522760000      1.2487830000     -3.0554960000
H                  1.9835140000      0.5276050000     -3.2216860000
H                  1.6555310000      1.6801590000     -1.9089760000
H                  2.5565840000     -0.0020670000     -0.2954260000
H                  2.7789610000     -1.0737580000     -1.6910870000
H                  1.9173050000     -1.6434890000     -0.2492990000
H                  0.0807030000     -2.3488000000     -1.7903380000
H                  1.0773590000     -1.7929760000     -3.1530460000
H                 -0.6071600000     -1.2076900000     -2.9835650000
H                 -2.5444210000      2.5614820000      3.0538810000
H                 -4.2267000000      3.1530090000      3.2233020000
H                 -3.2277740000      3.7057130000      1.8610120000
H                 -5.0647130000      3.0075760000      0.3169650000
H                 -5.9292550000      2.4455040000      1.7600680000
H                 -5.7138980000      1.3701370000      0.3661740000
H                 -3.5142620000      0.1091530000      3.1249290000
H                 -4.8181540000     -0.3172270000      1.9772990000
H                 -5.1430480000      0.8362230000      3.2900160000
$end

$rem
BASIS  =  6-311++G(d,p)
GUI  =  2
JOB_TYPE  =  SP
METHOD  =  B3LYP
SCF_CONVERGENCE  = 8
SOLVENT_METHOD = sm12
$end

$smx
solvent dimethylformamide
charges CM5
$end

--------------------------------------------------------------

             Standard Nuclear Orientation (Angstroms)
    I     Atom           X                Y                Z
 ----------------------------------------------------------------
    1      C      -1.5834750000     0.7203230000     1.5050270000
    2      C      -2.7544450000     1.1597250000     0.7598160000
    3      C      -2.6789140000     1.0889390000    -0.6420000000
    4      C      -1.5740350000     0.6328650000    -1.4352060000
    5      C      -0.4021380000     0.1958170000    -0.6900630000
    6      C      -0.4783540000     0.2648400000     0.7118010000
    7      O      -1.6279340000     0.6157930000    -2.7269110000
    8      O      -1.5304480000     0.7350600000     2.7967960000
    9      Cl      0.8929040000    -0.2439170000     1.7900370000
   10      Cl     -4.0521220000     1.5928060000    -1.7200460000
   11      C       0.7838480000    -0.2935270000    -1.5808940000
   12      C       1.2184450000     0.8733500000    -2.5092270000
   13      C       2.0800580000    -0.7791810000    -0.8943480000
   14      C       0.2946430000    -1.4915240000    -2.4396230000
   15      C      -3.9388560000     1.6532420000     1.6504500000
   16      C      -3.4450120000     2.8489430000     2.5098770000
   17      C      -5.2324560000     2.1453390000     0.9635720000
   18      C      -4.3786560000     0.4878690000     2.5780850000
   19      H       0.3522760000     1.2487830000    -3.0554960000
   20      H       1.9835140000     0.5276050000    -3.2216860000
   21      H       1.6555310000     1.6801590000    -1.9089760000
   22      H       2.5565840000    -0.0020670000    -0.2954260000
   23      H       2.7789610000    -1.0737580000    -1.6910870000
   24      H       1.9173050000    -1.6434890000    -0.2492990000
   25      H       0.0807030000    -2.3488000000    -1.7903380000
   26      H       1.0773590000    -1.7929760000    -3.1530460000
   27      H      -0.6071600000    -1.2076900000    -2.9835650000
   28      H      -2.5444210000     2.5614820000     3.0538810000
   29      H      -4.2267000000     3.1530090000     3.2233020000
   30      H      -3.2277740000     3.7057130000     1.8610120000
   31      H      -5.0647130000     3.0075760000     0.3169650000
   32      H      -5.9292550000     2.4455040000     1.7600680000
   33      H      -5.7138980000     1.3701370000     0.3661740000
   34      H      -3.5142620000     0.1091530000     3.1249290000
   35      H      -4.8181540000    -0.3172270000     1.9772990000
   36      H      -5.1430480000     0.8362230000     3.2900160000
 ----------------------------------------------------------------

   16   -1615.3741039719      8.75e-09  Convergence criterion met
 Total energy in the final basis set =    -1615.6231370826

                    Orbital Energies (a.u.)
 --------------------------------------------------------------

 Alpha MOs
 -- Occupied --
********-101.5112 -19.0071 -19.0071 -10.1878 -10.1878 -10.1839 -10.1839
-10.1789 -10.1789 -10.1571 -10.1570 -10.1516 -10.1516 -10.1516 -10.1516
-10.1512 -10.1512  -9.4250  -9.4250  -7.1891  -7.1891  -7.1806  -7.1806
 -7.1794  -7.1794  -0.9344  -0.9302  -0.8285  -0.8273  -0.8042  -0.7983
 -0.7554  -0.6913  -0.6813  -0.6813  -0.6781  -0.6753  -0.6362  -0.5962
 -0.5404  -0.5226  -0.5110  -0.4702  -0.4574  -0.4499  -0.4342  -0.4337
 -0.4284  -0.4167  -0.4024  -0.3959  -0.3945  -0.3893  -0.3836  -0.3745
 -0.3697  -0.3663  -0.3530  -0.3512  -0.3368  -0.3315  -0.3294  -0.3273
 -0.3272  -0.3242  -0.3193  -0.3179  -0.2850  -0.2828  -0.2662  -0.2633
 -0.2179  -0.2056  -0.1887  -0.1852  -0.1174

          Ground-State Mulliken Net Atomic Charges

     Atom                 Charge (a.u.)
  ----------------------------------------
      1 C                    -2.381103
      2 C                    -1.035352
      3 C                    -0.737891
      4 C                    -2.381080
      5 C                    -1.035871
      6 C                    -0.738295
      7 O                    -0.265253
      8 O                    -0.265235
      9 Cl                    1.065251
     10 Cl                    1.065429
     11 C                     1.700187
     12 C                    -0.449048
     13 C                     0.322278
     14 C                    -0.448886
     15 C                     1.700142
     16 C                    -0.449539
     17 C                     0.322417
     18 C                    -0.447973
     19 H                     0.070470
     20 H                     0.252428
     21 H                     0.045731
     22 H                     0.112262
     23 H                     0.267490
     24 H                     0.112685
     25 H                     0.046327
     26 H                     0.252138
     27 H                     0.070393
     28 H                     0.070178
     29 H                     0.251972
     30 H                     0.046073
     31 H                     0.112519
     32 H                     0.267483
     33 H                     0.112386
     34 H                     0.070605
     35 H                     0.045984
     36 H                     0.252698
  ----------------------------------------
  Sum of atomic charges =    -2.000000

                    Cartesian Multipole Moments
 -----------------------------------------------------------------
    Charge (ESU x 10^10)
                -9.6064
    Dipole Moment (Debye)
         X      15.1661      Y      -6.4980      Z      -0.3352
       Tot      16.5029
    Quadrupole Moments (Debye-Ang)
        XX    -195.1556     XY      22.1909     YY    -149.9339
        XZ       0.7018     YZ      -1.9474     ZZ    -198.3148

 Total job time:  1246.67s(wall), 9575.12s(cpu)
        *  Thank you very much for using Q-Chem.  Have a nice day.  *
