 Gaussian 16, Revision A.03,
 Gaussian 16:  ES64L-G16RevA.03 25-Dec-2016

 ----------------------------------------------------------------
 #P UB3LYP/6-311++G(d,p) SCRF=(PCM,Solvent=n,n-DiMethylFormamide)
 ----------------------------------------------------------------

 ------------------
 Radical PCM in DMF
 ------------------
 Symbolic Z-matrix:
 Charge = -1 Multiplicity = 2

                         Standard orientation:
 ---------------------------------------------------------------------
 Center     Atomic      Atomic             Coordinates (Angstroms)
 Number     Number       Type             X           Y           Z
 ---------------------------------------------------------------------
      1          8           0        0.530736   -2.585474   -0.265777
      2          6           0        0.695436   -1.334978   -0.210807
      3          6           0       -0.402872   -0.405330   -0.344116
      4          6           0       -0.205213    0.967912   -0.272258
      5          8           0       -1.256894    1.845481   -0.386718
      6          6           0        1.090568    1.591302   -0.096801
      7          8           0        1.241377    2.839635   -0.051893
      8          6           0        2.216927    0.658707    0.027657
      9          6           0        3.519670    1.168483    0.208112
     10          6           0        4.605803    0.322304    0.337501
     11          6           0        4.420927   -1.074111    0.289793
     12          6           0        3.150188   -1.593268    0.113290
     13          6           0        2.031323   -0.748842   -0.019353
     14          6           0       -1.775621   -0.997383   -0.611385
     15          1           0        3.633290    2.246089    0.241449
     16          1           0        5.601899    0.733205    0.476029
     17          1           0        5.273470   -1.739494    0.390751
     18          1           0        2.975304   -2.662359    0.071227
     19          6           0       -2.802110   -0.685126    0.448573
     20          6           0       -4.058424   -0.231460    0.307485
     21          6           0       -4.726487    0.057980   -1.015144
     22          6           0       -4.934739    0.012817    1.513399
     23          1           0       -2.074490    1.359232   -0.221589
     24          1           0       -1.618945   -2.081701   -0.644525
     25          1           0       -2.132033   -0.695410   -1.603372
     26          1           0       -2.448824   -0.858361    1.464436
     27          1           0       -4.058164   -0.067941   -1.866572
     28          1           0       -5.117558    1.082908   -1.038465
     29          1           0       -5.586885   -0.607320   -1.163882
     30          1           0       -4.410018   -0.212694    2.444166
     31          1           0       -5.841869   -0.604696    1.474463
     32          1           0       -5.269194    1.057362    1.555310
 ---------------------------------------------------------------------

 SCF Done:  E(UB3LYP) =  -806.056865555     A.U. after   19 cycles

 The electronic state is 2-A.
 Alpha  occ. eigenvalues --  -19.14648 -19.07560 -19.07261 -10.22393 -10.22131
 Alpha  occ. eigenvalues --  -10.21958 -10.18270 -10.17180 -10.17165 -10.17081
 Alpha  occ. eigenvalues --  -10.17055 -10.16842 -10.16838 -10.16829 -10.16650
 Alpha  occ. eigenvalues --  -10.16601 -10.16384 -10.16234  -1.05861  -0.99791
 Alpha  occ. eigenvalues --   -0.99645  -0.85638  -0.82320  -0.80139  -0.75893
 Alpha  occ. eigenvalues --   -0.74877  -0.71907  -0.69379  -0.67728  -0.64341
 Alpha  occ. eigenvalues --   -0.61588  -0.59702  -0.55728  -0.54627  -0.52056
 Alpha  occ. eigenvalues --   -0.51260  -0.48166  -0.46455  -0.45984  -0.43783
 Alpha  occ. eigenvalues --   -0.43561  -0.43131  -0.42412  -0.42217  -0.41774
 Alpha  occ. eigenvalues --   -0.41062  -0.39774  -0.38597  -0.38575  -0.38410
 Alpha  occ. eigenvalues --   -0.37288  -0.36925  -0.36700  -0.35831  -0.34518
 Alpha  occ. eigenvalues --   -0.34131  -0.33550  -0.33368  -0.26501  -0.25558
 Alpha  occ. eigenvalues --   -0.25187  -0.24568  -0.23368  -0.22841  -0.14830
 Alpha virt. eigenvalues --   -0.03128  -0.01128  -0.00621   0.00115   0.00691
 Alpha virt. eigenvalues --    0.01382   0.01571   0.01769   0.02834   0.03494
 Alpha virt. eigenvalues --    0.03753   0.03971   0.04505   0.05000   0.05158

  Beta  occ. eigenvalues --  -19.14584 -19.06899 -19.06716 -10.22233 -10.21976
  Beta  occ. eigenvalues --  -10.21748 -10.18269 -10.17144 -10.17140 -10.17025
  Beta  occ. eigenvalues --  -10.16976 -10.16851 -10.16845 -10.16805 -10.16644
  Beta  occ. eigenvalues --  -10.16534 -10.16384 -10.16234  -1.05666  -0.98806
  Beta  occ. eigenvalues --   -0.98528  -0.85423  -0.82260  -0.79794  -0.75713
  Beta  occ. eigenvalues --   -0.74683  -0.71700  -0.69378  -0.67062  -0.64109
  Beta  occ. eigenvalues --   -0.61369  -0.59577  -0.55441  -0.54413  -0.52014
  Beta  occ. eigenvalues --   -0.51072  -0.48037  -0.46174  -0.45869  -0.43612
  Beta  occ. eigenvalues --   -0.43534  -0.42778  -0.42219  -0.41816  -0.41272
  Beta  occ. eigenvalues --   -0.40445  -0.39453  -0.38593  -0.38221  -0.37749
  Beta  occ. eigenvalues --   -0.37192  -0.36726  -0.35950  -0.34833  -0.34353
  Beta  occ. eigenvalues --   -0.33507  -0.33174  -0.32583  -0.25066  -0.24873
  Beta  occ. eigenvalues --   -0.24485  -0.23996  -0.22829  -0.22000
  Beta virt. eigenvalues --   -0.08269  -0.02407  -0.00809   0.00107   0.00156
  Beta virt. eigenvalues --    0.00775   0.01393   0.01582   0.01795   0.02857
  Beta virt. eigenvalues --    0.03518   0.03769   0.03983   0.04542   0.05025

 Mulliken charges and spin densities:
               1          2
     1  O   -0.471098   0.199354
     2  C   -1.000155   0.083449
     3  C    1.368242   0.057434
     4  C   -0.443509   0.124120
     5  O   -0.313991   0.016705
     6  C   -0.496036   0.119367
     7  O   -0.497765   0.246014
     8  C    0.525010   0.001137
     9  C   -0.025980   0.054347
    10  C   -0.428647   0.014426
    11  C   -0.480965   0.047973
    12  C    0.062985   0.009648
    13  C   -0.167936   0.026178
    14  C   -0.002498   0.006806
    15  H    0.160057  -0.003450
    16  H    0.181266  -0.001448
    17  H    0.178904  -0.003537
    18  H    0.166830  -0.001108
    19  C   -0.617841  -0.011033
    20  C    0.636688   0.012754
    21  C   -0.569183   0.000837
    22  C   -0.603430  -0.000537
    23  H    0.356615  -0.000101
    24  H    0.211078  -0.001496
    25  H    0.167539   0.002499
    26  H    0.176995  -0.000746
    27  H    0.155957  -0.000013
    28  H    0.153263   0.000034
    29  H    0.156650  -0.000031
    30  H    0.160030   0.000391
    31  H    0.147293  -0.000186
    32  H    0.153634   0.000214
 Sum of Mulliken charges =  -1.00000   1.00000

 Dipole moment (field-independent basis, Debye):
    X=             -6.3080    Y=             -2.4505    Z=              0.8299  Tot=              6.8179
 Quadrupole moment (field-independent basis, Debye-Ang):
   XX=           -102.5513   YY=           -152.2877   ZZ=           -111.3432
   XY=             -4.7186   XZ=              1.4293   YZ=             -0.1700

 Normal termination of Gaussian 16 at Sun Jan 21 08:43:40 2024.
