 Gaussian 16, Revision A.03,
 Gaussian 16:  ES64L-G16RevA.03 25-Dec-2016

 ----------------------------------------------------------------------
 #P UB3LYP/6-311++G(d,p) nosym opt freq SCRF=(PCM,Solvent=n,n-DiMethylF
 ormamide)
 ----------------------------------------------------------------------

 -------
 Radical
 -------
 Symbolic Z-matrix:
 Charge = -1 Multiplicity = 2

 SCF Done:  E(UB3LYP) =  -765.545738127     A.U. after   20 cycles
 SCF Done:  E(UB3LYP) =  -765.545922633     A.U. after   15 cycles
 SCF Done:  E(UB3LYP) =  -765.545896138     A.U. after   14 cycles
 SCF Done:  E(UB3LYP) =  -765.545934341     A.U. after   14 cycles
 SCF Done:  E(UB3LYP) =  -765.545957907     A.U. after   13 cycles
 SCF Done:  E(UB3LYP) =  -765.545958678     A.U. after   11 cycles
 SCF Done:  E(UB3LYP) =  -765.545958808     A.U. after   12 cycles
 SCF Done:  E(UB3LYP) =  -765.545958979     A.U. after   11 cycles
 SCF Done:  E(UB3LYP) =  -765.545959030     A.U. after   10 cycles
 SCF Done:  E(UB3LYP) =  -765.545959038     A.U. after    9 cycles
 Optimization completed.
    -- Stationary point found.
 Normal termination of Gaussian 16 at Sun Feb 11 15:53:44 2024.

 ----------------------------------------------------------------------
 #P Geom=AllCheck Guess=TCheck SCRF=Check GenChk UB3LYP/6-311++G(d,p) F
 req
 ----------------------------------------------------------------------

 Structure from the checkpoint file:  "340-rad.chk"
 -------
 Radical
 -------
 Charge = -1 Multiplicity = 2

                          Input orientation:
 ---------------------------------------------------------------------
 Center     Atomic      Atomic             Coordinates (Angstroms)
 Number     Number       Type             X           Y           Z
 ---------------------------------------------------------------------
      1          8           0        2.263489    2.773364   -0.230504
      2          6           0        2.361487    1.416127   -0.152853
      3          6           0        3.615022    0.835511    0.011624
      4          6           0        3.738640   -0.554073    0.112410
      5          6           0        2.601056   -1.363883    0.029289
      6          6           0        1.339988   -0.802129   -0.153476
      7          6           0        0.124696   -1.673599   -0.380335
      8          6           0       -1.189161   -1.024021   -0.006537
      9          6           0       -2.304277   -1.794355    0.313484
     10          6           0       -3.547759   -1.193468    0.536023
     11          6           0       -3.679186    0.195542    0.437502
     12          6           0       -2.572756    0.983259    0.136147
     13          8           0       -2.721355    2.336164    0.063028
     14          6           0       -1.292246    0.390502   -0.084436
     15          6           0       -0.124154    1.208916   -0.311750
     16          8           0       -0.247522    2.526742   -0.445674
     17          6           0        1.186484    0.607912   -0.229325
     18          1           0        1.280533    2.955365   -0.337067
     19          1           0        4.485017    1.480838    0.069934
     20          1           0        4.717460   -1.000085    0.249408
     21          1           0        2.699547   -2.443356    0.091029
     22          1           0        0.238709   -2.631358    0.135380
     23          1           0        0.083920   -1.920717   -1.455679
     24          1           0       -2.206417   -2.873966    0.374071
     25          1           0       -4.412083   -1.801252    0.779594
     26          1           0       -4.635058    0.680865    0.603245
     27          1           0       -1.804073    2.685153   -0.154532
 ---------------------------------------------------------------------

 SCF Done:  E(UB3LYP) =  -765.545959038     A.U. after    3 cycles

 Alpha  occ. eigenvalues --  -19.12228 -19.12223 -19.08009 -10.22349 -10.22348
 Alpha  occ. eigenvalues --  -10.21138 -10.17511 -10.17509 -10.17206 -10.16680
 Alpha  occ. eigenvalues --  -10.16677 -10.16514 -10.16513 -10.15796 -10.15796
 Alpha  occ. eigenvalues --  -10.15770 -10.15768  -1.04450  -1.03747  -0.97872
 Alpha  occ. eigenvalues --   -0.86153  -0.83860  -0.78629  -0.75270  -0.73672
 Alpha  occ. eigenvalues --   -0.72721  -0.68610  -0.63657  -0.62368  -0.58138
 Alpha  occ. eigenvalues --   -0.57993  -0.55372  -0.51442  -0.50815  -0.50692
 Alpha  occ. eigenvalues --   -0.46658  -0.46208  -0.45265  -0.43964  -0.42816
 Alpha  occ. eigenvalues --   -0.41122  -0.40644  -0.40600  -0.39879  -0.39856
 Alpha  occ. eigenvalues --   -0.38699  -0.37783  -0.36106  -0.35993  -0.35614
 Alpha  occ. eigenvalues --   -0.33701  -0.32663  -0.32299  -0.32143  -0.25995
 Alpha  occ. eigenvalues --   -0.25134  -0.24402  -0.22041  -0.21828  -0.11783
 Alpha virt. eigenvalues --   -0.01571  -0.00744  -0.00167   0.00611   0.01138
 Alpha virt. eigenvalues --    0.01243   0.01800   0.02449   0.03083   0.04026
 Alpha virt. eigenvalues --    0.04297   0.04369   0.04903   0.06059   0.06482

  Beta  occ. eigenvalues --  -19.12148 -19.12143 -19.07495 -10.22176 -10.22175
  Beta  occ. eigenvalues --  -10.20546 -10.17290 -10.17285 -10.17231 -10.16807
  Beta  occ. eigenvalues --  -10.16804 -10.16288 -10.16287 -10.15870 -10.15870
  Beta  occ. eigenvalues --  -10.15866 -10.15865  -1.04185  -1.03572  -0.96901
  Beta  occ. eigenvalues --   -0.85877  -0.83666  -0.78354  -0.74891  -0.73477
  Beta  occ. eigenvalues --   -0.72575  -0.68429  -0.63082  -0.62081  -0.57876
  Beta  occ. eigenvalues --   -0.57816  -0.55159  -0.51291  -0.50726  -0.50429
  Beta  occ. eigenvalues --   -0.46475  -0.46009  -0.45176  -0.43383  -0.42623
  Beta  occ. eigenvalues --   -0.40745  -0.40434  -0.39963  -0.39599  -0.39366
  Beta  occ. eigenvalues --   -0.38586  -0.37662  -0.35897  -0.35831  -0.33444
  Beta  occ. eigenvalues --   -0.33379  -0.32540  -0.31905  -0.31532  -0.24728
  Beta  occ. eigenvalues --   -0.24364  -0.23850  -0.21599  -0.21486
  Beta virt. eigenvalues --   -0.05316  -0.00624  -0.00456   0.00106   0.00617
  Beta virt. eigenvalues --    0.01159   0.01842   0.01877   0.02450   0.03180
  Beta virt. eigenvalues --    0.04112   0.04293   0.04456   0.06118   0.06253

 Mulliken charges and spin densities:
               1          2
     1  O   -0.405859   0.022182
     2  C   -0.112804   0.135695
     3  C   -0.339588  -0.060140
     4  C   -0.252053   0.178908
     5  C   -0.170987  -0.078248
     6  C   -0.050473   0.105387
     7  C   -0.915979   0.111628
     8  C   -0.049921   0.105352
     9  C   -0.171699  -0.078175
    10  C   -0.252298   0.178841
    11  C   -0.339272  -0.060112
    12  C   -0.113816   0.135722
    13  O   -0.405481   0.022157
    14  C    0.851466  -0.154217
    15  C   -0.636528   0.399640
    16  O   -0.595598   0.169766
    17  C    0.850221  -0.154065
    18  H    0.387854  -0.002457
    19  H    0.174803   0.003132
    20  H    0.178568  -0.012952
    21  H    0.163639   0.004727
    22  H    0.093072   0.006302
    23  H    0.208186   0.028463
    24  H    0.163613   0.004725
    25  H    0.178572  -0.012946
    26  H    0.174810   0.003131
    27  H    0.387551  -0.002447
 Sum of Mulliken charges =  -1.00000   1.00000

 Dipole moment (field-independent basis, Debye):
    X=              0.8369    Y=             -9.2343    Z=              0.5006  Tot=              9.2857
 Quadrupole moment (field-independent basis, Debye-Ang):
   XX=           -125.6658   YY=           -122.8019   ZZ=           -107.9611
   XY=             -0.1323   XZ=              0.8483   YZ=              2.2283

  Exact polarizability: 481.779  15.169 303.944 -18.504 -11.829 148.613
 Approx polarizability: 478.212   9.320 362.912 -16.673 -16.463 169.073

                      1                      2                      3
                      A                      A                      A
 Frequencies --     54.2218                76.7700               125.5959
 Red. masses --      4.7723                 7.0152                 7.7864
 Frc consts  --      0.0083                 0.0244                 0.0724
 IR Inten    --      0.5151                 0.3593                 0.3098

                      4                      5                      6
                      A                      A                      A
 Frequencies --    207.6899               213.7283               239.4664
 Red. masses --      3.7446                 4.3349                 5.1084
 Frc consts  --      0.0952                 0.1167                 0.1726
 IR Inten    --      2.7389                 0.0631                 1.4670

                      7                      8                      9
                      A                      A                      A
 Frequencies --    247.6971               272.9137               332.4553
 Red. masses --      3.3020                 5.9832                 6.3007
 Frc consts  --      0.1194                 0.2626                 0.4103
 IR Inten    --      5.2922                 0.0318                19.0242

                     10                     11                     12
                      A                      A                      A
 Frequencies --    348.1366               418.4911               438.0250
 Red. masses --      6.4100                 4.3274                11.2575
 Frc consts  --      0.4577                 0.4465                 1.2726
 IR Inten    --      4.3943                 2.2960                80.2095

                     13                     14                     15
                      A                      A                      A
 Frequencies --    480.5988               491.1986               510.1048
 Red. masses --      5.2934                 7.3944                 5.8009
 Frc consts  --      0.7204                 1.0512                 0.8893
 IR Inten    --      7.6531                 2.7615                 4.7382

                     16                     17                     18
                      A                      A                      A
 Frequencies --    510.8706               547.5148               553.0666
 Red. masses --      4.0801                 3.6681                 7.3056
 Frc consts  --      0.6274                 0.6479                 1.3166
 IR Inten    --      0.4451                 5.9709                 2.7549

                     19                     20                     21
                      A                      A                      A
 Frequencies --    576.9802               598.2194               599.3346
 Red. masses --      4.3382                 4.6651                 4.7425
 Frc consts  --      0.8509                 0.9836                 1.0037
 IR Inten    --      0.0033                 9.4506                 1.1977

                     22                     23                     24
                      A                      A                      A
 Frequencies --    613.1726               656.2491               722.4808
 Red. masses --      7.9294                 5.2762                 2.2422
 Frc consts  --      1.7565                 1.3388                 0.6896
 IR Inten    --     44.8061                14.5651                14.3179

                     25                     26                     27
                      A                      A                      A
 Frequencies --    739.4145               762.3158               764.9273
 Red. masses --      1.8841                 2.3519                 3.4438
 Frc consts  --      0.6069                 0.8053                 1.1872
 IR Inten    --    136.1099                93.9543               116.3192

                     28                     29                     30
                      A                      A                      A
 Frequencies --    770.7417               802.3545               872.7232
 Red. masses --      2.6272                 5.7601                 1.4529
 Frc consts  --      0.9195                 2.1848                 0.6520
 IR Inten    --     82.4979                 3.4126                22.5550

                     31                     32                     33
                      A                      A                      A
 Frequencies --    879.9983               909.5414               915.6488
 Red. masses --      1.3821                 1.0578                 1.0766
 Frc consts  --      0.6306                 0.5156                 0.5318
 IR Inten    --      1.5523                24.7660               224.8563

                     34                     35                     36
                      A                      A                      A
 Frequencies --    919.9012               931.3247               936.7999
 Red. masses --      5.2896                 1.3827                 1.2742
 Frc consts  --      2.6373                 0.7066                 0.6589
 IR Inten    --      2.0637                 9.0414                 0.0549

                     37                     38                     39
                      A                      A                      A
 Frequencies --    954.8958              1011.9809              1029.2088
 Red. masses --      1.9267                 4.4133                 4.2540
 Frc consts  --      1.0351                 2.6629                 2.6550
 IR Inten    --     24.8975                 0.8851                53.5028

                     40                     41                     42
                      A                      A                      A
 Frequencies --   1069.4410              1070.7097              1148.1397
 Red. masses --      1.9006                 2.7388                 2.9610
 Frc consts  --      1.2807                 1.8500                 2.2997
 IR Inten    --    164.9598               171.8439                52.6108

                     43                     44                     45
                      A                      A                      A
 Frequencies --   1165.9390              1167.7471              1197.9309
 Red. masses --      1.2589                 1.2199                 1.2612
 Frc consts  --      1.0083                 0.9801                 1.0664
 IR Inten    --      2.8236                17.7687                10.0360

                     46                     47                     48
                      A                      A                      A
 Frequencies --   1235.4838              1242.8200              1270.7649
 Red. masses --      2.0966                 1.2858                 4.8122
 Frc consts  --      1.8855                 1.1701                 4.5785
 IR Inten    --      0.6697                 0.5018               364.8800

                     49                     50                     51
                      A                      A                      A
 Frequencies --   1271.0035              1281.7633              1292.1219
 Red. masses --      3.5476                 4.6082                 2.3579
 Frc consts  --      3.3766                 4.4606                 2.3194
 IR Inten    --    158.4926               122.5232               543.1957

                     52                     53                     54
                      A                      A                      A
 Frequencies --   1326.5553              1337.9466              1361.9141
 Red. masses --      6.0213                 7.0270                 4.8661
 Frc consts  --      6.2430                 7.4114                 5.3177
 IR Inten    --     53.5260                98.8251               453.0395

                     55                     56                     57
                      A                      A                      A
 Frequencies --   1419.1754              1427.9542              1456.8319
 Red. masses --      1.9329                 2.5863                 1.1162
 Frc consts  --      2.2937                 3.1071                 1.3958
 IR Inten    --    296.2117                17.8916                 8.2318

                     58                     59                     60
                      A                      A                      A
 Frequencies --   1478.7500              1483.4331              1524.3201
 Red. masses --      2.4451                 2.3817                 2.3131
 Frc consts  --      3.1502                 3.0880                 3.1667
 IR Inten    --     22.4739               551.7252                36.1192

                     61                     62                     63
                      A                      A                      A
 Frequencies --   1563.3531              1569.8643              1593.1933
 Red. masses --      2.6029                 4.4936                 4.6886
 Frc consts  --      3.7482                 6.5248                 7.0117
 IR Inten    --      6.2364               269.3838               443.7721

                     64                     65                     66
                      A                      A                      A
 Frequencies --   1613.2745              1656.2086              2913.9622
 Red. masses --      2.8462                 2.5069                 1.0748
 Frc consts  --      4.3645                 4.0515                 5.3772
 IR Inten    --      0.7916                 2.3647               100.4567

                     67                     68                     69
                      A                      A                      A
 Frequencies --   2935.7335              3015.8465              3051.1023
 Red. masses --      1.0719                 1.0733                 1.0849
 Frc consts  --      5.4428                 5.7518                 5.9503
 IR Inten    --   1893.1334                71.9719                41.6404

                     70                     71                     72
                      A                      A                      A
 Frequencies --   3149.6769              3150.1625              3163.7268
 Red. masses --      1.0868                 1.0871                 1.0890
 Frc consts  --      6.3526                 6.3560                 6.4221
 IR Inten    --      5.8726                27.4102                28.1742

                     73                     74                     75
                      A                      A                      A
 Frequencies --   3163.9977              3179.9153              3180.1806
 Red. masses --      1.0890                 1.0958                 1.0958
 Frc consts  --      6.4231                 6.5288                 6.5293
 IR Inten    --     51.2892                63.7502                12.4321

 - Thermochemistry -
 -------------------
 Temperature   298.150 Kelvin.  Pressure   1.00000 Atm.
 Atom     1 has atomic number  8 and mass  15.99491

 Molecular mass:   226.06299 amu.
 Principal axes and moments of inertia in atomic units:
                           1         2         3
     Eigenvalues --  1935.667244749.871756595.63208
           X            0.99449  -0.09079   0.05239
           Y            0.08729   0.99401   0.06571
           Z           -0.05804  -0.06078   0.99646
 This molecule is an asymmetric top.
 Rotational symmetry number  1.
 Warning -- assumption of classical behavior for rotation
           may cause significant error
 Rotational temperatures (Kelvin)      0.04475     0.01824     0.01313
 Rotational constants (GHZ):           0.93236     0.37996     0.27363
 Zero-point vibrational energy     533341.3 (Joules/Mol)
                                  127.47163 (Kcal/Mol)
 Warning -- explicit consideration of  22 degrees of freedom as
           vibrations may cause significant error
 Vibrational temperatures:     78.01   110.45   180.70   298.82   307.51
          (Kelvin)            344.54   356.38   392.66   478.33   500.89
                              602.12   630.22   691.47   706.73   733.93
                              735.03   787.75   795.74   830.15   860.70
                              862.31   882.22   944.20  1039.49  1063.85
                             1096.80  1100.56  1108.93  1154.41  1255.65
                             1266.12  1308.63  1317.41  1323.53  1339.97
                             1347.85  1373.88  1456.01  1480.80  1538.69
                             1540.51  1651.92  1677.53  1680.13  1723.56
                             1777.59  1788.14  1828.35  1828.69  1844.17
                             1859.08  1908.62  1925.01  1959.49  2041.88
                             2054.51  2096.06  2127.59  2134.33  2193.16
                             2249.32  2258.68  2292.25  2321.14  2382.91
                             4192.54  4223.87  4339.13  4389.86  4531.68
                             4532.38  4551.90  4552.29  4575.19  4575.57

 Zero-point correction=                           0.203139 (Hartree/Particle)
 Thermal correction to Energy=                    0.215482
 Thermal correction to Enthalpy=                  0.216426
 Thermal correction to Gibbs Free Energy=         0.164008
 Sum of electronic and zero-point Energies=           -765.342820
 Sum of electronic and thermal Energies=              -765.330477
 Sum of electronic and thermal Enthalpies=            -765.329533
 Sum of electronic and thermal Free Energies=         -765.381951

                     E (Thermal)             CV                S
                      KCal/Mol        Cal/Mol-Kelvin    Cal/Mol-Kelvin
 Total                  135.217             51.666            110.323
 Electronic               0.000              0.000              1.377
 Translational            0.889              2.981             42.149
 Rotational               0.889              2.981             32.472
 Vibrational            133.439             45.705             34.324
 Vibration     1          0.596              1.976              4.657
 Vibration     2          0.599              1.965              3.972
 Vibration     3          0.611              1.927              3.012
 Vibration     4          0.641              1.829              2.064
 Vibration     5          0.644              1.820              2.012
 Vibration     6          0.657              1.780              1.807
 Vibration     7          0.661              1.767              1.747
 Vibration     8          0.676              1.723              1.578
 Vibration     9          0.714              1.611              1.248
 Vibration    10          0.726              1.579              1.175
 Vibration    11          0.781              1.430              0.897
 Vibration    12          0.798              1.387              0.833
 Vibration    13          0.837              1.293              0.708
 Vibration    14          0.847              1.270              0.680
 Vibration    15          0.865              1.228              0.633
 Vibration    16          0.866              1.226              0.631
 Vibration    17          0.903              1.145              0.549
 Vibration    18          0.908              1.133              0.538
 Vibration    19          0.933              1.081              0.491
 Vibration    20          0.956              1.036              0.453
 Vibration    21          0.957              1.033              0.451
 Vibration    22          0.972              1.004              0.428

 Optimization completed.
    -- Stationary point found.
 Normal termination of Gaussian 16 at Sun Feb 11 16:26:58 2024.
