 Gaussian 16, Revision A.03,
 Gaussian 16:  ES64L-G16RevA.03 25-Dec-2016

 ----------------------------------------------------------------------
 #P UB3LYP/6-311++G(d,p) nosym opt freq SCRF=(PCM,Solvent=n,n-DiMethylF
 ormamide)
 ----------------------------------------------------------------------

 -------
 Radical
 -------
 Symbolic Z-matrix:
 Charge = -1 Multiplicity = 2

 SCF Done:  E(UB3LYP) =  -692.702382135     A.U. after   19 cycles
 SCF Done:  E(UB3LYP) =  -692.702584380     A.U. after   16 cycles
 SCF Done:  E(UB3LYP) =  -692.702604836     A.U. after   14 cycles
 SCF Done:  E(UB3LYP) =  -692.702580139     A.U. after   15 cycles
 SCF Done:  E(UB3LYP) =  -692.702707715     A.U. after   15 cycles
 SCF Done:  E(UB3LYP) =  -692.702708726     A.U. after   11 cycles
 Optimization completed.
    -- Stationary point found.
 Normal termination of Gaussian 16 at Sun Feb 11 01:14:49 2024.

 ----------------------------------------------------------------------
 #P Geom=AllCheck Guess=TCheck SCRF=Check GenChk UB3LYP/6-311++G(d,p) F
 req
 ----------------------------------------------------------------------

 Structure from the checkpoint file:  "239-rad.chk"
 -------
 Radical
 -------
 Charge = -1 Multiplicity = 2

                          Input orientation:
 ---------------------------------------------------------------------
 Center     Atomic      Atomic             Coordinates (Angstroms)
 Number     Number       Type             X           Y           Z
 ---------------------------------------------------------------------
      1          6           0       -2.887168    1.310226   -0.747829
      2          6           0       -2.177777    0.078300   -0.151962
      3          6           0       -2.734862   -0.130109    1.277499
      4          6           0       -2.543976   -1.138754   -1.036271
      5          6           0       -0.646359    0.248239   -0.098188
      6          6           0       -0.038372    1.408970   -0.548403
      7          6           0        1.370608    1.668148   -0.541587
      8          8           0        1.854093    2.761539   -0.972151
      9          6           0        2.225091    0.602886   -0.010279
     10          6           0        3.625393    0.758993    0.039131
     11          6           0        4.436461   -0.243112    0.540930
     12          6           0        3.860238   -1.438781    1.010800
     13          6           0        2.487488   -1.608784    0.968966
     14          6           0        1.640783   -0.600699    0.461195
     15          6           0        0.181414   -0.823435    0.434162
     16          8           0       -0.290548   -1.916295    0.866503
     17          1           0       -2.574359    1.507582   -1.777071
     18          1           0       -3.966015    1.130302   -0.759461
     19          1           0       -2.709593    2.213289   -0.157066
     20          1           0       -2.296743   -1.011968    1.742883
     21          1           0       -3.822486   -0.254830    1.241102
     22          1           0       -2.518646    0.740317    1.905224
     23          1           0       -3.632164   -1.256416   -1.078580
     24          1           0       -2.108115   -2.055082   -0.640652
     25          1           0       -2.183236   -0.993300   -2.059576
     26          1           0       -0.639564    2.216839   -0.947538
     27          1           0        4.050098    1.686341   -0.326860
     28          1           0        5.512526   -0.109996    0.573503
     29          1           0        4.493533   -2.226307    1.405345
     30          1           0        2.032260   -2.524104    1.327136
 ---------------------------------------------------------------------

 SCF Done:  E(UB3LYP) =  -692.702708726     A.U. after    2 cycles

 Alpha  occ. eigenvalues --  -19.07179 -19.07022 -10.21834 -10.21640 -10.18141
 Alpha  occ. eigenvalues --  -10.17156 -10.17107 -10.17080 -10.16975 -10.16920
 Alpha  occ. eigenvalues --  -10.16881 -10.16784 -10.15424 -10.15000 -10.14517
 Alpha  occ. eigenvalues --  -10.14510  -0.99427  -0.99026  -0.85563  -0.82445
 Alpha  occ. eigenvalues --   -0.78305  -0.74752  -0.73131  -0.68087  -0.67512
 Alpha  occ. eigenvalues --   -0.66668  -0.61711  -0.60927  -0.56088  -0.53711
 Alpha  occ. eigenvalues --   -0.50210  -0.49033  -0.46602  -0.45664  -0.43391
 Alpha  occ. eigenvalues --   -0.43212  -0.42473  -0.41644  -0.41385  -0.41088
 Alpha  occ. eigenvalues --   -0.40221  -0.38636  -0.38091  -0.36856  -0.36659
 Alpha  occ. eigenvalues --   -0.35655  -0.35268  -0.34539  -0.33613  -0.32819
 Alpha  occ. eigenvalues --   -0.32523  -0.31752  -0.26868  -0.25456  -0.24604
 Alpha  occ. eigenvalues --   -0.23892  -0.23053  -0.14991
 Alpha virt. eigenvalues --   -0.03287  -0.01321  -0.00405   0.00444   0.01335
 Alpha virt. eigenvalues --    0.02146   0.02165   0.02464   0.03761   0.04116
 Alpha virt. eigenvalues --    0.04303   0.04527   0.04662   0.05528   0.05659

  Beta  occ. eigenvalues --  -19.06552 -19.06392 -10.21666 -10.21478 -10.18150
  Beta  occ. eigenvalues --  -10.17124 -10.17075 -10.17027 -10.16931 -10.16870
  Beta  occ. eigenvalues --  -10.16781 -10.16756 -10.15301 -10.15001 -10.14507
  Beta  occ. eigenvalues --  -10.14500  -0.98325  -0.97907  -0.85361  -0.82209
  Beta  occ. eigenvalues --   -0.77963  -0.74583  -0.72930  -0.67921  -0.67482
  Beta  occ. eigenvalues --   -0.65876  -0.61544  -0.60656  -0.55880  -0.53537
  Beta  occ. eigenvalues --   -0.49992  -0.48789  -0.46359  -0.45582  -0.43327
  Beta  occ. eigenvalues --   -0.43070  -0.42399  -0.41503  -0.40843  -0.40203
  Beta  occ. eigenvalues --   -0.39716  -0.38053  -0.37809  -0.36816  -0.35886
  Beta  occ. eigenvalues --   -0.35172  -0.34283  -0.33652  -0.33473  -0.32666
  Beta  occ. eigenvalues --   -0.32198  -0.31685  -0.24812  -0.24300  -0.23796
  Beta  occ. eigenvalues --   -0.23317  -0.22496
  Beta virt. eigenvalues --   -0.08307  -0.02546  -0.00391  -0.00223   0.00444
  Beta virt. eigenvalues --    0.01351   0.02167   0.02182   0.02464   0.03771
  Beta virt. eigenvalues --    0.04176   0.04316   0.04538   0.05045   0.05672

 Mulliken charges and spin densities:
               1          2
     1  C   -0.502160  -0.001594
     2  C    0.721215  -0.018798
     3  C   -0.690886   0.012961
     4  C   -0.688336   0.012794
     5  C    0.851426   0.080512
     6  C   -0.319081   0.076335
     7  C   -0.655630   0.101718
     8  O   -0.505713   0.224894
     9  C    0.616249   0.027276
    10  C   -0.137967   0.024977
    11  C   -0.421997   0.022692
    12  C   -0.411206   0.030302
    13  C    0.123650   0.040971
    14  C    0.292252   0.041160
    15  C   -1.083818   0.106427
    16  O   -0.424159   0.236257
    17  H    0.133714  -0.000561
    18  H    0.171399   0.000002
    19  H    0.133308  -0.000560
    20  H    0.182826  -0.001982
    21  H    0.149285   0.001198
    22  H    0.132111   0.000309
    23  H    0.149689   0.001157
    24  H    0.182219  -0.001994
    25  H    0.132275   0.000361
    26  H    0.183499  -0.008362
    27  H    0.158364  -0.002398
    28  H    0.181546  -0.001860
    29  H    0.180009  -0.002213
    30  H    0.165916  -0.001981
 Sum of Mulliken charges =  -1.00000   1.00000

 Dipole moment (field-independent basis, Debye):
    X=             -4.4476    Y=             -2.6308    Z=              0.4572  Tot=              5.1876
 Quadrupole moment (field-independent basis, Debye-Ang):
   XX=           -106.4894   YY=           -128.7543   ZZ=           -106.5929
   XY=            -15.5791   XZ=              6.1418   YZ=              9.6312

  Exact polarizability: 347.274  12.997 301.229  10.190 -60.289 185.967
 Approx polarizability: 357.958  24.989 350.954   4.530 -73.706 207.745

                      1                      2                      3
                      A                      A                      A
 Frequencies --     44.7277                65.1142               128.9882
 Red. masses --      4.4994                 3.4592                 4.5358
 Frc consts  --      0.0053                 0.0086                 0.0445
 IR Inten    --     10.3936                 0.9103                 0.0288

                      4                      5                      6
                      A                      A                      A
 Frequencies --    153.5075               177.7024               200.6965
 Red. masses --      4.6119                 3.7292                 4.4057
 Frc consts  --      0.0640                 0.0694                 0.1046
 IR Inten    --     11.0600                 5.4865                 0.0739

                      7                      8                      9
                      A                      A                      A
 Frequencies --    219.4799               251.0267               267.1536
 Red. masses --      1.1081                 1.1119                 3.4097
 Frc consts  --      0.0315                 0.0413                 0.1434
 IR Inten    --      0.6558                 1.5393                 3.1082

                     10                     11                     12
                      A                      A                      A
 Frequencies --    283.0600               288.7566               322.8717
 Red. masses --      5.6383                 3.3403                 2.7460
 Frc consts  --      0.2662                 0.1641                 0.1687
 IR Inten    --      1.8582                 0.1200                 1.6988

                     13                     14                     15
                      A                      A                      A
 Frequencies --    336.2566               377.4582               382.2324
 Red. masses --      1.0465                10.5584                 2.4608
 Frc consts  --      0.0697                 0.8863                 0.2118
 IR Inten    --      0.0758                30.2258                 0.4549

                     16                     17                     18
                      A                      A                      A
 Frequencies --    412.9978               425.2127               458.7006
 Red. masses --      2.6660                 3.2133                 4.3886
 Frc consts  --      0.2679                 0.3423                 0.5440
 IR Inten    --      1.8518                 2.3071                 0.4091

                     19                     20                     21
                      A                      A                      A
 Frequencies --    474.0024               479.3034               539.5286
 Red. masses --      5.1887                 7.1728                 3.9659
 Frc consts  --      0.6869                 0.9709                 0.6802
 IR Inten    --      2.2730                 2.1496                 5.2317

                     22                     23                     24
                      A                      A                      A
 Frequencies --    542.6883               625.8970               659.2743
 Red. masses --      3.6846                 5.4093                 3.3303
 Frc consts  --      0.6394                 1.2485                 0.8528
 IR Inten    --      0.9812                13.3804                 9.1896

                     25                     26                     27
                      A                      A                      A
 Frequencies --    677.0036               720.5859               726.9817
 Red. masses --      5.8836                 3.0880                 6.0911
 Frc consts  --      1.5888                 0.9447                 1.8967
 IR Inten    --      0.9543                61.6060                13.4029

                     28                     29                     30
                      A                      A                      A
 Frequencies --    781.7062               793.4346               801.4280
 Red. masses --      1.7274                 3.7620                 3.9230
 Frc consts  --      0.6219                 1.3954                 1.4846
 IR Inten    --     68.1669                15.9212                 1.7503

                     31                     32                     33
                      A                      A                      A
 Frequencies --    831.0852               883.1913               888.0423
 Red. masses --      5.0393                 1.5471                 1.4824
 Frc consts  --      2.0507                 0.7110                 0.6888
 IR Inten    --     15.7842                28.0780                 0.0736

                     34                     35                     36
                      A                      A                      A
 Frequencies --    905.6156               926.5540               931.3486
 Red. masses --      3.3031                 1.7730                 1.7557
 Frc consts  --      1.5961                 0.8968                 0.8973
 IR Inten    --     63.5854                 1.6090                12.7119

                     37                     38                     39
                      A                      A                      A
 Frequencies --    955.7345               984.8125              1001.3292
 Red. masses --      1.1981                 1.3696                 1.2882
 Frc consts  --      0.6448                 0.7826                 0.7610
 IR Inten    --      0.2834                 2.1700                 0.1700

                     40                     41                     42
                      A                      A                      A
 Frequencies --   1036.9021              1040.6811              1042.4373
 Red. masses --      2.2475                 1.4196                 1.3831
 Frc consts  --      1.4237                 0.9058                 0.8855
 IR Inten    --     29.1183                 5.9266                 0.1101

                     43                     44                     45
                      A                      A                      A
 Frequencies --   1100.3493              1109.5742              1150.5719
 Red. masses --      2.6978                 3.0190                 1.4937
 Frc consts  --      1.9245                 2.1899                 1.1651
 IR Inten    --      2.2384                23.5345                34.6712

                     46                     47                     48
                      A                      A                      A
 Frequencies --   1161.2081              1212.7776              1215.8645
 Red. masses --      1.6037                 2.7284                 2.3912
 Frc consts  --      1.2740                 2.3644                 2.0828
 IR Inten    --     17.6066                 8.4083                 4.9406

                     49                     50                     51
                      A                      A                      A
 Frequencies --   1223.9181              1243.5236              1264.1278
 Red. masses --      2.4376                 2.2494                 2.3950
 Frc consts  --      2.1514                 2.0494                 2.2550
 IR Inten    --     57.9154                78.9107                76.2392

                     52                     53                     54
                      A                      A                      A
 Frequencies --   1307.6259              1355.0886              1374.4058
 Red. masses --      1.9098                 9.7464                 1.2105
 Frc consts  --      1.9240                10.5445                 1.3472
 IR Inten    --      7.1556                 3.3895                12.7256

                     55                     56                     57
                      A                      A                      A
 Frequencies --   1379.1076              1393.4755              1408.9433
 Red. masses --      1.3998                 2.6612                 1.2666
 Frc consts  --      1.5686                 3.0446                 1.4814
 IR Inten    --     35.6086                47.4210                72.7496

                     58                     59                     60
                      A                      A                      A
 Frequencies --   1451.5994              1469.9757              1470.0266
 Red. masses --      3.6500                 1.4942                 1.4759
 Frc consts  --      4.5315                 1.9023                 1.8792
 IR Inten    --    909.3241                39.5340                38.5058

                     61                     62                     63
                      A                      A                      A
 Frequencies --   1475.8947              1486.0159              1488.1289
 Red. masses --      4.2524                 1.2713                 1.0490
 Frc consts  --      5.4575                 1.6540                 1.3687
 IR Inten    --     13.2067                71.0283                 1.1891

                     64                     65                     66
                      A                      A                      A
 Frequencies --   1489.3330              1500.2852              1510.3093
 Red. masses --      1.1004                 1.0507                 2.3871
 Frc consts  --      1.4380                 1.3933                 3.2081
 IR Inten    --      9.7609                 9.5215               492.7380

                     67                     68                     69
                      A                      A                      A
 Frequencies --   1517.7844              1550.3621              1614.1515
 Red. masses --      1.2311                 4.6097                 7.2888
 Frc consts  --      1.6710                 6.5281                11.1891
 IR Inten    --    134.1366                92.2866                31.7107

                     70                     71                     72
                      A                      A                      A
 Frequencies --   1628.6961              3009.9349              3012.4891
 Red. masses --      5.9414                 1.0385                 1.0374
 Frc consts  --      9.2858                 5.5434                 5.5470
 IR Inten    --      4.3947                81.7640                56.1560

                     73                     74                     75
                      A                      A                      A
 Frequencies --   3021.0787              3064.8238              3066.4693
 Red. masses --      1.0367                 1.1017                 1.1009
 Frc consts  --      5.5746                 6.0969                 6.0994
 IR Inten    --     90.6563                34.4736                72.0595

                     76                     77                     78
                      A                      A                      A
 Frequencies --   3080.7195              3083.8149              3123.3562
 Red. masses --      1.1011                 1.1021                 1.0976
 Frc consts  --      6.1572                 6.1751                 6.3087
 IR Inten    --    117.1611                65.9795                 0.1514

                     79                     80                     81
                      A                      A                      A
 Frequencies --   3125.4963              3157.0960              3171.0776
 Red. masses --      1.0970                 1.0859                 1.0901
 Frc consts  --      6.3139                 6.3770                 6.4587
 IR Inten    --     34.7401                10.1092                22.2725

                     82                     83                     84
                      A                      A                      A
 Frequencies --   3182.4078              3185.8573              3191.1569
 Red. masses --      1.0874                 1.0925                 1.0936
 Frc consts  --      6.4886                 6.5334                 6.5617
 IR Inten    --     26.8661                27.5692                32.1330

 - Thermochemistry -
 -------------------
 Temperature   298.150 Kelvin.  Pressure   1.00000 Atm.
 Atom     1 has atomic number  6 and mass  12.00000

 Molecular mass:   214.09938 amu.
 Principal axes and moments of inertia in atomic units:
                           1         2         3
     Eigenvalues --  1816.217804630.278286045.22687
           X            0.99546   0.05632  -0.07674
           Y           -0.02147   0.91827   0.39537
           Z            0.09274  -0.39192   0.91531
 This molecule is an asymmetric top.
 Rotational symmetry number  1.
 Warning -- assumption of classical behavior for rotation
           may cause significant error
 Rotational temperatures (Kelvin)      0.04769     0.01871     0.01433
 Rotational constants (GHZ):           0.99368     0.38977     0.29854
 Zero-point vibrational energy     634465.9 (Joules/Mol)
                                  151.64099 (Kcal/Mol)
 Warning -- explicit consideration of  22 degrees of freedom as
           vibrations may cause significant error
 Vibrational temperatures:     64.35    93.68   185.59   220.86   255.67
          (Kelvin)            288.76   315.78   361.17   384.37   407.26
                              415.46   464.54   483.80   543.08   549.95
                              594.21   611.79   659.97   681.98   689.61
                              776.26   780.81   900.53   948.55   974.06
                             1036.76  1045.96  1124.70  1141.58  1153.08
                             1195.75  1270.72  1277.69  1302.98  1333.10
                             1340.00  1375.09  1416.93  1440.69  1491.87
                             1497.31  1499.83  1583.16  1596.43  1655.42
                             1670.72  1744.92  1749.36  1760.95  1789.15
                             1818.80  1881.38  1949.67  1977.46  1984.23
                             2004.90  2027.16  2088.53  2114.97  2115.04
                             2123.48  2138.05  2141.09  2142.82  2158.58
                             2173.00  2183.75  2230.63  2322.40  2343.33
                             4330.62  4334.30  4346.66  4409.60  4411.97
                             4432.47  4436.92  4493.81  4496.89  4542.36
                             4562.47  4578.78  4583.74  4591.36

 Zero-point correction=                           0.241655 (Hartree/Particle)
 Thermal correction to Energy=                    0.255779
 Thermal correction to Enthalpy=                  0.256724
 Thermal correction to Gibbs Free Energy=         0.200908
 Sum of electronic and zero-point Energies=           -692.461053
 Sum of electronic and thermal Energies=              -692.446929
 Sum of electronic and thermal Enthalpies=            -692.445985
 Sum of electronic and thermal Free Energies=         -692.501801

                     E (Thermal)             CV                S
                      KCal/Mol        Cal/Mol-Kelvin    Cal/Mol-Kelvin
 Total                  160.504             56.718            117.474
 Electronic               0.000              0.000              1.377
 Translational            0.889              2.981             41.987
 Rotational               0.889              2.981             32.297
 Vibrational            158.727             50.756             41.812
 Vibration     1          0.595              1.980              5.038
 Vibration     2          0.597              1.971              4.296
 Vibration     3          0.611              1.924              2.961
 Vibration     4          0.619              1.899              2.628
 Vibration     5          0.628              1.870              2.352
 Vibration     6          0.638              1.839              2.127
 Vibration     7          0.647              1.811              1.963
 Vibration     8          0.663              1.761              1.723
 Vibration     9          0.672              1.733              1.615
 Vibration    10          0.682              1.705              1.515
 Vibration    11          0.685              1.695              1.481
 Vibration    12          0.708              1.630              1.296
 Vibration    13          0.717              1.603              1.230
 Vibration    14          0.748              1.518              1.049
 Vibration    15          0.752              1.508              1.030
 Vibration    16          0.777              1.442              0.916
 Vibration    17          0.787              1.415              0.874
 Vibration    18          0.817              1.342              0.770
 Vibration    19          0.831              1.308              0.726
 Vibration    20          0.836              1.296              0.712
 Vibration    21          0.895              1.163              0.566
 Vibration    22          0.898              1.156              0.560

 Optimization completed.
    -- Stationary point found.
 Normal termination of Gaussian 16 at Sun Feb 11 01:52:17 2024.
