 Q-Chem 5.4, Q-Chem, Inc., Pleasanton, CA (2021)
 Q-Chem 5.4.0 for Intel X86 EM64T Linux

User input:
--------------------------------------------------------------
$molecule
-1 2
C                  5.7601050000     -5.2944380000      1.2614460000
C                  6.6944770000     -5.1481350000      0.2417360000
C                  6.5751730000     -4.1517910000     -0.7409080000
C                  4.6425500000     -4.4044310000      1.3131480000
C                  4.5298440000     -3.3938910000      0.3089260000
C                  5.5017910000     -3.2865190000     -0.7024620000
C                  3.6129550000     -4.5029570000      2.3675550000
C                  2.5243660000     -3.5472270000      2.3204500000
C                  2.4425320000     -2.5837260000      1.3396190000
C                  3.4065520000     -2.4351860000      0.2905290000
O                  3.6534060000     -5.3730250000      3.2843120000
O                  3.3113200000     -1.5446490000     -0.5982870000
C                  5.9868980000     -6.4019460000      2.2675450000
H                  7.5410360000     -5.8291690000      0.2099460000
C                  1.4797510000     -3.6560160000      3.3998240000
H                  1.6135290000     -1.8798370000      1.3300920000
H                  5.3672880000     -2.5024000000     -1.4384480000
H                  7.3253990000     -4.0683960000     -1.5222320000
H                  6.9056790000     -6.9436760000      2.0162200000
H                  5.1508300000     -7.1033130000      2.2911740000
H                  6.0654670000     -6.0133880000      3.2846080000
H                  1.0080600000     -4.6446950000      3.3922840000
H                  0.7064620000     -2.8927580000      3.2739460000
H                  1.9281740000     -3.5474200000      4.3933810000
$end
$rem
MAX_SCF_CYCLES=200
BASIS  =  6-311++G(d,p)
GUI  =  2
JOB_TYPE  =  SP
METHOD  =  B3LYP
SOLVENT_METHOD = PCM
$end
$pcm
theory = CPCM
$end
$solvent
dielectric 37.219
opticaldielectric 1.43
$end

--------------------------------------------------------------

             Standard Nuclear Orientation (Angstroms)
    I     Atom           X                Y                Z
 ----------------------------------------------------------------
    1      C       5.7601050000    -5.2944380000     1.2614460000
    2      C       6.6944770000    -5.1481350000     0.2417360000
    3      C       6.5751730000    -4.1517910000    -0.7409080000
    4      C       4.6425500000    -4.4044310000     1.3131480000
    5      C       4.5298440000    -3.3938910000     0.3089260000
    6      C       5.5017910000    -3.2865190000    -0.7024620000
    7      C       3.6129550000    -4.5029570000     2.3675550000
    8      C       2.5243660000    -3.5472270000     2.3204500000
    9      C       2.4425320000    -2.5837260000     1.3396190000
   10      C       3.4065520000    -2.4351860000     0.2905290000
   11      O       3.6534060000    -5.3730250000     3.2843120000
   12      O       3.3113200000    -1.5446490000    -0.5982870000
   13      C       5.9868980000    -6.4019460000     2.2675450000
   14      H       7.5410360000    -5.8291690000     0.2099460000
   15      C       1.4797510000    -3.6560160000     3.3998240000
   16      H       1.6135290000    -1.8798370000     1.3300920000
   17      H       5.3672880000    -2.5024000000    -1.4384480000
   18      H       7.3253990000    -4.0683960000    -1.5222320000
   19      H       6.9056790000    -6.9436760000     2.0162200000
   20      H       5.1508300000    -7.1033130000     2.2911740000
   21      H       6.0654670000    -6.0133880000     3.2846080000
   22      H       1.0080600000    -4.6446950000     3.3922840000
   23      H       0.7064620000    -2.8927580000     3.2739460000
   24      H       1.9281740000    -3.5474200000     4.3933810000
 ----------------------------------------------------------------

    8    -614.0625890161      7.49e-06  Convergence criterion met
 Total energy in the final basis set =     -614.0625890161

                    Orbital Energies (a.u.)
 --------------------------------------------------------------

 Alpha MOs
 -- Occupied --
-19.0728 -19.0717 -10.2183 -10.2182 -10.1810 -10.1731 -10.1694 -10.1690
-10.1681 -10.1644 -10.1634 -10.1537 -10.1537 -10.1515  -0.9978  -0.9953
 -0.8555  -0.8086  -0.7672  -0.7496  -0.6973  -0.6844  -0.6479  -0.6063
 -0.5874  -0.5366  -0.5042  -0.4906  -0.4667  -0.4446  -0.4286  -0.4279
 -0.4134  -0.4052  -0.4000  -0.3898  -0.3871  -0.3804  -0.3723  -0.3625
 -0.3607  -0.3430  -0.3415  -0.3333  -0.2701  -0.2460  -0.2441  -0.2412
 -0.2316  -0.1486

 Beta MOs
 -- Occupied --
-19.0671 -19.0656 -10.2165 -10.2165 -10.1809 -10.1728 -10.1688 -10.1677
-10.1671 -10.1639 -10.1633 -10.1538 -10.1527 -10.1515  -0.9876  -0.9846
 -0.8536  -0.8035  -0.7659  -0.7476  -0.6931  -0.6825  -0.6425  -0.6034
 -0.5851  -0.5337  -0.5022  -0.4882  -0.4642  -0.4434  -0.4257  -0.4197
 -0.4083  -0.4036  -0.3990  -0.3848  -0.3792  -0.3775  -0.3715  -0.3590
 -0.3414  -0.3407  -0.3325  -0.3322  -0.2454  -0.2398  -0.2364  -0.2360
 -0.2262

          Ground-State Mulliken Net Atomic Charges

     Atom                 Charge (a.u.)    Spin (a.u.)
  --------------------------------------------------------
      1 C                     0.577966       0.020545
      2 C                    -0.531507       0.024881
      3 C                    -0.434630       0.030740
      4 C                     0.538656       0.010022
      5 C                     0.567772       0.048859
      6 C                    -0.096266       0.027904
      7 C                    -0.824915       0.123353
      8 C                     0.514821       0.109601
      9 C                    -0.418435       0.060913
     10 C                    -0.756555       0.101908
     11 O                    -0.459048       0.229626
     12 O                    -0.521037       0.206349
     13 C                    -0.475616       0.004970
     14 H                     0.144001      -0.002969
     15 C                    -0.337613       0.003004
     16 H                     0.160181      -0.008061
     17 H                     0.165443      -0.002582
     18 H                     0.204686      -0.002116
     19 H                     0.155498      -0.000272
     20 H                     0.160928       0.000106
     21 H                     0.160858       0.000113
     22 H                     0.171485       0.006591
     23 H                     0.161850      -0.000103
     24 H                     0.171475       0.006616
  --------------------------------------------------------
  Sum of atomic charges =    -1.000000

                    Cartesian Multipole Moments
 -----------------------------------------------------------------
    Charge (ESU x 10^10)
                -4.8032
    Dipole Moment (Debye)
         X     -17.0477      Y      15.8385      Z      -5.3080
       Tot      23.8675
    Quadrupole Moments (Debye-Ang)
        XX    -143.5846     XY      55.5220     YY    -156.3180
        XZ     -22.6786     YZ      35.6677     ZZ    -110.3403

 Total job time:  51.84s(wall), 253.91s(cpu)
        *  Thank you very much for using Q-Chem.  Have a nice day.  *
