 Q-Chem 5.4, Q-Chem, Inc., Pleasanton, CA (2021)
 Q-Chem 5.4.0 for Intel X86 EM64T Linux

User input:
--------------------------------------------------------------
$molecule
-2 1
C                  4.2105050000     -1.3077330000      3.8868240000
C                  3.4382090000     -0.9692230000      4.9751020000
C                  2.5050380000      0.0928910000      4.9008010000
C                  4.0859060000     -0.5938260000      2.6597820000
C                  3.1394340000      0.4865000000      2.5710250000
C                  2.3758030000      0.7908720000      3.7113130000
C                  4.8926370000     -0.9471150000      1.5357230000
C                  4.6886350000     -0.1697020000      0.3536380000
C                  3.7887190000      0.8847120000      0.2227180000
C                  2.9577650000      1.2623910000      1.3369680000
O                  5.7820780000     -1.8979630000      1.4990290000
O                  2.1170800000      2.2186320000      1.2659960000
O                  5.4992230000     -0.5609240000     -0.6872610000
O                  3.4975570000     -1.6163530000      6.2128950000
C                  4.4078630000     -2.6837820000      6.3331520000
C                  3.6710360000      1.6578290000     -1.0657420000
C                  2.5621200000      1.1484660000     -2.0132870000
C                  2.4454830000      1.9901040000     -3.2917690000
C                  1.3078880000      1.6087110000     -4.2580550000
C                  1.4961530000      0.2157040000     -4.8887440000
C                  1.1386960000      2.6654960000     -5.3679340000
C                  0.0195070000      2.3179100000     -6.3592560000
C                  0.2186240000      0.9261160000     -6.9700070000
C                  0.3768630000     -0.1402550000     -5.8795840000
H                  4.9347460000     -2.1123130000      3.9037590000
H                  1.9103710000      0.3354330000      5.7756750000
H                  1.6676280000      1.6086340000      3.6221240000
H                  5.9903010000     -1.2996670000     -0.2499620000
H                  4.3103300000     -3.0587580000      7.3554630000
H                  5.4434720000     -2.3598220000      6.1626800000
H                  4.1839950000     -3.4940970000      5.6263230000
H                  4.6278180000      1.6305350000     -1.6008040000
H                  3.4450540000      2.7006330000     -0.8136970000
H                  1.6113260000      1.1716780000     -1.4691910000
H                  2.7687180000      0.1019030000     -2.2603020000
H                  3.3990000000      1.9539430000     -3.8400320000
H                  2.3072500000      3.0400030000     -2.9991060000
H                  0.3723350000      1.5865500000     -3.6782040000
H                  1.5574540000     -0.5447820000     -4.1046430000
H                  2.4624680000      0.1968100000     -5.4133240000
H                  2.0885630000      2.7602290000     -5.9139220000
H                  0.9468730000      3.6456560000     -4.9133760000
H                 -0.0463260000      3.0751680000     -7.1519970000
H                 -0.9452890000      2.3415690000     -5.8337080000
H                  1.1228020000      0.9365560000     -7.5951210000
H                 -0.6117700000      0.6772960000     -7.6432900000
H                  0.5713240000     -1.1198220000     -6.3351670000
H                 -0.5708960000     -0.2386610000     -5.3328550000
$end
$rem
MAX_SCF_CYCLES=200
BASIS  =  6-311++G(d,p)
GUI  =  2
JOB_TYPE  =  SP
METHOD  =  B3LYP
SCF_CONVERGENCE = 8
SCF_ALGORITHM = RCA_DIIS
THRESH = 14
scf_guess = GWH
SOLVENT_METHOD = PCM
$end
$pcm
theory = CPCM
$end
$solvent
dielectric 37.219
opticaldielectric 1.43
$end

--------------------------------------------------------------

             Standard Nuclear Orientation (Angstroms)
    I     Atom           X                Y                Z
 ----------------------------------------------------------------
    1      C       4.2105050000    -1.3077330000     3.8868240000
    2      C       3.4382090000    -0.9692230000     4.9751020000
    3      C       2.5050380000     0.0928910000     4.9008010000
    4      C       4.0859060000    -0.5938260000     2.6597820000
    5      C       3.1394340000     0.4865000000     2.5710250000
    6      C       2.3758030000     0.7908720000     3.7113130000
    7      C       4.8926370000    -0.9471150000     1.5357230000
    8      C       4.6886350000    -0.1697020000     0.3536380000
    9      C       3.7887190000     0.8847120000     0.2227180000
   10      C       2.9577650000     1.2623910000     1.3369680000
   11      O       5.7820780000    -1.8979630000     1.4990290000
   12      O       2.1170800000     2.2186320000     1.2659960000
   13      O       5.4992230000    -0.5609240000    -0.6872610000
   14      O       3.4975570000    -1.6163530000     6.2128950000
   15      C       4.4078630000    -2.6837820000     6.3331520000
   16      C       3.6710360000     1.6578290000    -1.0657420000
   17      C       2.5621200000     1.1484660000    -2.0132870000
   18      C       2.4454830000     1.9901040000    -3.2917690000
   19      C       1.3078880000     1.6087110000    -4.2580550000
   20      C       1.4961530000     0.2157040000    -4.8887440000
   21      C       1.1386960000     2.6654960000    -5.3679340000
   22      C       0.0195070000     2.3179100000    -6.3592560000
   23      C       0.2186240000     0.9261160000    -6.9700070000
   24      C       0.3768630000    -0.1402550000    -5.8795840000
   25      H       4.9347460000    -2.1123130000     3.9037590000
   26      H       1.9103710000     0.3354330000     5.7756750000
   27      H       1.6676280000     1.6086340000     3.6221240000
   28      H       5.9903010000    -1.2996670000    -0.2499620000
   29      H       4.3103300000    -3.0587580000     7.3554630000
   30      H       5.4434720000    -2.3598220000     6.1626800000
   31      H       4.1839950000    -3.4940970000     5.6263230000
   32      H       4.6278180000     1.6305350000    -1.6008040000
   33      H       3.4450540000     2.7006330000    -0.8136970000
   34      H       1.6113260000     1.1716780000    -1.4691910000
   35      H       2.7687180000     0.1019030000    -2.2603020000
   36      H       3.3990000000     1.9539430000    -3.8400320000
   37      H       2.3072500000     3.0400030000    -2.9991060000
   38      H       0.3723350000     1.5865500000    -3.6782040000
   39      H       1.5574540000    -0.5447820000    -4.1046430000
   40      H       2.4624680000     0.1968100000    -5.4133240000
   41      H       2.0885630000     2.7602290000    -5.9139220000
   42      H       0.9468730000     3.6456560000    -4.9133760000
   43      H      -0.0463260000     3.0751680000    -7.1519970000
   44      H      -0.9452890000     2.3415690000    -5.8337080000
   45      H       1.1228020000     0.9365560000    -7.5951210000
   46      H      -0.6117700000     0.6772960000    -7.6432900000
   47      H       0.5713240000    -1.1198220000    -6.3351670000
   48      H      -0.5708960000    -0.2386610000    -5.3328550000
 ----------------------------------------------------------------

   96   -1078.0446161115      4.89E-09 Convergence criterion met
 Total energy in the final basis set = -1078.04461611

                    Orbital Energies (a.u.)
 --------------------------------------------------------------

 Alpha MOs
 -- Occupied --
-19.1392 -19.1120 -19.0262 -19.0211 -10.2086 -10.2055 -10.1763 -10.1743
-10.1592 -10.1564 -10.1526 -10.1524 -10.1522 -10.1503 -10.1492 -10.1488
-10.1472 -10.1440 -10.1438 -10.1407 -10.1399 -10.1372 -10.1298 -10.1212
 -1.0480  -1.0261  -0.9439  -0.9308  -0.8261  -0.8241  -0.7833  -0.7629
 -0.7378  -0.7289  -0.7248  -0.7099  -0.6778  -0.6526  -0.6274  -0.6010
 -0.5907  -0.5860  -0.5613  -0.5513  -0.5401  -0.5393  -0.5165  -0.4852
 -0.4652  -0.4582  -0.4558  -0.4535  -0.4468  -0.4421  -0.4292  -0.4250
 -0.4165  -0.4129  -0.4011  -0.3967  -0.3884  -0.3839  -0.3755  -0.3687
 -0.3662  -0.3614  -0.3575  -0.3547  -0.3459  -0.3431  -0.3355  -0.3317
 -0.3284  -0.3252  -0.3184  -0.3125  -0.3081  -0.3051  -0.3044  -0.3023
 -0.2853  -0.2813  -0.2801  -0.2300  -0.2162  -0.2134  -0.1989  -0.1873
 -0.1078

          Ground-State Mulliken Net Atomic Charges

     Atom                 Charge (a.u.)
  ----------------------------------------
      1 C                     0.792340
      2 C                    -0.932254
      3 C                    -0.506771
      4 C                     0.770122
      5 C                    -0.579356
      6 C                     0.087710
      7 C                    -0.813759
      8 C                    -0.498949
      9 C                     1.463067
     10 C                    -1.008052
     11 O                    -0.753508
     12 O                    -0.665273
     13 O                    -0.342873
     14 O                    -0.243566
     15 C                    -0.350689
     16 C                     0.078488
     17 C                    -0.584813
     18 C                    -0.716354
     19 C                     0.960107
     20 C                    -0.496780
     21 C                    -0.465450
     22 C                    -0.327712
     23 C                    -0.392633
     24 C                    -0.364438
     25 H                     0.140726
     26 H                     0.191225
     27 H                     0.156899
     28 H                     0.292830
     29 H                     0.187339
     30 H                     0.163096
     31 H                     0.162402
     32 H                     0.196883
     33 H                     0.167260
     34 H                     0.171289
     35 H                     0.161759
     36 H                     0.109469
     37 H                     0.135234
     38 H                     0.145758
     39 H                     0.143393
     40 H                     0.157575
     41 H                     0.154585
     42 H                     0.142887
     43 H                     0.179075
     44 H                     0.129434
     45 H                     0.122981
     46 H                     0.173217
     47 H                     0.167661
     48 H                     0.138419
  ----------------------------------------
  Sum of atomic charges =    -2.000000

                    Cartesian Multipole Moments
 -----------------------------------------------------------------
    Charge (ESU x 10^10)
                -9.6064
    Dipole Moment (Debye)
         X     -36.5808      Y      -2.2233      Z     -14.9416
       Tot      39.5771
    Quadrupole Moments (Debye-Ang)
        XX    -319.6760     XY      12.7865     YY    -181.7616
        XZ     -49.4315     YZ      -2.4473     ZZ    -204.0046

 Total job time:  2788.42s(wall), 16847.54s(cpu)
        *  Thank you very much for using Q-Chem.  Have a nice day.  *
