 Gaussian 16, Revision A.03,
 Gaussian 16:  ES64L-G16RevA.03 25-Dec-2016

 --------------------------------------
 #P UB3LYP/6-311++G(d,p) nosym opt freq
 --------------------------------------

 -------
 Radical
 -------
 Symbolic Z-matrix:
 Charge = -1 Multiplicity = 2

 SCF Done:  E(UB3LYP) =  -1029.40127511     A.U. after   19 cycles
 SCF Done:  E(UB3LYP) =  -1029.40127483     A.U. after   10 cycles
 SCF Done:  E(UB3LYP) =  -1029.40127524     A.U. after   10 cycles
 Optimization completed.
    -- Stationary point found.
 Normal termination of Gaussian 16 at Sun Jan  7 07:08:53 2024.

 ----------------------------------------------------------------------
 #P Geom=AllCheck Guess=TCheck SCRF=Check GenChk UB3LYP/6-311++G(d,p) F
 req
 ----------------------------------------------------------------------

 Structure from the checkpoint file:  "206-rad.chk"
 -------
 Radical
 -------
 Charge = -1 Multiplicity = 2

                          Input orientation:
 ---------------------------------------------------------------------
 Center     Atomic      Atomic             Coordinates (Angstroms)
 Number     Number       Type             X           Y           Z
 ---------------------------------------------------------------------
      1          6           0       -4.551348    0.894628    0.346113
      2          6           0       -3.197448    0.255657    0.179564
      3          6           0       -3.062485   -1.118394   -0.059881
      4          6           0       -1.818682   -1.719877   -0.215102
      5          8           0       -1.766857   -3.054397   -0.444289
      6          6           0       -0.636944   -0.934571   -0.131868
      7          6           0        0.658046   -1.544061   -0.290645
      8          8           0        0.761358   -2.819337   -0.511954
      9          6           0        1.835966   -0.719439   -0.200514
     10          6           0        3.129016   -1.294773   -0.353243
     11          8           0        3.290911   -2.620156   -0.585288
     12          6           0        4.258587   -0.489011   -0.264339
     13          6           0        4.143976    0.884195   -0.026163
     14          6           0        2.898292    1.481712    0.128345
     15          8           0        2.840343    2.816297    0.357540
     16          6           0        1.717918    0.689462    0.043967
     17          6           0        0.421791    1.297182    0.202529
     18          8           0        0.315815    2.573592    0.424176
     19          6           0       -0.757063    0.472255    0.112459
     20          6           0       -2.048073    1.046803    0.265171
     21          8           0       -2.205060    2.374517    0.497720
     22          1           0       -4.715000    1.677284   -0.402023
     23          1           0       -4.643028    1.380124    1.323355
     24          1           0       -5.346520    0.151227    0.251328
     25          1           0       -3.943699   -1.747602   -0.129427
     26          1           0       -0.797133   -3.271182   -0.522530
     27          1           0        2.369510   -2.999173   -0.610524
     28          1           0        5.231448   -0.952164   -0.384369
     29          1           0        5.026158    1.510668    0.042769
     30          1           0        1.869907    3.029529    0.435111
     31          1           0       -1.279699    2.749006    0.522007
 ---------------------------------------------------------------------

 SCF Done:  E(UB3LYP) =  -1029.40127524     A.U. after    1 cycles

 Alpha  occ. eigenvalues --  -19.02212 -19.02155 -19.02085 -19.02074 -18.99034
 Alpha  occ. eigenvalues --  -18.99010 -10.13219 -10.13181 -10.12495 -10.12449
 Alpha  occ. eigenvalues --  -10.12440 -10.12261 -10.07702 -10.07295 -10.07285
 Alpha  occ. eigenvalues --  -10.07277 -10.07234 -10.07117 -10.06590 -10.06537
 Alpha  occ. eigenvalues --  -10.06394  -0.94964  -0.94778  -0.93978  -0.93849
 Alpha  occ. eigenvalues --   -0.89718  -0.89577  -0.75719  -0.73935  -0.69578
 Alpha  occ. eigenvalues --   -0.65736  -0.63945  -0.62629  -0.60123  -0.56780
 Alpha  occ. eigenvalues --   -0.54206  -0.52266  -0.49581  -0.48220  -0.44449
 Alpha  occ. eigenvalues --   -0.42169  -0.41571  -0.40876  -0.40547  -0.40432
 Alpha  occ. eigenvalues --   -0.36612  -0.34587  -0.34199  -0.33964  -0.32563
 Alpha  occ. eigenvalues --   -0.32175  -0.32071  -0.30779  -0.30290  -0.30251
 Alpha  occ. eigenvalues --   -0.29897  -0.29728  -0.29723  -0.27923  -0.27791
 Alpha  occ. eigenvalues --   -0.26426  -0.25984  -0.25539  -0.25360  -0.24588
 Alpha  occ. eigenvalues --   -0.23624  -0.20312  -0.19377  -0.16444  -0.16281
 Alpha  occ. eigenvalues --   -0.14634  -0.14403  -0.11766  -0.09647  -0.03666
 Alpha virt. eigenvalues --    0.06331   0.07538   0.07968   0.08634   0.09882
 Alpha virt. eigenvalues --    0.10641   0.10716   0.11576   0.12271   0.12347
 Alpha virt. eigenvalues --    0.12604   0.14029   0.14802   0.15060   0.15207

  Beta  occ. eigenvalues --  -19.02155 -19.02101 -19.02032 -19.02016 -18.98636
  Beta  occ. eigenvalues --  -18.98630 -10.13007 -10.12952 -10.12443 -10.12402
  Beta  occ. eigenvalues --  -10.12385 -10.12190 -10.07595 -10.07303 -10.07288
  Beta  occ. eigenvalues --  -10.07284 -10.07230 -10.07127 -10.06484 -10.06428
  Beta  occ. eigenvalues --  -10.06304  -0.94743  -0.94564  -0.93866  -0.93738
  Beta  occ. eigenvalues --   -0.89112  -0.88951  -0.75483  -0.73745  -0.69254
  Beta  occ. eigenvalues --   -0.65568  -0.63599  -0.62380  -0.59917  -0.56258
  Beta  occ. eigenvalues --   -0.54008  -0.52070  -0.49479  -0.48080  -0.44220
  Beta  occ. eigenvalues --   -0.42042  -0.41446  -0.40766  -0.40466  -0.40248
  Beta  occ. eigenvalues --   -0.36438  -0.34418  -0.33831  -0.33623  -0.32087
  Beta  occ. eigenvalues --   -0.31893  -0.31778  -0.30693  -0.30192  -0.29802
  Beta  occ. eigenvalues --   -0.29731  -0.29614  -0.28937  -0.27848  -0.27381
  Beta  occ. eigenvalues --   -0.25832  -0.25493  -0.25348  -0.24485  -0.23967
  Beta  occ. eigenvalues --   -0.23505  -0.19445  -0.18923  -0.15978  -0.15059
  Beta  occ. eigenvalues --   -0.14352  -0.14028  -0.10457  -0.08813
  Beta virt. eigenvalues --    0.01300   0.07535   0.07787   0.08635   0.08903
  Beta virt. eigenvalues --    0.09884   0.10656   0.10727   0.11640   0.12284
  Beta virt. eigenvalues --    0.12356   0.13046   0.14047   0.14813   0.15216

 Mulliken charges and spin densities:
               1          2
     1  C   -0.146905   0.002827
     2  C    1.048953   0.075658
     3  C   -0.770688   0.055616
     4  C   -0.444546   0.048054
     5  O   -0.369430   0.016845
     6  C    0.564657  -0.013761
     7  C   -0.575748   0.118418
     8  O   -0.511024   0.133242
     9  C    0.407864  -0.003694
    10  C   -0.408678   0.043150
    11  O   -0.373281   0.016998
    12  C   -0.006712   0.077502
    13  C   -0.057517   0.070014
    14  C   -0.365307   0.051742
    15  O   -0.377864   0.018065
    16  C    0.470326  -0.006614
    17  C   -0.485769   0.128809
    18  O   -0.524818   0.139115
    19  C    0.160088  -0.029955
    20  C   -0.295033   0.061172
    21  O   -0.386183   0.019369
    22  H    0.167973   0.003384
    23  H    0.167899   0.003415
    24  H    0.140873   0.000050
    25  H    0.119864  -0.006278
    26  H    0.376856  -0.002373
    27  H    0.376956  -0.002435
    28  H    0.157039  -0.006962
    29  H    0.156236  -0.006492
    30  H    0.378044  -0.002496
    31  H    0.405875  -0.002385
 Sum of Mulliken charges =  -1.00000   1.00000

 Dipole moment (field-independent basis, Debye):
    X=             -2.8624    Y=              0.7332    Z=              0.2469  Tot=              2.9651
 Quadrupole moment (field-independent basis, Debye-Ang):
   XX=           -154.6683   YY=           -162.8753   ZZ=           -127.9291
   XY=              0.4790   XZ=              1.2671   YZ=             -6.1495

  Exact polarizability: 388.337   2.996 246.905 -11.593  24.123 108.872
 Approx polarizability: 612.354   6.401 466.555 -17.815  50.408 177.816

                      1                      2                      3
                      A                      A                      A
 Frequencies --     50.1025                65.7578                98.1184
 Red. masses --      5.5521                 7.5361                 1.0986
 Frc consts  --      0.0082                 0.0192                 0.0062
 IR Inten    --      0.7650                 0.0066                 0.0001

                      4                      5                      6
                      A                      A                      A
 Frequencies --    113.4377               129.1192               146.8609
 Red. masses --      6.8752                 6.9445                 7.8302
 Frc consts  --      0.0521                 0.0682                 0.0995
 IR Inten    --      0.1036                 0.0402                 0.7118

                      7                      8                      9
                      A                      A                      A
 Frequencies --    169.7706               196.6929               208.8920
 Red. masses --      7.7221                 4.9499                 5.7303
 Frc consts  --      0.1311                 0.1128                 0.1473
 IR Inten    --      0.2856                 0.0705                 0.4367

                     10                     11                     12
                      A                      A                      A
 Frequencies --    275.5832               279.3168               310.2684
 Red. masses --      5.6565                 4.1636                 6.8406
 Frc consts  --      0.2531                 0.1914                 0.3880
 IR Inten    --      0.8357                 1.4951                 0.2444

                     13                     14                     15
                      A                      A                      A
 Frequencies --    321.7840               372.6973               382.3195
 Red. masses --      5.4366                 6.5014                 7.9220
 Frc consts  --      0.3317                 0.5321                 0.6822
 IR Inten    --      1.2005                 0.0128                 0.3606

                     16                     17                     18
                      A                      A                      A
 Frequencies --    404.8900               416.5134               424.7620
 Red. masses --      5.7109                 6.4462                 7.3487
 Frc consts  --      0.5516                 0.6589                 0.7812
 IR Inten    --      6.8621                 0.6978                10.9314

                     19                     20                     21
                      A                      A                      A
 Frequencies --    436.2959               468.4831               471.0881
 Red. masses --      8.7122                10.7553                10.4020
 Frc consts  --      0.9771                 1.3908                 1.3601
 IR Inten    --      1.3551                18.5080                 0.2161

                     22                     23                     24
                      A                      A                      A
 Frequencies --    481.7712               490.4706               499.9125
 Red. masses --     10.3799                 9.4865                 4.9114
 Frc consts  --      1.4195                 1.3446                 0.7232
 IR Inten    --     26.8431                25.5188                 2.0215

                     25                     26                     27
                      A                      A                      A
 Frequencies --    538.3028               546.3010               563.1633
 Red. masses --      5.7087                 8.2880                 4.4203
 Frc consts  --      0.9746                 1.4573                 0.8260
 IR Inten    --      1.3055                 1.0538                 4.8766

                     28                     29                     30
                      A                      A                      A
 Frequencies --    618.2290               631.2271               658.4331
 Red. masses --      5.0210                 4.3447                 5.7919
 Frc consts  --      1.1307                 1.0200                 1.4794
 IR Inten    --      2.2270                 0.2382                 2.5947

                     31                     32                     33
                      A                      A                      A
 Frequencies --    681.2343               707.2808               730.0204
 Red. masses --      4.6572                 7.6262                 7.2211
 Frc consts  --      1.2734                 2.2477                 2.2674
 IR Inten    --     29.3978                 1.0336                25.8756

                     34                     35                     36
                      A                      A                      A
 Frequencies --    735.8706               743.2522               801.8158
 Red. masses --      9.0044                 6.3485                 7.9449
 Frc consts  --      2.8728                 2.0663                 3.0095
 IR Inten    --      0.9960                 2.9301                51.5742

                     37                     38                     39
                      A                      A                      A
 Frequencies --    817.2839               844.2928               849.6200
 Red. masses --      1.6917                 1.1306                 1.1480
 Frc consts  --      0.6658                 0.4748                 0.4883
 IR Inten    --     84.3286                99.5979                99.6241

                     40                     41                     42
                      A                      A                      A
 Frequencies --    854.7823               854.9246               865.7604
 Red. masses --      2.3507                 1.8217                 1.1042
 Frc consts  --      1.0120                 0.7845                 0.4876
 IR Inten    --     31.9741                39.8149                 3.2084

                     43                     44                     45
                      A                      A                      A
 Frequencies --    875.3946               903.8348               933.2766
 Red. masses --      1.0562                 1.3129                 5.6796
 Frc consts  --      0.4769                 0.6319                 2.9146
 IR Inten    --     27.5843                 0.0174                31.0001

                     46                     47                     48
                      A                      A                      A
 Frequencies --    976.9758               992.6217              1036.9375
 Red. masses --      7.9690                 2.5135                 2.2173
 Frc consts  --      4.4815                 1.4591                 1.4047
 IR Inten    --    171.7797                 9.9792                47.9590

                     49                     50                     51
                      A                      A                      A
 Frequencies --   1049.8555              1090.3732              1138.3936
 Red. masses --      1.4655                 2.6868                 2.0096
 Frc consts  --      0.9517                 1.8821                 1.5344
 IR Inten    --      0.8143                17.6362                12.5170

                     52                     53                     54
                      A                      A                      A
 Frequencies --   1206.0960              1229.4106              1255.0196
 Red. masses --      1.7615                 2.9305                 2.7344
 Frc consts  --      1.5097                 2.6097                 2.5375
 IR Inten    --     77.6856                52.3405                13.9922

                     55                     56                     57
                      A                      A                      A
 Frequencies --   1266.1017              1270.9184              1297.2758
 Red. masses --      2.9555                 6.4191                 6.3722
 Frc consts  --      2.7914                 6.1088                 6.3183
 IR Inten    --     35.1772                42.9428               178.8826

                     58                     59                     60
                      A                      A                      A
 Frequencies --   1319.2140              1332.6872              1353.0042
 Red. masses --      7.7469                 4.2913                 4.4289
 Frc consts  --      7.9435                 4.4905                 4.7769
 IR Inten    --    111.0362                 5.1018               483.7512

                     61                     62                     63
                      A                      A                      A
 Frequencies --   1355.4351              1362.9538              1386.6608
 Red. masses --      4.0427                 5.5672                 4.8495
 Frc consts  --      4.3760                 6.0933                 5.4940
 IR Inten    --     23.3266                92.7257                93.4219

                     64                     65                     66
                      A                      A                      A
 Frequencies --   1409.7394              1420.8237              1470.2220
 Red. masses --      1.3632                 3.8958                 1.9774
 Frc consts  --      1.5962                 4.6337                 2.5183
 IR Inten    --      0.3748                66.0713               177.7329

                     67                     68                     69
                      A                      A                      A
 Frequencies --   1473.6666              1490.5996              1496.2308
 Red. masses --      1.0446                 4.8520                 1.4313
 Frc consts  --      1.3366                 6.3517                 1.8879
 IR Inten    --      5.5673                42.9552                78.4645

                     70                     71                     72
                      A                      A                      A
 Frequencies --   1504.3159              1520.6894              1541.9100
 Red. masses --      1.5027                 6.1389                 1.7677
 Frc consts  --      2.0036                 8.3642                 2.4762
 IR Inten    --    546.2096               576.3336                 1.4208

                     73                     74                     75
                      A                      A                      A
 Frequencies --   1586.9909              1604.3184              1634.6012
 Red. masses --      3.5972                 1.8720                 3.1442
 Frc consts  --      5.3378                 2.8389                 4.9497
 IR Inten    --    330.0961                 7.5634                 0.4330

                     76                     77                     78
                      A                      A                      A
 Frequencies --   1649.7156              1669.1734              3013.7054
 Red. masses --      4.3830                 2.5875                 1.0354
 Frc consts  --      7.0281                 4.2474                 5.5406
 IR Inten    --      6.1940                 3.3560                96.3537

                     79                     80                     81
                      A                      A                      A
 Frequencies --   3056.4270              3088.9084              3097.5947
 Red. masses --      1.0994                 1.1002                 1.0703
 Frc consts  --      6.0511                 6.1850                 6.0509
 IR Inten    --     26.2529                68.1572               263.6366

                     82                     83                     84
                      A                      A                      A
 Frequencies --   3124.5103              3164.7541              3166.1370
 Red. masses --      1.0687                 1.0888                 1.0838
 Frc consts  --      6.1474                 6.4251                 6.4011
 IR Inten    --    688.6324                27.2197                34.8213

                     85                     86                     87
                      A                      A                      A
 Frequencies --   3170.3097              3181.5143              3183.5049
 Red. masses --      1.0746                 1.0720                 1.0933
 Frc consts  --      6.3635                 6.3929                 6.5282
 IR Inten    --     32.3751                 2.3847                27.9226

 - Thermochemistry -
 -------------------
 Temperature   298.150 Kelvin.  Pressure   1.00000 Atm.
 Atom     1 has atomic number  6 and mass  12.00000

 Molecular mass:   286.04774 amu.
 Principal axes and moments of inertia in atomic units:
                           1         2         3
     Eigenvalues --  3537.794766740.95821**********
           X            0.99844   0.03697   0.04194
           Y           -0.02945   0.98544  -0.16747
           Z           -0.04752   0.16597   0.98499
 This molecule is an asymmetric top.
 Rotational symmetry number  1.
 Warning -- assumption of classical behavior for rotation
           may cause significant error
 Rotational temperatures (Kelvin)      0.02448     0.01285     0.00844
 Rotational constants (GHZ):           0.51013     0.26773     0.17577
 Zero-point vibrational energy     583834.5 (Joules/Mol)
                                  139.53979 (Kcal/Mol)
 Warning -- explicit consideration of  28 degrees of freedom as
           vibrations may cause significant error
 Vibrational temperatures:     72.09    94.61   141.17   163.21   185.77
          (Kelvin)            211.30   244.26   283.00   300.55   396.50
                              401.87   446.41   462.98   536.23   550.07
                              582.55   599.27   611.14   627.73   674.04
                              677.79   693.16   705.68   719.26   774.50
                              786.01   810.27   889.49   908.19   947.34
                              980.14  1017.62  1050.34  1058.75  1069.37
                             1153.63  1175.89  1214.75  1222.41  1229.84
                             1230.05  1245.64  1259.50  1300.42  1342.78
                             1405.65  1428.16  1491.92  1510.51  1568.80
                             1637.89  1735.30  1768.85  1805.69  1821.64
                             1828.57  1866.49  1898.05  1917.44  1946.67
                             1950.17  1960.99  1995.10  2028.30  2044.25
                             2115.32  2120.28  2144.64  2152.74  2164.38
                             2187.93  2218.46  2283.33  2308.26  2351.83
                             2373.57  2401.57  4336.05  4397.52  4444.25
                             4456.75  4495.47  4553.38  4555.36  4561.37
                             4577.49  4580.35

 Zero-point correction=                           0.222371 (Hartree/Particle)
 Thermal correction to Energy=                    0.238592
 Thermal correction to Enthalpy=                  0.239536
 Thermal correction to Gibbs Free Energy=         0.178720
 Sum of electronic and zero-point Energies=          -1029.178904
 Sum of electronic and thermal Energies=             -1029.162683
 Sum of electronic and thermal Enthalpies=           -1029.161739
 Sum of electronic and thermal Free Energies=        -1029.222555

                     E (Thermal)             CV                S
                      KCal/Mol        Cal/Mol-Kelvin    Cal/Mol-Kelvin
 Total                  149.719             65.669            127.999
 Electronic               0.000              0.000              1.377
 Translational            0.889              2.981             42.851
 Rotational               0.889              2.981             33.859
 Vibrational            147.941             59.707             49.911
 Vibration     1          0.595              1.978              4.813
 Vibration     2          0.597              1.971              4.276
 Vibration     3          0.604              1.950              3.491
 Vibration     4          0.607              1.938              3.209
 Vibration     5          0.612              1.924              2.959
 Vibration     6          0.617              1.906              2.713
 Vibration     7          0.625              1.880              2.438
 Vibration     8          0.636              1.844              2.164
 Vibration     9          0.642              1.827              2.053
 Vibration    10          0.677              1.719              1.561
 Vibration    11          0.680              1.712              1.538
 Vibration    12          0.699              1.654              1.361
 Vibration    13          0.707              1.632              1.301
 Vibration    14          0.744              1.528              1.069
 Vibration    15          0.752              1.508              1.030
 Vibration    16          0.770              1.460              0.945
 Vibration    17          0.780              1.434              0.904
 Vibration    18          0.787              1.416              0.876
 Vibration    19          0.797              1.391              0.838
 Vibration    20          0.826              1.320              0.742
 Vibration    21          0.828              1.314              0.735
 Vibration    22          0.838              1.290              0.705
 Vibration    23          0.846              1.271              0.682
 Vibration    24          0.855              1.250              0.658
 Vibration    25          0.893              1.165              0.569
 Vibration    26          0.901              1.148              0.552
 Vibration    27          0.919              1.111              0.518
 Vibration    28          0.978              0.993              0.419

 Optimization completed.
    -- Stationary point found.
 Normal termination of Gaussian 16 at Sun Jan  7 08:43:21 2024.
