 Gaussian 16, Revision A.03,
 Gaussian 16:  ES64L-G16RevA.03 25-Dec-2016

 --------------------------------------
 #P UB3LYP/6-311++G(d,p) nosym opt freq
 --------------------------------------

 -------
 Radical
 -------
 Symbolic Z-matrix:
 Charge = -1 Multiplicity = 2

 SCF Done:  E(UB3LYP) =  -2019.78059291     A.U. after   23 cycles
 SCF Done:  E(UB3LYP) =  -2019.79555086     A.U. after   20 cycles
 SCF Done:  E(UB3LYP) =  -2019.79540493     A.U. after   24 cycles
 SCF Done:  E(UB3LYP) =  -2019.79899103     A.U. after   19 cycles
 SCF Done:  E(UB3LYP) =  -2019.79955606     A.U. after   17 cycles
 SCF Done:  E(UB3LYP) =  -2019.79991563     A.U. after   18 cycles
 SCF Done:  E(UB3LYP) =  -2019.80023762     A.U. after   24 cycles
 SCF Done:  E(UB3LYP) =  -2019.80045707     A.U. after   18 cycles
 SCF Done:  E(UB3LYP) =  -2019.80054158     A.U. after   17 cycles
 SCF Done:  E(UB3LYP) =  -2019.80061479     A.U. after   18 cycles
 SCF Done:  E(UB3LYP) =  -2019.80062929     A.U. after   17 cycles
 SCF Done:  E(UB3LYP) =  -2019.80063572     A.U. after   16 cycles
 SCF Done:  E(UB3LYP) =  -2019.80064594     A.U. after   18 cycles
 SCF Done:  E(UB3LYP) =  -2019.80065112     A.U. after   17 cycles
 SCF Done:  E(UB3LYP) =  -2019.80065167     A.U. after   13 cycles
 SCF Done:  E(UB3LYP) =  -2019.80065178     A.U. after   13 cycles
 Optimization completed.
    -- Stationary point found.
 Normal termination of Gaussian 16 at Wed Dec 20 09:12:40 2023.

 ----------------------------------------------------------------------
 #P Geom=AllCheck Guess=TCheck SCRF=Check GenChk UB3LYP/6-311++G(d,p) F
 req
 ----------------------------------------------------------------------

 Structure from the checkpoint file:  "074-rad.chk"
 -------
 Radical
 -------
 Charge = -1 Multiplicity = 2

                          Input orientation:
 ---------------------------------------------------------------------
 Center     Atomic      Atomic             Coordinates (Angstroms)
 Number     Number       Type             X           Y           Z
 ---------------------------------------------------------------------
      1          6           0        0.605711    1.290916   -0.895619
      2          6           0       -0.736642    0.822949   -0.580316
      3          6           0       -1.028609   -0.481724   -0.240834
      4          6           0        0.074838   -1.439204   -0.101222
      5          6           0        1.451301   -0.995702   -0.350374
      6          6           0        1.673094    0.323188   -0.686522
      7          8           0        0.827789    2.446674   -1.313667
      8          8           0       -0.157120   -2.631097    0.232670
      9         16           0        3.342276    0.952423   -1.030908
     10          6           0        3.498511    2.542645   -0.165440
     11          6           0        3.428496    3.729332   -0.886552
     12          6           0        3.786945    2.534393    1.195765
     13          6           0        3.995641    3.746595    1.852380
     14          6           0        3.657182    4.933712   -0.226372
     15          6           0        3.935146    4.944056    1.141092
     16          8           0        3.506163    1.210744   -2.469060
     17          8           0        4.318932    0.071280   -0.360523
     18          1           0        3.187104    3.691812   -1.939852
     19          1           0        3.861809    1.592988    1.725617
     20          1           0        3.607042    5.866160   -0.778055
     21          1           0        4.215154    3.752779    2.914519
     22          1           0        4.102509    5.886156    1.652647
     23         16           0       -2.038210    2.073712   -0.787820
     24          6           0       -1.484830    3.557021    0.104544
     25          6           0       -0.966258    4.636302   -0.602317
     26          6           0       -1.681815    3.615915    1.481007
     27          6           0       -1.338263    4.780289    2.166609
     28          6           0       -0.642360    5.801219    0.088521
     29          6           0       -0.823236    5.872808    1.470230
     30          8           0       -2.185185    2.433555   -2.205466
     31          8           0       -3.236162    1.626258   -0.050137
     32          1           0       -0.814853    4.543497   -1.668717
     33          1           0       -2.112510    2.768884    2.000206
     34          1           0       -1.482895    4.835667    3.240115
     35          1           0       -0.237658    6.650254   -0.451432
     36          1           0       -0.560231    6.779763    2.004587
     37          6           0       -2.406070   -1.048015   -0.008258
     38          6           0        2.506331   -2.064908   -0.225838
     39          1           0       -2.842615   -0.657929    0.914388
     40          1           0       -2.320537   -2.130443    0.067887
     41          1           0       -3.095471   -0.778000   -0.808477
     42          1           0        2.006499   -3.027170   -0.130922
     43          1           0        3.133134   -1.899383    0.653837
     44          1           0        3.180266   -2.071122   -1.082803
 ---------------------------------------------------------------------

 SCF Done:  E(UB3LYP) =  -2019.80065178     A.U. after    2 cycles

 Alpha  occ. eigenvalues --  -88.94407 -88.94397 -19.00661 -19.00634 -19.00490
 Alpha  occ. eigenvalues --  -19.00481 -18.98350 -18.98211 -10.14390 -10.12734
 Alpha  occ. eigenvalues --  -10.11775 -10.11755 -10.10716 -10.10715 -10.10578
 Alpha  occ. eigenvalues --  -10.10575 -10.10458 -10.10454 -10.10262 -10.10246
 Alpha  occ. eigenvalues --  -10.10091 -10.10076 -10.09997 -10.09992 -10.09936
 Alpha  occ. eigenvalues --  -10.09933 -10.05487 -10.05477  -8.00755  -8.00742
 Alpha  occ. eigenvalues --   -5.97014  -5.97001  -5.96939  -5.96926  -5.96871
 Alpha  occ. eigenvalues --   -5.96858  -0.99961  -0.99914  -0.91741  -0.90922
 Alpha  occ. eigenvalues --   -0.89403  -0.89365  -0.78818  -0.78810  -0.74727
 Alpha  occ. eigenvalues --   -0.70454  -0.68894  -0.68672  -0.67713  -0.67688
 Alpha  occ. eigenvalues --   -0.63533  -0.62440  -0.59143  -0.55944  -0.55685
 Alpha  occ. eigenvalues --   -0.53643  -0.53630  -0.51610  -0.51201  -0.47423
 Alpha  occ. eigenvalues --   -0.47376  -0.44390  -0.44319  -0.41452  -0.40420
 Alpha  occ. eigenvalues --   -0.39263  -0.38737  -0.38686  -0.38034  -0.37082
 Alpha  occ. eigenvalues --   -0.36926  -0.36136  -0.35404  -0.35224  -0.34558
 Alpha  occ. eigenvalues --   -0.34217  -0.34102  -0.33492  -0.31604  -0.31040
 Alpha  occ. eigenvalues --   -0.31016  -0.30225  -0.29863  -0.29510  -0.29338
 Alpha  occ. eigenvalues --   -0.29030  -0.28800  -0.27615  -0.27577  -0.27087
 Alpha  occ. eigenvalues --   -0.26753  -0.26274  -0.23082  -0.23061  -0.21870
 Alpha  occ. eigenvalues --   -0.21685  -0.20463  -0.20012  -0.19658  -0.19640
 Alpha  occ. eigenvalues --   -0.18678  -0.18210  -0.18152  -0.18067  -0.17931
 Alpha  occ. eigenvalues --   -0.16136  -0.15147  -0.13753  -0.07016
 Alpha virt. eigenvalues --    0.04278   0.04391   0.05254   0.05967   0.06327
 Alpha virt. eigenvalues --    0.06756   0.07018   0.07181   0.08385   0.08872
 Alpha virt. eigenvalues --    0.09357   0.09744   0.10686   0.10782   0.11187

  Beta  occ. eigenvalues --  -88.94409 -88.94398 -19.00653 -19.00626 -19.00488
  Beta  occ. eigenvalues --  -19.00479 -18.97660 -18.97481 -10.14315 -10.12639
  Beta  occ. eigenvalues --  -10.11775 -10.11755 -10.10716 -10.10715 -10.10579
  Beta  occ. eigenvalues --  -10.10576 -10.10457 -10.10453 -10.10262 -10.10246
  Beta  occ. eigenvalues --  -10.10091 -10.10076 -10.09902 -10.09901 -10.09776
  Beta  occ. eigenvalues --  -10.09770 -10.05500 -10.05490  -8.00756  -8.00743
  Beta  occ. eigenvalues --   -5.97015  -5.97002  -5.96940  -5.96927  -5.96874
  Beta  occ. eigenvalues --   -5.96861  -0.99944  -0.99903  -0.90838  -0.89461
  Beta  occ. eigenvalues --   -0.89391  -0.89302  -0.78816  -0.78807  -0.74139
  Beta  occ. eigenvalues --   -0.70239  -0.68873  -0.68603  -0.67711  -0.67687
  Beta  occ. eigenvalues --   -0.63083  -0.62308  -0.59005  -0.55906  -0.55186
  Beta  occ. eigenvalues --   -0.53639  -0.53626  -0.51447  -0.51085  -0.47254
  Beta  occ. eigenvalues --   -0.47222  -0.44259  -0.44220  -0.41288  -0.40206
  Beta  occ. eigenvalues --   -0.39206  -0.38724  -0.38680  -0.37985  -0.37052
  Beta  occ. eigenvalues --   -0.36917  -0.36075  -0.35373  -0.35221  -0.34398
  Beta  occ. eigenvalues --   -0.34079  -0.33812  -0.32654  -0.31131  -0.30809
  Beta  occ. eigenvalues --   -0.30648  -0.29849  -0.29785  -0.29391  -0.29323
  Beta  occ. eigenvalues --   -0.28938  -0.28000  -0.27581  -0.27557  -0.26557
  Beta  occ. eigenvalues --   -0.26146  -0.24472  -0.23013  -0.22999  -0.21826
  Beta  occ. eigenvalues --   -0.21530  -0.20396  -0.19888  -0.19580  -0.19550
  Beta  occ. eigenvalues --   -0.18383  -0.18132  -0.18078  -0.17856  -0.15485
  Beta  occ. eigenvalues --   -0.15463  -0.14499  -0.13189
  Beta virt. eigenvalues --    0.00116   0.04425   0.04661   0.05256   0.06007
  Beta virt. eigenvalues --    0.06460   0.06805   0.07181   0.08011   0.08391
  Beta virt. eigenvalues --    0.08873   0.09372   0.09746   0.10694   0.11030

 Mulliken charges and spin densities:
               1          2
     1  C   -0.255230   0.023096
     2  C   -0.242556   0.074774
     3  C    0.849086   0.141803
     4  C   -1.780274   0.010513
     5  C    0.864583   0.140555
     6  C   -0.245595   0.075291
     7  O   -0.188108   0.211783
     8  O   -0.306672   0.320385
     9  S    0.518279  -0.012193
    10  C   -0.007644  -0.004988
    11  C   -0.231025   0.015154
    12  C    0.177109  -0.004655
    13  C   -0.494659   0.002211
    14  C   -0.286148  -0.002356
    15  C   -0.327769  -0.000125
    16  O   -0.066171   0.003359
    17  O   -0.097714  -0.001172
    18  H    0.265362   0.000323
    19  H    0.237349  -0.000019
    20  H    0.175012  -0.000053
    21  H    0.169533   0.000056
    22  H    0.142538  -0.000037
    23  S    0.496073  -0.013353
    24  C    0.016081  -0.006152
    25  C   -0.223643   0.016567
    26  C    0.176574  -0.003937
    27  C   -0.511004   0.002216
    28  C   -0.236574  -0.001919
    29  C   -0.358911  -0.000271
    30  O   -0.071717   0.003380
    31  O   -0.095806  -0.001141
    32  H    0.267848   0.000405
    33  H    0.238070   0.000101
    34  H    0.168879   0.000020
    35  H    0.172215  -0.000063
    36  H    0.143444  -0.000039
    37  C   -0.578766  -0.003825
    38  C   -0.577452  -0.004123
    39  H    0.180334   0.007042
    40  H    0.186856  -0.002328
    41  H    0.183744   0.004520
    42  H    0.185843  -0.002249
    43  H    0.181987   0.007030
    44  H    0.186636   0.004413
 Sum of Mulliken charges =  -1.00000   1.00000

 Dipole moment (field-independent basis, Debye):
    X=             -1.7266    Y=             -0.9853    Z=              6.6615  Tot=              6.9518
 Quadrupole moment (field-independent basis, Debye-Ang):
   XX=           -236.2734   YY=           -194.5418   ZZ=           -191.8229
   XY=              9.5698   XZ=              7.3816   YZ=             15.0315

  Exact polarizability: 294.158  21.276 388.315  -1.680   8.318 243.564
 Approx polarizability: 416.127  43.574 621.469  -8.307 -42.905 460.586

                      1                      2                      3
                      A                      A                      A
 Frequencies --      6.2907                17.8446                29.3252
 Red. masses --      5.2700                 5.9955                 4.4007
 Frc consts  --      0.0001                 0.0011                 0.0022
 IR Inten    --      0.0315                 0.6225                 0.2101

                      4                      5                      6
                      A                      A                      A
 Frequencies --     32.5732                44.1540                51.1812
 Red. masses --      6.4142                 4.2297                 4.0399
 Frc consts  --      0.0040                 0.0049                 0.0062
 IR Inten    --      0.6590                 0.0707                 0.9700

                      7                      8                      9
                      A                      A                      A
 Frequencies --     64.2502                84.2067                91.1266
 Red. masses --      4.5865                 5.5560                 5.3079
 Frc consts  --      0.0112                 0.0232                 0.0260
 IR Inten    --      0.9154                 2.7411                 3.9653

                     10                     11                     12
                      A                      A                      A
 Frequencies --    127.3163               139.6397               142.8555
 Red. masses --      6.6269                 1.0825                 1.1427
 Frc consts  --      0.0633                 0.0124                 0.0137
 IR Inten    --      1.3834                 0.0001                 0.8449

                     13                     14                     15
                      A                      A                      A
 Frequencies --    167.4839               179.7631               190.9268
 Red. masses --      5.6967                 6.7672                 7.0114
 Frc consts  --      0.0942                 0.1288                 0.1506
 IR Inten    --      0.3971                 0.6804                 6.0404

                     16                     17                     18
                      A                      A                      A
 Frequencies --    196.4079               206.2412               221.8674
 Red. masses --      6.2018                 7.1026                 7.9356
 Frc consts  --      0.1410                 0.1780                 0.2302
 IR Inten    --      2.0692                 0.8751                 3.5519

                     19                     20                     21
                      A                      A                      A
 Frequencies --    228.3840               249.5386               271.6644
 Red. masses --      6.0068                12.7911                11.1469
 Frc consts  --      0.1846                 0.4693                 0.4847
 IR Inten    --      2.0627                 0.5421                 4.0137

                     22                     23                     24
                      A                      A                      A
 Frequencies --    278.0771               303.6908               306.3688
 Red. masses --      8.0893                 7.3172                 8.4349
 Frc consts  --      0.3685                 0.3976                 0.4665
 IR Inten    --      0.2364                 2.4477                 0.1038

                     25                     26                     27
                      A                      A                      A
 Frequencies --    347.3334               358.1079               376.8539
 Red. masses --      6.0878                 3.3885                 4.9847
 Frc consts  --      0.4327                 0.2560                 0.4171
 IR Inten    --      0.0557                 0.8860                 6.9980

                     28                     29                     30
                      A                      A                      A
 Frequencies --    384.2786               409.3900               411.2539
 Red. masses --      5.7403                 2.8816                 2.9001
 Frc consts  --      0.4994                 0.2846                 0.2890
 IR Inten    --      4.8452                 0.1037                 0.0469

                     31                     32                     33
                      A                      A                      A
 Frequencies --    427.1367               430.0080               434.4362
 Red. masses --      5.6749                 9.3909                 6.4514
 Frc consts  --      0.6100                 1.0231                 0.7174
 IR Inten    --      7.3068                 0.8778                 0.8002

                     34                     35                     36
                      A                      A                      A
 Frequencies --    460.3846               463.5383               485.1829
 Red. masses --      5.3914                 5.3067                 8.0529
 Frc consts  --      0.6733                 0.6718                 1.1169
 IR Inten    --     23.9299                 7.8224                 0.7303

                     37                     38                     39
                      A                      A                      A
 Frequencies --    510.4117               537.8120               555.1521
 Red. masses --      7.3707                11.3884                 6.6305
 Frc consts  --      1.1314                 1.9408                 1.2040
 IR Inten    --     15.9191                71.3136               144.9824

                     40                     41                     42
                      A                      A                      A
 Frequencies --    575.0652               590.6984               603.8223
 Red. masses --      5.5799                 7.6455                 8.3022
 Frc consts  --      1.0872                 1.5718                 1.7835
 IR Inten    --      1.9999                 6.0121               225.5693

                     43                     44                     45
                      A                      A                      A
 Frequencies --    628.0880               628.4045               679.0617
 Red. masses --      6.4260                 6.4198                 8.5711
 Frc consts  --      1.4936                 1.4937                 2.3287
 IR Inten    --      0.0048                 0.0317                60.1257

                     46                     47                     48
                      A                      A                      A
 Frequencies --    697.8720               699.1086               702.1230
 Red. masses --      1.7510                 1.8328                 5.2285
 Frc consts  --      0.5024                 0.5278                 1.5186
 IR Inten    --    121.6015                16.5057                 1.8324

                     49                     50                     51
                      A                      A                      A
 Frequencies --    705.7960               719.7702               732.2146
 Red. masses --      6.4744                 6.7332                 5.6676
 Frc consts  --      1.9002                 2.0552                 1.7903
 IR Inten    --      9.3566                77.0342                28.9759

                     52                     53                     54
                      A                      A                      A
 Frequencies --    758.2026               759.0201               774.0757
 Red. masses --      1.9431                 1.8524                 7.7278
 Frc consts  --      0.6582                 0.6288                 2.7282
 IR Inten    --     13.1643                 3.2272                16.0879

                     55                     56                     57
                      A                      A                      A
 Frequencies --    842.1424               845.6900               869.8150
 Red. masses --      1.2481                 1.2469                 4.0657
 Frc consts  --      0.5215                 0.5254                 1.8124
 IR Inten    --      0.0223                 1.8189                 4.7319

                     58                     59                     60
                      A                      A                      A
 Frequencies --    927.4134               929.2587               977.5179
 Red. masses --      1.3829                 1.3790                 1.4327
 Frc consts  --      0.7008                 0.7016                 0.8066
 IR Inten    --      0.0917                 1.1663                 0.0765

                     61                     62                     63
                      A                      A                      A
 Frequencies --    978.7806               980.6440               986.6684
 Red. masses --      1.3936                 5.4826                 2.7711
 Frc consts  --      0.7866                 3.1064                 1.5895
 IR Inten    --      0.3933                 0.0753                 4.6103

                     64                     65                     66
                      A                      A                      A
 Frequencies --    989.0366               991.8499              1015.0230
 Red. masses --      1.3043                 1.3018                 6.0784
 Frc consts  --      0.7517                 0.7545                 3.6897
 IR Inten    --      0.0204                 0.1030                 9.2571

                     67                     68                     69
                      A                      A                      A
 Frequencies --   1015.5166              1040.1075              1040.7687
 Red. masses --      6.0499                 3.7630                 3.3475
 Frc consts  --      3.6760                 2.3985                 2.1364
 IR Inten    --      0.9571                35.5872                17.5677

                     70                     71                     72
                      A                      A                      A
 Frequencies --   1045.7185              1046.1619              1054.0220
 Red. masses --      1.4894                 1.5840                 2.0160
 Frc consts  --      0.9596                 1.0214                 1.3196
 IR Inten    --      6.6181                 1.7392                71.3704

                     73                     74                     75
                      A                      A                      A
 Frequencies --   1062.6097              1064.8512              1094.5177
 Red. masses --      3.0426                 4.1921                 2.9363
 Frc consts  --      2.0241                 2.8007                 2.0725
 IR Inten    --    170.1639                29.5051                 8.3417

                     76                     77                     78
                      A                      A                      A
 Frequencies --   1095.0248              1095.7194              1107.6986
 Red. masses --      1.5776                 1.7745                 3.8918
 Frc consts  --      1.1145                 1.2552                 2.8135
 IR Inten    --      7.0463                21.0209                77.7792

                     79                     80                     81
                      A                      A                      A
 Frequencies --   1107.8333              1163.9525              1177.0343
 Red. masses --      3.9462                 6.8257                 1.1146
 Frc consts  --      2.8535                 5.4484                 0.9098
 IR Inten    --     92.8813                29.8918                 0.0104

                     82                     83                     84
                      A                      A                      A
 Frequencies --   1177.6250              1194.4293              1195.7031
 Red. masses --      1.1152                 1.1488                 1.1492
 Frc consts  --      0.9112                 0.9656                 0.9681
 IR Inten    --      0.1621                 1.3004                 7.4945

                     85                     86                     87
                      A                      A                      A
 Frequencies --   1228.4626              1239.2291              1251.0681
 Red. masses --      6.9001                17.3200                 7.1712
 Frc consts  --      6.1352                15.6712                 6.6131
 IR Inten    --    138.8087                29.9634               188.2377

                     88                     89                     90
                      A                      A                      A
 Frequencies --   1331.1630              1331.6002              1342.3743
 Red. masses --      2.2354                 2.1531                 2.2160
 Frc consts  --      2.3338                 2.2494                 2.3527
 IR Inten    --      0.7422                 0.2071                 1.9325

                     91                     92                     93
                      A                      A                      A
 Frequencies --   1343.0275              1362.7376              1398.2027
 Red. masses --      2.3075                 4.8714                 1.2877
 Frc consts  --      2.4523                 5.3300                 1.4832
 IR Inten    --      4.9757                87.3726                39.0273

                     94                     95                     96
                      A                      A                      A
 Frequencies --   1404.0582              1464.2883              1471.9215
 Red. masses --      1.2225                 1.1807                 1.7658
 Frc consts  --      1.4199                 1.4916                 2.2540
 IR Inten    --     18.8442               123.5101                 7.6815

                     97                     98                     99
                      A                      A                      A
 Frequencies --   1472.7996              1473.1269              1482.6017
 Red. masses --      2.1548                 2.1589                 1.6690
 Frc consts  --      2.7539                 2.7603                 2.1615
 IR Inten    --      1.3371                20.9200                41.9872

                    100                    101                    102
                      A                      A                      A
 Frequencies --   1492.1698              1498.8227              1505.0174
 Red. masses --      1.0986                 1.3086                 4.2596
 Frc consts  --      1.4412                 1.7320                 5.6846
 IR Inten    --     13.4158                13.8023               145.9359

                    103                    104                    105
                      A                      A                      A
 Frequencies --   1506.7430              1506.9512              1545.1574
 Red. masses --      2.0605                 2.0692                 9.0011
 Frc consts  --      2.7562                 2.7685                12.6617
 IR Inten    --      0.3534                 5.1924                66.7596

                    106                    107                    108
                      A                      A                      A
 Frequencies --   1603.0252              1622.0766              1622.5623
 Red. masses --      9.8647                 5.4645                 5.4555
 Frc consts  --     14.9353                 8.4711                 8.4623
 IR Inten    --    137.9722                 0.3920                 2.2777

                    109                    110                    111
                      A                      A                      A
 Frequencies --   1626.9420              1627.3305              3046.5613
 Red. masses --      5.9345                 5.9390                 1.0383
 Frc consts  --      9.2551                 9.2665                 5.6781
 IR Inten    --      0.2755                 0.8502                33.9787

                    112                    113                    114
                      A                      A                      A
 Frequencies --   3047.0299              3099.6063              3099.9140
 Red. masses --      1.0384                 1.0954                 1.0953
 Frc consts  --      5.6801                 6.2005                 6.2014
 IR Inten    --     14.7318                 8.7533                20.2927

                    115                    116                    117
                      A                      A                      A
 Frequencies --   3138.6530              3139.2188              3152.1585
 Red. masses --      1.1028                 1.1027                 1.0850
 Frc consts  --      6.4007                 6.4024                 6.3521
 IR Inten    --      0.8809                12.6143                 0.1149

                    118                    119                    120
                      A                      A                      A
 Frequencies --   3152.4200              3166.3516              3166.8952
 Red. masses --      1.0851                 1.0898                 1.0898
 Frc consts  --      6.3533                 6.4372                 6.4394
 IR Inten    --      1.7853                 5.2429                39.1930

                    121                    122                    123
                      A                      A                      A
 Frequencies --   3177.3943              3177.8614              3197.6779
 Red. masses --      1.0952                 1.0952                 1.0932
 Frc consts  --      6.5147                 6.5163                 6.5860
 IR Inten    --      2.2185                60.4697                 4.1637

                    124                    125                    126
                      A                      A                      A
 Frequencies --   3198.1420              3219.2526              3221.3691
 Red. masses --      1.0931                 1.0928                 1.0928
 Frc consts  --      6.5875                 6.6729                 6.6816
 IR Inten    --      5.9569                 2.8736                 3.7801

 - Thermochemistry -
 -------------------
 Temperature   298.150 Kelvin.  Pressure   1.00000 Atm.
 Atom     1 has atomic number  6 and mass  12.00000

 Molecular mass:   416.03883 amu.
 Principal axes and moments of inertia in atomic units:
                           1         2         3
     Eigenvalues --  9626.07984********************
           X            0.98143   0.19116   0.01602
           Y           -0.18522   0.96605  -0.18012
           Z           -0.04991   0.17381   0.98351
 This molecule is an asymmetric top.
 Rotational symmetry number  1.
 Warning -- assumption of classical behavior for rotation
           may cause significant error
 Rotational temperatures (Kelvin)      0.00900     0.00833     0.00513
 Rotational constants (GHZ):           0.18748     0.17354     0.10698
 Zero-point vibrational energy     835848.0 (Joules/Mol)
                                  199.77248 (Kcal/Mol)
 Warning -- explicit consideration of  42 degrees of freedom as
           vibrations may cause significant error
 Vibrational temperatures:      9.05    25.67    42.19    46.87    63.53
          (Kelvin)             73.64    92.44   121.15   131.11   183.18
                              200.91   205.54   240.97   258.64   274.70
                              282.59   296.74   319.22   328.59   359.03
                              390.86   400.09   436.94   440.80   499.74
                              515.24   542.21   552.89   589.02   591.70
                              614.55   618.69   625.06   662.39   666.93
                              698.07   734.37   773.79   798.74   827.39
                              849.88   868.77   903.68   904.13   977.02
                             1004.08  1005.86  1010.20  1015.48  1035.59
                             1053.49  1090.88  1092.06  1113.72  1211.66
                             1216.76  1251.47  1334.34  1337.00  1406.43
                             1408.25  1410.93  1419.60  1423.00  1427.05
                             1460.39  1461.10  1496.48  1497.43  1504.56
                             1505.19  1516.50  1528.86  1532.08  1574.77
                             1575.50  1576.50  1593.73  1593.92  1674.67
                             1693.49  1694.34  1718.52  1720.35  1767.48
                             1782.97  1800.01  1915.25  1915.88  1931.38
                             1932.32  1960.68  2011.70  2020.13  2106.78
                             2117.77  2119.03  2119.50  2133.13  2146.90
                             2156.47  2165.38  2167.87  2168.17  2223.14
                             2306.40  2333.81  2334.51  2340.81  2341.37
                             4383.32  4384.00  4459.64  4460.08  4515.82
                             4516.64  4535.25  4535.63  4555.67  4556.46
                             4571.56  4572.23  4600.75  4601.41  4631.79
                             4634.83

 Zero-point correction=                           0.318358 (Hartree/Particle)
 Thermal correction to Energy=                    0.344130
 Thermal correction to Enthalpy=                  0.345075
 Thermal correction to Gibbs Free Energy=         0.258530
 Sum of electronic and zero-point Energies=          -2019.482294
 Sum of electronic and thermal Energies=             -2019.456521
 Sum of electronic and thermal Enthalpies=           -2019.455577
 Sum of electronic and thermal Free Energies=        -2019.542122

                     E (Thermal)             CV                S
                      KCal/Mol        Cal/Mol-Kelvin    Cal/Mol-Kelvin
 Total                  215.945             97.606            182.148
 Electronic               0.000              0.000              1.377
 Translational            0.889              2.981             43.967
 Rotational               0.889              2.981             35.778
 Vibrational            214.168             91.645            101.025
 Vibration     1          0.593              1.987              8.932
 Vibration     2          0.593              1.986              6.861
 Vibration     3          0.593              1.984              5.875
 Vibration     4          0.594              1.983              5.666
 Vibration     5          0.595              1.980              5.063
 Vibration     6          0.595              1.977              4.771
 Vibration     7          0.597              1.971              4.322
 Vibration     8          0.601              1.960              3.790
 Vibration     9          0.602              1.955              3.636
 Vibration    10          0.611              1.926              2.986
 Vibration    11          0.615              1.914              2.809
 Vibration    12          0.616              1.910              2.765
 Vibration    13          0.624              1.882              2.464
 Vibration    14          0.629              1.867              2.331
 Vibration    15          0.634              1.852              2.219
 Vibration    16          0.636              1.845              2.166
 Vibration    17          0.641              1.831              2.077
 Vibration    18          0.648              1.808              1.944
 Vibration    19          0.651              1.798              1.892
 Vibration    20          0.662              1.764              1.734
 Vibration    21          0.675              1.725              1.586
 Vibration    22          0.679              1.714              1.545
 Vibration    23          0.695              1.667              1.396
 Vibration    24          0.697              1.662              1.382
 Vibration    25          0.725              1.581              1.178
 Vibration    26          0.733              1.559              1.130
 Vibration    27          0.747              1.519              1.052
 Vibration    28          0.753              1.504              1.022
 Vibration    29          0.774              1.450              0.929
 Vibration    30          0.775              1.446              0.922
 Vibration    31          0.789              1.411              0.868
 Vibration    32          0.791              1.405              0.859
 Vibration    33          0.795              1.395              0.844
 Vibration    34          0.818              1.338              0.765
 Vibration    35          0.821              1.331              0.756
 Vibration    36          0.841              1.283              0.696
 Vibration    37          0.866              1.227              0.633
 Vibration    38          0.893              1.166              0.570
 Vibration    39          0.911              1.128              0.534
 Vibration    40          0.931              1.085              0.495
 Vibration    41          0.948              1.052              0.466
 Vibration    42          0.962              1.024              0.443

                           ! Non-Optimized Parameters !
 Normal termination of Gaussian 16 at Wed Dec 20 19:58:54 2023.
