 Gaussian 16, Revision A.03,
 Gaussian 16:  ES64L-G16RevA.03 25-Dec-2016

 ----------------------------------------------------------------
 #P UB3LYP/6-311++G(d,p) SCRF=(PCM,Solvent=n,n-DiMethylFormamide)
 ----------------------------------------------------------------

 ------------------
 Quinone PCM in DMF
 ------------------
 Symbolic Z-matrix:
 Charge =  0 Multiplicity = 1

                         Standard orientation:
 ---------------------------------------------------------------------
 Center     Atomic      Atomic             Coordinates (Angstroms)
 Number     Number       Type             X           Y           Z
 ---------------------------------------------------------------------
      1          6           0       -2.701825    1.241891   -0.757465
      2          6           0       -2.306193    2.652589   -0.948965
      3          6           0       -1.100901    3.090387   -0.571468
      4          6           0       -0.099048    2.189154    0.047229
      5          6           0       -0.514843    0.774697    0.305865
      6          6           0       -1.727143    0.322984   -0.058299
      7          8           0       -3.768788    0.819194   -1.155119
      8          8           0        1.018065    2.592181    0.307624
      9          1           0       -3.044902    3.290579   -1.420684
     10          1           0       -0.776355    4.115497   -0.710821
     11         16           0        0.675144   -0.296004    1.214411
     12          6           0       -2.309755   -1.046104    0.223436
     13          8           0       -3.001139   -1.249231    1.183532
     14          8           0       -2.046978   -1.900688   -0.763490
     15          6           0       -2.581877   -3.233402   -0.591399
     16          1           0       -2.304484   -3.772298   -1.493832
     17          1           0       -3.665465   -3.191215   -0.482130
     18          1           0       -2.135779   -3.693852    0.290214
     19          6           0        2.123329   -0.384299    0.152142
     20          6           0        3.220010    0.428617    0.426776
     21          6           0        2.125935   -1.302960   -0.897110
     22          6           0        4.349813    0.316600   -0.379340
     23          6           0        3.259156   -1.395148   -1.700874
     24          6           0        4.367277   -0.588550   -1.440538
     25          8           0        1.021366    0.396792    2.452153
     26          8           0        0.066370   -1.628880    1.238610
     27          1           0        3.178517    1.127740    1.250866
     28          1           0        1.265577   -1.938183   -1.066944
     29          1           0        5.215486    0.936384   -0.177684
     30          1           0        3.280839   -2.103851   -2.520381
     31          1           0        5.249490   -0.668429   -2.065593
 ---------------------------------------------------------------------

 SCF Done:  E(UB3LYP) =  -1389.24994982     A.U. after   17 cycles

 The electronic state is 1-A.
 Alpha  occ. eigenvalues --  -89.08139 -19.19575 -19.16669 -19.16280 -19.14613
 Alpha  occ. eigenvalues --  -19.14567 -19.14460 -10.34179 -10.31466 -10.31401
 Alpha  occ. eigenvalues --  -10.26519 -10.26374 -10.23384 -10.23022 -10.22963
 Alpha  occ. eigenvalues --  -10.22838 -10.20903 -10.20704 -10.20081 -10.19865
 Alpha  occ. eigenvalues --  -10.19811  -8.14499  -6.10762  -6.10703  -6.10592
 Alpha  occ. eigenvalues --   -1.14460  -1.13950  -1.09918  -1.09605  -1.05801
 Alpha  occ. eigenvalues --   -1.03920  -0.89714  -0.89127  -0.83320  -0.79877
 Alpha  occ. eigenvalues --   -0.77729  -0.76752  -0.73461  -0.70708  -0.66962
 Alpha  occ. eigenvalues --   -0.64762  -0.63642  -0.60607  -0.59491  -0.56500
 Alpha  occ. eigenvalues --   -0.56073  -0.54990  -0.53347  -0.51315  -0.50921
 Alpha  occ. eigenvalues --   -0.50571  -0.50015  -0.49058  -0.48570  -0.47508
 Alpha  occ. eigenvalues --   -0.47046  -0.46766  -0.45809  -0.45099  -0.44928
 Alpha  occ. eigenvalues --   -0.44397  -0.43514  -0.41709  -0.40090  -0.39399
 Alpha  occ. eigenvalues --   -0.38448  -0.37422  -0.37109  -0.36159  -0.34900
 Alpha  occ. eigenvalues --   -0.34136  -0.33295  -0.33180  -0.32692  -0.31667
 Alpha  occ. eigenvalues --   -0.31551  -0.29730  -0.28600  -0.28153
 Alpha virt. eigenvalues --   -0.15925  -0.07353  -0.05064  -0.03677  -0.03023
 Alpha virt. eigenvalues --   -0.02614  -0.00899   0.00192   0.00363   0.01186
 Alpha virt. eigenvalues --    0.01528   0.01897   0.02360   0.02738   0.03229

  Beta  occ. eigenvalues --  -89.08139 -19.19575 -19.16669 -19.16280 -19.14613
  Beta  occ. eigenvalues --  -19.14567 -19.14460 -10.34179 -10.31466 -10.31401
  Beta  occ. eigenvalues --  -10.26519 -10.26374 -10.23384 -10.23022 -10.22963
  Beta  occ. eigenvalues --  -10.22838 -10.20903 -10.20704 -10.20081 -10.19865
  Beta  occ. eigenvalues --  -10.19811  -8.14499  -6.10762  -6.10703  -6.10592
  Beta  occ. eigenvalues --   -1.14460  -1.13950  -1.09918  -1.09605  -1.05801
  Beta  occ. eigenvalues --   -1.03920  -0.89714  -0.89127  -0.83320  -0.79877
  Beta  occ. eigenvalues --   -0.77729  -0.76752  -0.73461  -0.70708  -0.66962
  Beta  occ. eigenvalues --   -0.64762  -0.63642  -0.60607  -0.59491  -0.56500
  Beta  occ. eigenvalues --   -0.56073  -0.54990  -0.53347  -0.51315  -0.50921
  Beta  occ. eigenvalues --   -0.50571  -0.50015  -0.49058  -0.48570  -0.47508
  Beta  occ. eigenvalues --   -0.47046  -0.46766  -0.45809  -0.45099  -0.44928
  Beta  occ. eigenvalues --   -0.44397  -0.43514  -0.41709  -0.40090  -0.39399
  Beta  occ. eigenvalues --   -0.38448  -0.37422  -0.37109  -0.36159  -0.34900
  Beta  occ. eigenvalues --   -0.34136  -0.33295  -0.33180  -0.32692  -0.31667
  Beta  occ. eigenvalues --   -0.31551  -0.29730  -0.28600  -0.28153
  Beta virt. eigenvalues --   -0.15925  -0.07353  -0.05064  -0.03677  -0.03023
  Beta virt. eigenvalues --   -0.02614  -0.00899   0.00192   0.00363   0.01186
  Beta virt. eigenvalues --    0.01528   0.01897   0.02360   0.02738   0.03229

 Mulliken charges and spin densities:
               1          2
     1  C   -0.211723  -0.000000
     2  C   -0.130560  -0.000000
     3  C    0.161931   0.000000
     4  C   -0.271625  -0.000000
     5  C   -0.131082   0.000000
     6  C    0.555042  -0.000000
     7  O   -0.202120  -0.000000
     8  O   -0.191364   0.000000
     9  H    0.257359   0.000000
    10  H    0.263604  -0.000000
    11  S    0.522529  -0.000000
    12  C   -0.686373   0.000000
    13  O   -0.155336   0.000000
    14  O    0.075921  -0.000000
    15  C   -0.228172   0.000000
    16  H    0.175448   0.000000
    17  H    0.185182   0.000000
    18  H    0.191955  -0.000000
    19  C    0.721482   0.000000
    20  C   -0.126230   0.000000
    21  C   -0.377098  -0.000000
    22  C   -0.451535   0.000000
    23  C   -0.478912   0.000000
    24  C   -0.326897   0.000000
    25  O   -0.121098   0.000000
    26  O   -0.123260   0.000000
    27  H    0.266984   0.000000
    28  H    0.185121  -0.000000
    29  H    0.220784  -0.000000
    30  H    0.230247   0.000000
    31  H    0.199798   0.000000
 Sum of Mulliken charges =  -0.00000   0.00000

 Dipole moment (field-independent basis, Debye):
    X=              3.0847    Y=              1.5026    Z=             -7.6025  Tot=              8.3410
 Quadrupole moment (field-independent basis, Debye-Ang):
   XX=           -122.6673   YY=           -108.2307   ZZ=           -137.4392
   XY=             -6.6380   XZ=             -4.3645   YZ=              4.8949

 Normal termination of Gaussian 16 at Wed Jan 24 22:55:57 2024.
