 Gaussian 16, Revision A.03,
 Gaussian 16:  ES64L-G16RevA.03 25-Dec-2016

 --------------------------------------
 #P UB3LYP/6-311++G(d,p) nosym opt freq
 --------------------------------------

 --------
 Oxidized
 --------
 Symbolic Z-matrix:
 Charge =  0 Multiplicity = 1

 SCF Done:  E(UB3LYP) =  -1389.22967066     A.U. after   19 cycles
 SCF Done:  E(UB3LYP) =  -1389.22967057     A.U. after   12 cycles
 SCF Done:  E(UB3LYP) =  -1389.22967063     A.U. after   12 cycles
 SCF Done:  E(UB3LYP) =  -1389.22967069     A.U. after   11 cycles
 Optimization completed.
    -- Stationary point found.
 Normal termination of Gaussian 16 at Wed Jan 10 17:06:51 2024.

 ----------------------------------------------------------------------
 #P Geom=AllCheck Guess=TCheck SCRF=Check GenChk UB3LYP/6-311++G(d,p) F
 req
 ----------------------------------------------------------------------

 Structure from the checkpoint file:  "097.chk"
 --------
 Oxidized
 --------
 Charge =  0 Multiplicity = 1

                          Input orientation:
 ---------------------------------------------------------------------
 Center     Atomic      Atomic             Coordinates (Angstroms)
 Number     Number       Type             X           Y           Z
 ---------------------------------------------------------------------
      1          6           0        1.205838    4.260661    5.324884
      2          6           0        1.552718    4.016078    3.909568
      3          6           0        1.076854    2.952410    3.254538
      4          6           0        0.174345    1.971884    3.904740
      5          6           0       -0.128900    2.175160    5.356356
      6          6           0        0.351067    3.233929    6.030871
      7          8           0        1.579846    5.257065    5.910128
      8          8           0       -0.309346    1.057850    3.265396
      9          1           0        2.197444    4.754555    3.446728
     10          1           0        1.301966    2.752975    2.212833
     11         16           0       -1.120972    0.871776    6.195943
     12          6           0        0.202637    3.511889    7.512059
     13          8           0        1.042419    3.176336    8.301506
     14          8           0       -0.880077    4.244844    7.764838
     15          6           0       -1.095015    4.578025    9.155755
     16          1           0       -1.987821    5.198109    9.167271
     17          1           0       -0.237416    5.125113    9.547038
     18          1           0       -1.247823    3.664025    9.729787
     19          6           0       -2.705703    0.876377    5.346203
     20          6           0       -2.958240   -0.084682    4.370724
     21          6           0       -3.661297    1.820083    5.721878
     22          6           0       -4.206223   -0.094140    3.753250
     23          6           0       -4.900526    1.804420    5.087220
     24          6           0       -5.171180    0.848772    4.107531
     25          8           0       -0.447025   -0.402049    5.961409
     26          8           0       -1.350585    1.366724    7.556110
     27          1           0       -2.190573   -0.799996    4.108747
     28          1           0       -3.440866    2.537301    6.502632
     29          1           0       -4.423743   -0.838123    2.996043
     30          1           0       -5.656621    2.528875    5.366160
     31          1           0       -6.139761    0.836983    3.620614
 ---------------------------------------------------------------------

 SCF Done:  E(UB3LYP) =  -1389.22967069     A.U. after    2 cycles

 Alpha  occ. eigenvalues --  -89.07134 -19.18965 -19.16552 -19.16267 -19.13370
 Alpha  occ. eigenvalues --  -19.13227 -19.13217 -10.33159 -10.31406 -10.31383
 Alpha  occ. eigenvalues --  -10.26184 -10.26105 -10.23882 -10.23770 -10.23608
 Alpha  occ. eigenvalues --  -10.22997 -10.21273 -10.20911 -10.20769 -10.20537
 Alpha  occ. eigenvalues --  -10.20381  -8.13476  -6.09715  -6.09689  -6.09591
 Alpha  occ. eigenvalues --   -1.13471  -1.12850  -1.09756  -1.09523  -1.04762
 Alpha  occ. eigenvalues --   -1.02532  -0.89825  -0.89429  -0.83748  -0.79958
 Alpha  occ. eigenvalues --   -0.78170  -0.76614  -0.73534  -0.70772  -0.67091
 Alpha  occ. eigenvalues --   -0.64925  -0.64080  -0.60674  -0.59315  -0.56405
 Alpha  occ. eigenvalues --   -0.56040  -0.54896  -0.52906  -0.51746  -0.50396
 Alpha  occ. eigenvalues --   -0.49943  -0.49480  -0.48870  -0.48171  -0.47507
 Alpha  occ. eigenvalues --   -0.47236  -0.46423  -0.45697  -0.45566  -0.45291
 Alpha  occ. eigenvalues --   -0.44401  -0.43543  -0.41097  -0.40346  -0.39813
 Alpha  occ. eigenvalues --   -0.38194  -0.37949  -0.35773  -0.35350  -0.33916
 Alpha  occ. eigenvalues --   -0.33465  -0.33209  -0.32439  -0.32043  -0.31407
 Alpha  occ. eigenvalues --   -0.30797  -0.29438  -0.28733  -0.28412
 Alpha virt. eigenvalues --   -0.16003  -0.07616  -0.05334  -0.04082  -0.03091
 Alpha virt. eigenvalues --   -0.01903  -0.01601  -0.00869  -0.00326   0.00806
 Alpha virt. eigenvalues --    0.01149   0.01570   0.02063   0.02887   0.03336

  Beta  occ. eigenvalues --  -89.07134 -19.18965 -19.16552 -19.16267 -19.13370
  Beta  occ. eigenvalues --  -19.13227 -19.13217 -10.33159 -10.31406 -10.31383
  Beta  occ. eigenvalues --  -10.26184 -10.26105 -10.23882 -10.23770 -10.23608
  Beta  occ. eigenvalues --  -10.22997 -10.21273 -10.20911 -10.20769 -10.20537
  Beta  occ. eigenvalues --  -10.20381  -8.13476  -6.09715  -6.09689  -6.09591
  Beta  occ. eigenvalues --   -1.13471  -1.12850  -1.09756  -1.09523  -1.04762
  Beta  occ. eigenvalues --   -1.02532  -0.89825  -0.89429  -0.83748  -0.79958
  Beta  occ. eigenvalues --   -0.78170  -0.76614  -0.73534  -0.70772  -0.67091
  Beta  occ. eigenvalues --   -0.64925  -0.64080  -0.60674  -0.59315  -0.56405
  Beta  occ. eigenvalues --   -0.56040  -0.54896  -0.52906  -0.51746  -0.50396
  Beta  occ. eigenvalues --   -0.49943  -0.49480  -0.48870  -0.48171  -0.47507
  Beta  occ. eigenvalues --   -0.47236  -0.46423  -0.45697  -0.45566  -0.45291
  Beta  occ. eigenvalues --   -0.44401  -0.43543  -0.41097  -0.40346  -0.39813
  Beta  occ. eigenvalues --   -0.38194  -0.37949  -0.35773  -0.35350  -0.33916
  Beta  occ. eigenvalues --   -0.33465  -0.33209  -0.32439  -0.32043  -0.31407
  Beta  occ. eigenvalues --   -0.30797  -0.29438  -0.28733  -0.28412
  Beta virt. eigenvalues --   -0.16003  -0.07616  -0.05334  -0.04082  -0.03091
  Beta virt. eigenvalues --   -0.01903  -0.01601  -0.00869  -0.00326   0.00806
  Beta virt. eigenvalues --    0.01149   0.01570   0.02063   0.02887   0.03336

 Mulliken charges and spin densities:
               1          2
     1  C   -0.264610  -0.000000
     2  C   -0.089403  -0.000000
     3  C    0.170363   0.000000
     4  C   -0.285199  -0.000000
     5  C   -0.215354  -0.000000
     6  C    0.505448   0.000000
     7  O   -0.152848   0.000000
     8  O   -0.149174  -0.000000
     9  H    0.230655  -0.000000
    10  H    0.236718  -0.000000
    11  S    0.459494  -0.000000
    12  C   -0.694906  -0.000000
    13  O   -0.091502   0.000000
    14  O    0.080575  -0.000000
    15  C   -0.225081  -0.000000
    16  H    0.151139   0.000000
    17  H    0.180346   0.000000
    18  H    0.195692   0.000000
    19  C    0.704632  -0.000000
    20  C   -0.160232   0.000000
    21  C   -0.351358  -0.000000
    22  C   -0.419436   0.000000
    23  C   -0.447325   0.000000
    24  C   -0.290490   0.000000
    25  O   -0.038329  -0.000000
    26  O   -0.044536  -0.000000
    27  H    0.272024   0.000000
    28  H    0.174255   0.000000
    29  H    0.191900   0.000000
    30  H    0.197956  -0.000000
    31  H    0.168586   0.000000
 Sum of Mulliken charges =  -0.00000  -0.00000

 Dipole moment (field-independent basis, Debye):
    X=             -3.7983    Y=              3.0155    Z=             -3.8826  Tot=              6.2125
 Quadrupole moment (field-independent basis, Debye-Ang):
   XX=           -108.0688   YY=           -121.2400   ZZ=           -165.9666
   XY=             -9.4287   XZ=            -26.5328   YZ=             13.7671

  Exact polarizability: 210.618  33.678 197.860  18.450  42.971 194.494
 Approx polarizability: 309.597  38.130 362.996  47.461 101.153 314.217

                      1                      2                      3
                      A                      A                      A
 Frequencies --     21.9293                35.0399                43.7994
 Red. masses --      6.0212                 5.1850                 5.0602
 Frc consts  --      0.0017                 0.0038                 0.0057
 IR Inten    --      0.1780                 0.0877                 0.6040

                      4                      5                      6
                      A                      A                      A
 Frequencies --     63.9477                70.1119                84.5139
 Red. masses --      5.0850                 4.7717                 7.1639
 Frc consts  --      0.0123                 0.0138                 0.0301
 IR Inten    --      4.8109                 4.0251                 2.3856

                      7                      8                      9
                      A                      A                      A
 Frequencies --    113.4769               137.0492               141.6493
 Red. masses --      2.6726                 2.2517                 2.9461
 Frc consts  --      0.0203                 0.0249                 0.0348
 IR Inten    --      1.3402                 1.8167                 0.1223

                     10                     11                     12
                      A                      A                      A
 Frequencies --    163.8801               178.6262               197.5631
 Red. masses --      7.8620                 6.6425                 6.0019
 Frc consts  --      0.1244                 0.1249                 0.1380
 IR Inten    --      0.5716                 1.4358                 3.8607

                     13                     14                     15
                      A                      A                      A
 Frequencies --    209.6775               244.5530               253.6595
 Red. masses --      8.0283                11.6307                 7.8879
 Frc consts  --      0.2080                 0.4098                 0.2990
 IR Inten    --      0.8579                 2.2500                 1.9333

                     16                     17                     18
                      A                      A                      A
 Frequencies --    264.6202               295.1831               301.6452
 Red. masses --      4.7700                 6.0275                 8.0745
 Frc consts  --      0.1968                 0.3094                 0.4329
 IR Inten    --      0.6926                 7.9880                 1.9537

                     19                     20                     21
                      A                      A                      A
 Frequencies --    311.0145               357.5150               411.2202
 Red. masses --      7.1127                 6.9349                 2.9524
 Frc consts  --      0.4054                 0.5223                 0.2942
 IR Inten    --      8.0149                 9.5065                 0.4459

                     22                     23                     24
                      A                      A                      A
 Frequencies --    413.5451               445.1714               453.4103
 Red. masses --      7.5341                11.0562                 5.2818
 Frc consts  --      0.7592                 1.2909                 0.6398
 IR Inten    --      9.2322                12.8049                13.6518

                     25                     26                     27
                      A                      A                      A
 Frequencies --    492.5717               508.6896               544.4320
 Red. masses --      7.7899                 8.5550                 5.6704
 Frc consts  --      1.1136                 1.3043                 0.9903
 IR Inten    --     30.5828                28.6656                 6.1961

                     28                     29                     30
                      A                      A                      A
 Frequencies --    588.6907               598.2779               626.4488
 Red. masses --      6.4843                 8.3785                 6.4473
 Frc consts  --      1.3240                 1.7669                 1.4907
 IR Inten    --     40.0343               115.2236                 0.0550

                     31                     32                     33
                      A                      A                      A
 Frequencies --    639.0708               670.9369               701.0165
 Red. masses --      3.0013                 8.5376                 2.1169
 Frc consts  --      0.7222                 2.2644                 0.6129
 IR Inten    --      4.1288                14.5269                35.2690

                     34                     35                     36
                      A                      A                      A
 Frequencies --    705.6868               721.7168               766.1541
 Red. masses --      6.1858                 7.1226                 1.6312
 Frc consts  --      1.8150                 2.1859                 0.5641
 IR Inten    --     14.5121                53.3079                23.1539

                     37                     38                     39
                      A                      A                      A
 Frequencies --    791.4801               806.3524               855.0250
 Red. masses --      6.5138                 9.4773                 1.2450
 Frc consts  --      2.4042                 3.6306                 0.5363
 IR Inten    --     17.7683                 5.2025                 0.3152

                     40                     41                     42
                      A                      A                      A
 Frequencies --    860.7976               879.9078               907.2287
 Red. masses --      2.1108                 9.7284                 6.8260
 Frc consts  --      0.9215                 4.4378                 3.3102
 IR Inten    --     42.4275                11.9149                21.6584

                     43                     44                     45
                      A                      A                      A
 Frequencies --    946.8495               985.8425               994.2451
 Red. masses --      1.3510                 7.0901                 1.3816
 Frc consts  --      0.7136                 4.0599                 0.8047
 IR Inten    --      0.0858                26.1561                 0.1380

                     46                     47                     48
                      A                      A                      A
 Frequencies --   1013.2439              1014.3915              1014.9189
 Red. masses --      1.3906                 4.9452                 1.2612
 Frc consts  --      0.8412                 2.9981                 0.7654
 IR Inten    --      0.2979                 2.7456                 0.0279

                     49                     50                     51
                      A                      A                      A
 Frequencies --   1040.1190              1060.7552              1079.0876
 Red. masses --      3.6563                 4.0423                 3.7205
 Frc consts  --      2.3305                 2.6799                 2.5525
 IR Inten    --      9.8756                93.0698                71.4815

                     52                     53                     54
                      A                      A                      A
 Frequencies --   1101.5684              1114.9894              1121.4706
 Red. masses --      1.5664                 1.5809                 5.6565
 Frc consts  --      1.1199                 1.1579                 4.1915
 IR Inten    --      7.1094                68.5063               145.4375

                     55                     56                     57
                      A                      A                      A
 Frequencies --   1169.0450              1185.8606              1200.8275
 Red. masses --      1.2800                 1.1215                 1.1568
 Frc consts  --      1.0307                 0.9293                 0.9829
 IR Inten    --      0.7659                 0.2616                 4.6217

                     58                     59                     60
                      A                      A                      A
 Frequencies --   1206.9059              1241.8276              1278.7868
 Red. masses --      1.5837                 4.3211                 2.7829
 Frc consts  --      1.3592                 3.9262                 2.6813
 IR Inten    --      9.1775               193.5638               135.3321

                     61                     62                     63
                      A                      A                      A
 Frequencies --   1290.4100              1296.7428              1333.5015
 Red. masses --     14.3947                 6.1258                 2.5704
 Frc consts  --     14.1224                 6.0691                 2.6930
 IR Inten    --     85.7012               296.2685                 0.0781

                     64                     65                     66
                      A                      A                      A
 Frequencies --   1347.8826              1387.8917              1467.9552
 Red. masses --      1.9639                 1.8575                 1.2058
 Frc consts  --      2.1022                 2.1081                 1.5310
 IR Inten    --      1.6135                 3.9881                15.6275

                     67                     68                     69
                      A                      A                      A
 Frequencies --   1477.1672              1484.2032              1495.2391
 Red. masses --      2.1487                 1.0439                 1.0451
 Frc consts  --      2.7624                 1.3549                 1.3766
 IR Inten    --     17.2305                10.5550                 8.6073

                     70                     71                     72
                      A                      A                      A
 Frequencies --   1506.5246              1621.4127              1624.7531
 Red. masses --      2.0131                 5.2979                 5.7835
 Frc consts  --      2.6920                 8.2062                 8.9954
 IR Inten    --      3.3785                 3.1280                 0.2672

                     73                     74                     75
                      A                      A                      A
 Frequencies --   1636.6725              1681.6376              1727.1238
 Red. masses --     10.9088                 8.3595                11.2893
 Frc consts  --     17.2167                13.9283                19.8411
 IR Inten    --     14.5059                 4.8402                30.3063

                     76                     77                     78
                      A                      A                      A
 Frequencies --   1733.9937              1805.0687              3058.0931
 Red. masses --     12.0373                12.0118                 1.0287
 Frc consts  --     21.3243                23.0593                 5.6682
 IR Inten    --    357.3346               269.3576                28.1585

                     79                     80                     81
                      A                      A                      A
 Frequencies --   3138.5689              3165.8851              3170.3112
 Red. masses --      1.1081                 1.1071                 1.0865
 Frc consts  --      6.4310                 6.5380                 6.4341
 IR Inten    --      9.1905                 9.4886                 0.6433

                     82                     83                     84
                      A                      A                      A
 Frequencies --   3181.0981              3182.6556              3191.4163
 Red. masses --      1.0876                 1.0899                 1.0945
 Frc consts  --      6.4843                 6.5048                 6.5682
 IR Inten    --      0.1120                 8.9729                 9.3847

                     85                     86                     87
                      A                      A                      A
 Frequencies --   3198.1268              3202.0964              3218.8603
 Red. masses --      1.0997                 1.0949                 1.0935
 Frc consts  --      6.6272                 6.6146                 6.6756
 IR Inten    --      0.9134                 5.5109                 3.9930

 - Thermochemistry -
 -------------------
 Temperature   298.150 Kelvin.  Pressure   1.00000 Atm.
 Atom     1 has atomic number  6 and mass  12.00000

 Molecular mass:   306.01981 amu.
 Principal axes and moments of inertia in atomic units:
                           1         2         3
     Eigenvalues --  4080.546957514.840039155.22109
           X            0.72798  -0.49513  -0.47423
           Y            0.59322   0.10812   0.79775
           Z            0.34372   0.86206  -0.37243
 This molecule is an asymmetric top.
 Rotational symmetry number  1.
 Warning -- assumption of classical behavior for rotation
           may cause significant error
 Rotational temperatures (Kelvin)      0.02123     0.01153     0.00946
 Rotational constants (GHZ):           0.44228     0.24016     0.19713
 Zero-point vibrational energy     569861.0 (Joules/Mol)
                                  136.20004 (Kcal/Mol)
 Warning -- explicit consideration of  29 degrees of freedom as
           vibrations may cause significant error
 Vibrational temperatures:     31.55    50.41    63.02    92.01   100.88
          (Kelvin)            121.60   163.27   197.18   203.80   235.79
                              257.00   284.25   301.68   351.86   364.96
                              380.73   424.70   434.00   447.48   514.38
                              591.65   595.00   640.50   652.36   708.70
                              731.89   783.32   846.99   860.79   901.32
                              919.48   965.33  1008.61  1015.33  1038.39
                             1102.32  1138.76  1160.16  1230.19  1238.50
                             1265.99  1305.30  1362.31  1418.41  1430.50
                             1457.83  1459.48  1460.24  1496.50  1526.19
                             1552.57  1584.91  1604.22  1613.55  1682.00
                             1706.19  1727.72  1736.47  1786.71  1839.89
                             1856.61  1865.72  1918.61  1939.30  1996.87
                             2112.06  2125.31  2135.44  2151.32  2167.55
                             2332.85  2337.66  2354.81  2419.50  2484.95
                             2494.83  2597.09  4399.91  4515.70  4555.00
                             4561.37  4576.89  4579.13  4591.74  4601.39
                             4607.10  4631.22

 Zero-point correction=                           0.217049 (Hartree/Particle)
 Thermal correction to Energy=                    0.236145
 Thermal correction to Enthalpy=                  0.237089
 Thermal correction to Gibbs Free Energy=         0.167889
 Sum of electronic and zero-point Energies=          -1389.012622
 Sum of electronic and thermal Energies=             -1388.993526
 Sum of electronic and thermal Enthalpies=           -1388.992582
 Sum of electronic and thermal Free Energies=        -1389.061782

                     E (Thermal)             CV                S
                      KCal/Mol        Cal/Mol-Kelvin    Cal/Mol-Kelvin
 Total                  148.183             70.162            145.644
 Electronic               0.000              0.000              0.000
 Translational            0.889              2.981             43.052
 Rotational               0.889              2.981             33.995
 Vibrational            146.406             64.200             68.597
 Vibration     1          0.593              1.985              6.451
 Vibration     2          0.594              1.982              5.521
 Vibration     3          0.595              1.980              5.079
 Vibration     4          0.597              1.972              4.332
 Vibration     5          0.598              1.968              4.150
 Vibration     6          0.601              1.960              3.783
 Vibration     7          0.607              1.938              3.209
 Vibration     8          0.614              1.916              2.845
 Vibration     9          0.615              1.912              2.781
 Vibration    10          0.623              1.887              2.505
 Vibration    11          0.629              1.869              2.343
 Vibration    12          0.637              1.843              2.156
 Vibration    13          0.642              1.826              2.046
 Vibration    14          0.660              1.772              1.770
 Vibration    15          0.665              1.757              1.705
 Vibration    16          0.671              1.738              1.631
 Vibration    17          0.689              1.683              1.444
 Vibration    18          0.694              1.671              1.408
 Vibration    19          0.700              1.653              1.357
 Vibration    20          0.733              1.560              1.133
 Vibration    21          0.775              1.446              0.922
 Vibration    22          0.777              1.441              0.914
 Vibration    23          0.805              1.372              0.811
 Vibration    24          0.812              1.353              0.786
 Vibration    25          0.848              1.266              0.677
 Vibration    26          0.864              1.231              0.637
 Vibration    27          0.900              1.152              0.556
 Vibration    28          0.946              1.056              0.470
 Vibration    29          0.956              1.035              0.453

 Optimization completed.
    -- Stationary point found.
 Normal termination of Gaussian 16 at Wed Jan 10 17:55:19 2024.
