 Gaussian 16, Revision A.03,
 Gaussian 16:  ES64L-G16RevA.03 25-Dec-2016

 --------------------------------------
 #P UB3LYP/6-311++G(d,p) nosym opt freq
 --------------------------------------

 -------
 Reduced
 -------
 Symbolic Z-matrix:
 Charge = -2 Multiplicity = 1

 SCF Done:  E(UB3LYP) =  -1029.16853753     A.U. after   42 cycles
 SCF Done:  E(UB3LYP) =  -1029.23171864     A.U. after   36 cycles
 SCF Done:  E(UB3LYP) =  -1029.31125076     A.U. after   23 cycles
 SCF Done:  E(UB3LYP) =  -1029.33162922     A.U. after   17 cycles
 SCF Done:  E(UB3LYP) =  -1029.33920177     A.U. after   15 cycles
 SCF Done:  E(UB3LYP) =  -1029.34043798     A.U. after   15 cycles
 SCF Done:  E(UB3LYP) =  -1029.34182800     A.U. after   14 cycles
 SCF Done:  E(UB3LYP) =  -1029.34183920     A.U. after   16 cycles
 SCF Done:  E(UB3LYP) =  -1029.34208615     A.U. after   16 cycles
 SCF Done:  E(UB3LYP) =  -1029.34210285     A.U. after   12 cycles
 SCF Done:  E(UB3LYP) =  -1029.34211715     A.U. after   12 cycles
 SCF Done:  E(UB3LYP) =  -1029.34211726     A.U. after   11 cycles
 SCF Done:  E(UB3LYP) =  -1029.34211756     A.U. after   13 cycles
 SCF Done:  E(UB3LYP) =  -1029.34211782     A.U. after   13 cycles
 SCF Done:  E(UB3LYP) =  -1029.34211809     A.U. after   13 cycles
 SCF Done:  E(UB3LYP) =  -1029.34211863     A.U. after   14 cycles
 SCF Done:  E(UB3LYP) =  -1029.34211900     A.U. after   13 cycles
 SCF Done:  E(UB3LYP) =  -1029.34211931     A.U. after   13 cycles
 SCF Done:  E(UB3LYP) =  -1029.34211945     A.U. after   11 cycles
 Optimization completed.
    -- Stationary point found.
 Normal termination of Gaussian 16 at Thu Dec 21 22:09:28 2023.

 ----------------------------------------------------------------------
 #P Geom=AllCheck Guess=TCheck SCRF=Check GenChk UB3LYP/6-311++G(d,p) F
 req
 ----------------------------------------------------------------------

 Structure from the checkpoint file:  "206-an.chk"
 -------
 Reduced
 -------
 Charge = -2 Multiplicity = 1

                          Input orientation:
 ---------------------------------------------------------------------
 Center     Atomic      Atomic             Coordinates (Angstroms)
 Number     Number       Type             X           Y           Z
 ---------------------------------------------------------------------
      1          6           0       -4.556305    0.889368    0.339374
      2          6           0       -3.186049    0.278901    0.186166
      3          6           0       -3.054000   -1.118569   -0.082697
      4          6           0       -1.824933   -1.711810   -0.247967
      5          8           0       -1.740712   -3.052884   -0.501275
      6          6           0       -0.619761   -0.928654   -0.150060
      7          6           0        0.656077   -1.537460   -0.314851
      8          8           0        0.759334   -2.848268   -0.565832
      9          6           0        1.820158   -0.723840   -0.207402
     10          6           0        3.132704   -1.297333   -0.369301
     11          8           0        3.260128   -2.635046   -0.628458
     12          6           0        4.253727   -0.506798   -0.264525
     13          6           0        4.140290    0.887569    0.004612
     14          6           0        2.908131    1.477768    0.166444
     15          8           0        2.821071    2.819071    0.423412
     16          6           0        1.704579    0.689929    0.065671
     17          6           0        0.426169    1.295640    0.233745
     18          8           0        0.322905    2.606500    0.493403
     19          6           0       -0.737373    0.483193    0.122623
     20          6           0       -2.051740    1.058614    0.279874
     21          8           0       -2.167296    2.403425    0.518874
     22          1           0       -5.029836    1.103361   -0.632829
     23          1           0       -4.501194    1.834507    0.884243
     24          1           0       -5.232067    0.211821    0.878760
     25          1           0       -3.943094   -1.740394   -0.155470
     26          1           0       -0.745397   -3.228120   -0.574923
     27          1           0        2.306333   -2.973879   -0.653264
     28          1           0        5.229754   -0.966666   -0.391340
     29          1           0        5.028802    1.507403    0.086088
     30          1           0        1.825855    2.991451    0.499493
     31          1           0       -1.206260    2.731199    0.557414
 ---------------------------------------------------------------------

 SCF Done:  E(UB3LYP) =  -1029.34211945     A.U. after    2 cycles

 Alpha  occ. eigenvalues --  -18.88071 -18.88013 -18.87966 -18.87965 -18.83146
 Alpha  occ. eigenvalues --  -18.83092  -9.98297  -9.98194  -9.98175  -9.98017
 Alpha  occ. eigenvalues --   -9.97109  -9.97034  -9.95871  -9.93327  -9.92893
 Alpha  occ. eigenvalues --   -9.92859  -9.92836  -9.92751  -9.92439  -9.92393
 Alpha  occ. eigenvalues --   -9.92202  -0.80073  -0.79891  -0.79331  -0.79178
 Alpha  occ. eigenvalues --   -0.72937  -0.72722  -0.61067  -0.59391  -0.55410
 Alpha  occ. eigenvalues --   -0.51707  -0.49490  -0.48394  -0.46426  -0.42690
 Alpha  occ. eigenvalues --   -0.39752  -0.37918  -0.35119  -0.33462  -0.29922
 Alpha  occ. eigenvalues --   -0.27929  -0.27243  -0.26499  -0.26162  -0.25879
 Alpha  occ. eigenvalues --   -0.22635  -0.21045  -0.20493  -0.20144  -0.18510
 Alpha  occ. eigenvalues --   -0.17336  -0.17278  -0.16937  -0.16261  -0.16112
 Alpha  occ. eigenvalues --   -0.16068  -0.16031  -0.14994  -0.14554  -0.13612
 Alpha  occ. eigenvalues --   -0.11912  -0.11407  -0.11249  -0.10840  -0.09513
 Alpha  occ. eigenvalues --   -0.09032  -0.05739  -0.05174  -0.01521  -0.01491
 Alpha  occ. eigenvalues --   -0.00094   0.00163   0.02533   0.04248   0.10424
 Alpha virt. eigenvalues --    0.15424   0.16807   0.18093   0.18336   0.18740
 Alpha virt. eigenvalues --    0.19996   0.20960   0.21160   0.21406   0.21738
 Alpha virt. eigenvalues --    0.23249   0.23466   0.24666   0.25359   0.25852

  Beta  occ. eigenvalues --  -18.88071 -18.88013 -18.87966 -18.87965 -18.83146
  Beta  occ. eigenvalues --  -18.83092  -9.98297  -9.98194  -9.98175  -9.98017
  Beta  occ. eigenvalues --   -9.97109  -9.97034  -9.95871  -9.93327  -9.92893
  Beta  occ. eigenvalues --   -9.92859  -9.92836  -9.92751  -9.92439  -9.92393
  Beta  occ. eigenvalues --   -9.92202  -0.80073  -0.79891  -0.79331  -0.79178
  Beta  occ. eigenvalues --   -0.72937  -0.72722  -0.61067  -0.59391  -0.55410
  Beta  occ. eigenvalues --   -0.51707  -0.49490  -0.48394  -0.46426  -0.42690
  Beta  occ. eigenvalues --   -0.39752  -0.37918  -0.35119  -0.33462  -0.29922
  Beta  occ. eigenvalues --   -0.27929  -0.27243  -0.26499  -0.26162  -0.25879
  Beta  occ. eigenvalues --   -0.22635  -0.21045  -0.20493  -0.20144  -0.18510
  Beta  occ. eigenvalues --   -0.17336  -0.17278  -0.16937  -0.16261  -0.16112
  Beta  occ. eigenvalues --   -0.16068  -0.16031  -0.14994  -0.14554  -0.13612
  Beta  occ. eigenvalues --   -0.11912  -0.11407  -0.11249  -0.10840  -0.09513
  Beta  occ. eigenvalues --   -0.09032  -0.05739  -0.05174  -0.01521  -0.01491
  Beta  occ. eigenvalues --   -0.00094   0.00163   0.02533   0.04248   0.10424
  Beta virt. eigenvalues --    0.15424   0.16807   0.18093   0.18336   0.18740
  Beta virt. eigenvalues --    0.19996   0.20960   0.21160   0.21406   0.21738
  Beta virt. eigenvalues --    0.23249   0.23466   0.24666   0.25359   0.25852

 Mulliken charges and spin densities:
               1          2
     1  C   -0.265485   0.000000
     2  C    0.919009   0.000000
     3  C   -0.307390   0.000000
     4  C   -0.437007  -0.000000
     5  O   -0.443572  -0.000000
     6  C    0.568566  -0.000000
     7  C   -0.529069   0.000000
     8  O   -0.652492  -0.000000
     9  C    0.417573  -0.000000
    10  C   -0.432028   0.000000
    11  O   -0.448781   0.000000
    12  C   -0.018051  -0.000000
    13  C   -0.069719  -0.000000
    14  C   -0.424807   0.000000
    15  O   -0.453436  -0.000000
    16  C    0.459489  -0.000000
    17  C   -0.408694  -0.000000
    18  O   -0.674127   0.000000
    19  C    0.166196  -0.000000
    20  C   -0.782413  -0.000000
    21  O   -0.468426   0.000000
    22  H    0.090333  -0.000000
    23  H    0.163919   0.000000
    24  H    0.095866  -0.000000
    25  H    0.085473  -0.000000
    26  H    0.401284   0.000000
    27  H    0.400179  -0.000000
    28  H    0.099277  -0.000000
    29  H    0.098895   0.000000
    30  H    0.404675   0.000000
    31  H    0.444761  -0.000000
 Sum of Mulliken charges =  -2.00000   0.00000

 Dipole moment (field-independent basis, Debye):
    X=             -4.4941    Y=              1.0676    Z=              0.4140  Tot=              4.6376
 Quadrupole moment (field-independent basis, Debye-Ang):
   XX=           -205.2747   YY=           -191.5923   ZZ=           -135.1275
   XY=              0.5429   XZ=              2.6153   YZ=            -10.9590

  Exact polarizability: 440.215   4.275 248.901  -6.176  21.713 129.840
 Approx polarizability: 701.322  12.992 464.658 -12.356  49.665 203.925

                      1                      2                      3
                      A                      A                      A
 Frequencies --     40.5248                53.0524                64.5270
 Red. masses --      1.0322                 5.3825                 9.4180
 Frc consts  --      0.0010                 0.0089                 0.0231
 IR Inten    --      2.1160                 0.5920                 0.0408

                      4                      5                      6
                      A                      A                      A
 Frequencies --    103.5866               114.4724               131.6140
 Red. masses --      9.3417                 9.1098                 7.6413
 Frc consts  --      0.0591                 0.0703                 0.0780
 IR Inten    --      0.0338                 0.0667                 0.0050

                      7                      8                      9
                      A                      A                      A
 Frequencies --    167.9774               196.2607               204.8235
 Red. masses --      6.5894                 5.8716                 4.7084
 Frc consts  --      0.1095                 0.1333                 0.1164
 IR Inten    --      0.0838                 0.9735                 0.9411

                     10                     11                     12
                      A                      A                      A
 Frequencies --    281.1797               288.8723               321.2402
 Red. masses --      5.5576                 4.2167                 7.4260
 Frc consts  --      0.2589                 0.2073                 0.4515
 IR Inten    --      1.0125                 1.0291                 0.0055

                     13                     14                     15
                      A                      A                      A
 Frequencies --    326.5652               369.2790               378.0509
 Red. masses --      5.1061                 7.7439                 9.0555
 Frc consts  --      0.3208                 0.6222                 0.7625
 IR Inten    --      1.6437                 0.1020                 0.2704

                     16                     17                     18
                      A                      A                      A
 Frequencies --    389.8637               409.9556               425.0005
 Red. masses --      6.7685                 6.0085                 7.5833
 Frc consts  --      0.6061                 0.5950                 0.8070
 IR Inten    --      0.1565                20.5382                29.6067

                     19                     20                     21
                      A                      A                      A
 Frequencies --    435.2269               466.7379               478.9119
 Red. masses --      8.0824                10.3609                10.0787
 Frc consts  --      0.9020                 1.3298                 1.3620
 IR Inten    --      7.2410                22.5741                48.2590

                     22                     23                     24
                      A                      A                      A
 Frequencies --    482.8996               486.1332               493.6621
 Red. masses --     10.9968                10.3607                 4.2501
 Frc consts  --      1.5109                 1.4426                 0.6102
 IR Inten    --     11.9901                26.2894                 2.4156

                     25                     26                     27
                      A                      A                      A
 Frequencies --    537.5544               550.5562               559.7854
 Red. masses --      6.6630                 6.8160                 4.3064
 Frc consts  --      1.1344                 1.2173                 0.7951
 IR Inten    --      1.6590                 0.0894                 9.3539

                     28                     29                     30
                      A                      A                      A
 Frequencies --    615.0655               619.7422               658.6693
 Red. masses --      5.0209                 3.7352                 4.4704
 Frc consts  --      1.1191                 0.8453                 1.1427
 IR Inten    --      1.7726                 0.2587                 3.4919

                     31                     32                     33
                      A                      A                      A
 Frequencies --    683.0128               721.2688               723.8745
 Red. masses --      4.7072                 4.7020                 7.0882
 Frc consts  --      1.2938                 1.4412                 2.1883
 IR Inten    --     28.5636                12.2213                37.7638

                     34                     35                     36
                      A                      A                      A
 Frequencies --    734.2498               771.1431               779.7544
 Red. masses --      4.8138                 5.7280                 2.0728
 Frc consts  --      1.5291                 2.0069                 0.7425
 IR Inten    --     12.5509                 0.0724                28.1224

                     37                     38                     39
                      A                      A                      A
 Frequencies --    788.5706               789.3370               811.4700
 Red. masses --      6.3142                 1.9082                 1.4697
 Frc consts  --      2.3134                 0.7005                 0.5702
 IR Inten    --     84.6131                48.6427                 0.0038

                     40                     41                     42
                      A                      A                      A
 Frequencies --    840.4405               921.3476               928.9443
 Red. masses --      9.1561                 5.9035                 1.0613
 Frc consts  --      3.8104                 2.9526                 0.5396
 IR Inten    --     15.7917                74.2398               101.5897

                     43                     44                     45
                      A                      A                      A
 Frequencies --    937.9788               946.9782               960.3318
 Red. masses --      1.0618                 9.0567                 1.0379
 Frc consts  --      0.5504                 4.7852                 0.5640
 IR Inten    --    143.7887               287.9330                 0.9272

                     46                     47                     48
                      A                      A                      A
 Frequencies --    973.2428               977.8410              1018.2616
 Red. masses --      1.1581                 1.9186                 2.2367
 Frc consts  --      0.6463                 1.0809                 1.3664
 IR Inten    --     11.5970                 5.6992                42.3346

                     49                     50                     51
                      A                      A                      A
 Frequencies --   1043.3578              1072.4247              1105.7806
 Red. masses --      1.4194                 2.6965                 2.3259
 Frc consts  --      0.9104                 1.8272                 1.6757
 IR Inten    --     21.4310                 8.4596                45.8076

                     52                     53                     54
                      A                      A                      A
 Frequencies --   1186.2994              1191.7780              1205.9412
 Red. masses --      2.9720                 6.7759                 2.9118
 Frc consts  --      2.4643                 5.6704                 2.4950
 IR Inten    --     70.5350                17.4488               255.5224

                     55                     56                     57
                      A                      A                      A
 Frequencies --   1240.7722              1247.8790              1262.4630
 Red. masses --      2.2517                 3.0048                11.0640
 Frc consts  --      2.0424                 2.7568                10.3896
 IR Inten    --    102.2881                99.1449                 7.3428

                     58                     59                     60
                      A                      A                      A
 Frequencies --   1277.6397              1324.1566              1328.9946
 Red. masses --      7.0488                 3.3497                 3.8549
 Frc consts  --      6.7793                 3.4604                 4.0115
 IR Inten    --     10.5669                 6.8636                66.0384

                     61                     62                     63
                      A                      A                      A
 Frequencies --   1347.5779              1364.8393              1373.2659
 Red. masses --      4.4216                 9.8322                 2.0670
 Frc consts  --      4.7308                10.7911                 2.2967
 IR Inten    --    167.9300                55.5137               261.7109

                     64                     65                     66
                      A                      A                      A
 Frequencies --   1390.7696              1444.2075              1452.7556
 Red. masses --      1.9255                 6.6356                 6.5178
 Frc consts  --      2.1943                 8.1543                 8.1046
 IR Inten    --     76.2656                71.4427               550.0130

                     67                     68                     69
                      A                      A                      A
 Frequencies --   1474.9629              1489.2055              1514.1988
 Red. masses --      1.1270                 1.1479                 2.4220
 Frc consts  --      1.4446                 1.4999                 3.2718
 IR Inten    --     13.8926                 9.2892                23.0772

                     70                     71                     72
                      A                      A                      A
 Frequencies --   1545.7094              1551.7821              1560.0593
 Red. masses --      2.0741                 3.5488                 3.7291
 Frc consts  --      2.9197                 5.0350                 5.3474
 IR Inten    --    598.6703                32.7875               213.5274

                     73                     74                     75
                      A                      A                      A
 Frequencies --   1600.5876              1610.3859              1655.4030
 Red. masses --      3.2532                 1.4602                 2.6050
 Frc consts  --      4.9104                 2.2311                 4.2060
 IR Inten    --     42.1128               331.9952                 0.7234

                     76                     77                     78
                      A                      A                      A
 Frequencies --   1678.4087              1702.9409              2755.0531
 Red. masses --      1.6038                 1.9653                 1.0747
 Frc consts  --      2.6619                 3.3580                 4.8062
 IR Inten    --      3.7909                 0.4253               532.2037

                     79                     80                     81
                      A                      A                      A
 Frequencies --   2803.1291              2888.6348              2916.8943
 Red. masses --      1.0740                 1.0774                 1.0762
 Frc consts  --      4.9720                 5.2969                 5.3951
 IR Inten    --   1657.5834                59.9242                30.4666

                     82                     83                     84
                      A                      A                      A
 Frequencies --   2934.8375              2987.7994              3082.1814
 Red. masses --      1.0627                 1.0763                 1.0919
 Frc consts  --      5.3928                 5.6606                 6.1118
 IR Inten    --    407.9179               177.8235                22.3517

                     85                     86                     87
                      A                      A                      A
 Frequencies --   3129.3412              3129.4861              3150.0800
 Red. masses --      1.0876                 1.0856                 1.0923
 Frc consts  --      6.2753                 6.2643                 6.3861
 IR Inten    --     81.4389                25.9160                85.2621

 - Thermochemistry -
 -------------------
 Temperature   298.150 Kelvin.  Pressure   1.00000 Atm.
 Atom     1 has atomic number  6 and mass  12.00000

 Molecular mass:   286.04774 amu.
 Principal axes and moments of inertia in atomic units:
                           1         2         3
     Eigenvalues --  3589.493366698.23854**********
           X            0.99839   0.04184   0.03843
           Y           -0.03405   0.98218  -0.18484
           Z           -0.04548   0.18323   0.98202
 This molecule is an asymmetric top.
 Rotational symmetry number  1.
 Warning -- assumption of classical behavior for rotation
           may cause significant error
 Rotational temperatures (Kelvin)      0.02413     0.01293     0.00843
 Rotational constants (GHZ):           0.50278     0.26944     0.17562
 Zero-point vibrational energy     574098.8 (Joules/Mol)
                                  137.21290 (Kcal/Mol)
 Warning -- explicit consideration of  29 degrees of freedom as
           vibrations may cause significant error
 Vibrational temperatures:     58.31    76.33    92.84   149.04   164.70
          (Kelvin)            189.36   241.68   282.38   294.70   404.55
                              415.62   462.19   469.85   531.31   543.93
                              560.93   589.83   611.48   626.19   671.53
                              689.05   694.78   699.44   710.27   773.42
                              792.13   805.41   884.94   891.67   947.68
                              982.70  1037.74  1041.49  1056.42  1109.50
                             1121.89  1134.58  1135.68  1167.52  1209.21
                             1325.61  1336.54  1349.54  1362.49  1381.70
                             1400.28  1406.90  1465.05  1501.16  1542.98
                             1590.97  1706.82  1714.70  1735.08  1785.19
                             1795.42  1816.40  1838.24  1905.17  1912.13
                             1938.86  1963.70  1975.82  2001.01  2077.89
                             2090.19  2122.14  2142.63  2178.59  2223.93
                             2232.67  2244.58  2302.89  2316.99  2381.76
                             2414.86  2450.15  3963.91  4033.08  4156.10
                             4196.76  4222.58  4298.78  4434.57  4502.42
                             4502.63  4532.26

 Zero-point correction=                           0.218663 (Hartree/Particle)
 Thermal correction to Energy=                    0.235081
 Thermal correction to Enthalpy=                  0.236025
 Thermal correction to Gibbs Free Energy=         0.174759
 Sum of electronic and zero-point Energies=          -1029.123457
 Sum of electronic and thermal Energies=             -1029.107038
 Sum of electronic and thermal Enthalpies=           -1029.106094
 Sum of electronic and thermal Free Energies=        -1029.167360

                     E (Thermal)             CV                S
                      KCal/Mol        Cal/Mol-Kelvin    Cal/Mol-Kelvin
 Total                  147.516             65.830            128.946
 Electronic               0.000              0.000              0.000
 Translational            0.889              2.981             42.851
 Rotational               0.889              2.981             33.868
 Vibrational            145.738             59.868             52.227
 Vibration     1          0.594              1.981              5.233
 Vibration     2          0.596              1.976              4.700
 Vibration     3          0.597              1.971              4.314
 Vibration     4          0.605              1.946              3.386
 Vibration     5          0.607              1.937              3.192
 Vibration     6          0.612              1.922              2.922
 Vibration     7          0.625              1.882              2.458
 Vibration     8          0.636              1.845              2.168
 Vibration     9          0.640              1.833              2.089
 Vibration    10          0.681              1.708              1.526
 Vibration    11          0.685              1.694              1.481
 Vibration    12          0.707              1.633              1.304
 Vibration    13          0.710              1.622              1.277
 Vibration    14          0.742              1.535              1.083
 Vibration    15          0.748              1.517              1.047
 Vibration    16          0.758              1.492              1.001
 Vibration    17          0.774              1.449              0.927
 Vibration    18          0.787              1.416              0.875
 Vibration    19          0.796              1.393              0.842
 Vibration    20          0.824              1.324              0.747
 Vibration    21          0.835              1.297              0.713
 Vibration    22          0.839              1.288              0.702
 Vibration    23          0.842              1.281              0.694
 Vibration    24          0.849              1.264              0.674
 Vibration    25          0.893              1.167              0.571
 Vibration    26          0.906              1.138              0.543
 Vibration    27          0.915              1.118              0.524
 Vibration    28          0.975              1.000              0.424
 Vibration    29          0.980              0.990              0.417

 Optimization completed.
    -- Stationary point found.
 Normal termination of Gaussian 16 at Thu Dec 21 23:32:35 2023.
