 Gaussian 16, Revision A.03,
 Gaussian 16:  ES64L-G16RevA.03 25-Dec-2016

 ----------------------------------------------------------------------
 #P UB3LYP/6-311++G(d,p) nosym opt freq SCRF=(PCM,Solvent=n,n-DiMethylF
 ormamide)
 ----------------------------------------------------------------------

 -------
 Radical
 -------
 Symbolic Z-matrix:
 Charge = -1 Multiplicity = 2

 SCF Done:  E(UB3LYP) =  -460.380611440     A.U. after   18 cycles
 SCF Done:  E(UB3LYP) =  -460.380852883     A.U. after   15 cycles
 SCF Done:  E(UB3LYP) =  -460.380882671     A.U. after   14 cycles
 SCF Done:  E(UB3LYP) =  -460.380883521     A.U. after   12 cycles
 SCF Done:  E(UB3LYP) =  -460.380884321     A.U. after   10 cycles
 SCF Done:  E(UB3LYP) =  -460.380884642     A.U. after    9 cycles
 SCF Done:  E(UB3LYP) =  -460.380884866     A.U. after    9 cycles
 SCF Done:  E(UB3LYP) =  -460.380884885     A.U. after    7 cycles
 Optimization completed.
    -- Stationary point found.
 Normal termination of Gaussian 16 at Sat Feb 10 10:18:00 2024.

 ----------------------------------------------------------------------
 #P Geom=AllCheck Guess=TCheck SCRF=Check GenChk UB3LYP/6-311++G(d,p) F
 req
 ----------------------------------------------------------------------

 Structure from the checkpoint file:  "039-rad.chk"
 -------
 Radical
 -------
 Charge = -1 Multiplicity = 2

                          Input orientation:
 ---------------------------------------------------------------------
 Center     Atomic      Atomic             Coordinates (Angstroms)
 Number     Number       Type             X           Y           Z
 ---------------------------------------------------------------------
      1          6           0       -2.596140   -0.660575   -0.213910
      2          6           0       -1.249196   -0.012502   -0.034351
      3          6           0       -1.128724    1.320207    0.272928
      4          6           0        0.146689    1.970598    0.453624
      5          8           0        0.239183    3.210262    0.738067
      6          6           0        1.311334    1.133963    0.293129
      7          6           0        1.233260   -0.201662   -0.015009
      8          6           0        2.469181   -1.045727   -0.177988
      9          6           0       -0.062669   -0.842056   -0.195773
     10          8           0       -0.154617   -2.077768   -0.483625
     11          1           0       -2.743625   -1.474338    0.503647
     12          1           0       -3.400815    0.065752   -0.081530
     13          1           0       -2.691862   -1.107524   -1.208613
     14          1           0       -2.016977    1.935937    0.391542
     15          1           0        2.280479    1.608058    0.427414
     16          1           0        3.371879   -0.455517   -0.006585
     17          1           0        2.524153   -1.477626   -1.182545
     18          1           0        2.468465   -1.889481    0.519578
 ---------------------------------------------------------------------

 SCF Done:  E(UB3LYP) =  -460.380884885     A.U. after    2 cycles

 Alpha  occ. eigenvalues --  -19.07264 -19.07148 -10.21343 -10.21211 -10.16917
 Alpha  occ. eigenvalues --  -10.16916 -10.15619 -10.15614 -10.15371 -10.15368
 Alpha  occ. eigenvalues --   -0.99123  -0.98660  -0.82372  -0.77573  -0.71404
 Alpha  occ. eigenvalues --   -0.67269  -0.65387  -0.56643  -0.54998  -0.48082
 Alpha  occ. eigenvalues --   -0.45941  -0.42807  -0.42336  -0.40472  -0.39871
 Alpha  occ. eigenvalues --   -0.39702  -0.39288  -0.37953  -0.37158  -0.35696
 Alpha  occ. eigenvalues --   -0.35214  -0.34624  -0.27256  -0.24307  -0.23846
 Alpha  occ. eigenvalues --   -0.23305  -0.15743
 Alpha virt. eigenvalues --   -0.00284  -0.00090   0.01034   0.01552   0.02909
 Alpha virt. eigenvalues --    0.03203   0.03283   0.03594   0.05550   0.05580
 Alpha virt. eigenvalues --    0.06221   0.06671   0.07378   0.08439   0.09538

  Beta  occ. eigenvalues --  -19.06573 -19.06463 -10.21201 -10.21035 -10.16802
  Beta  occ. eigenvalues --  -10.16800 -10.15628 -10.15623 -10.15277 -10.15274
  Beta  occ. eigenvalues --   -0.97902  -0.97433  -0.81779  -0.77368  -0.71009
  Beta  occ. eigenvalues --   -0.67092  -0.64513  -0.56282  -0.54586  -0.47882
  Beta  occ. eigenvalues --   -0.45481  -0.41952  -0.41923  -0.40347  -0.39715
  Beta  occ. eigenvalues --   -0.39631  -0.38738  -0.37066  -0.36135  -0.34903
  Beta  occ. eigenvalues --   -0.34415  -0.33085  -0.24015  -0.23567  -0.23202
  Beta  occ. eigenvalues --   -0.22686
  Beta virt. eigenvalues --   -0.08501  -0.00259   0.01036   0.01210   0.01585
  Beta virt. eigenvalues --    0.03275   0.03293   0.03620   0.04961   0.05621
  Beta virt. eigenvalues --    0.05670   0.06219   0.06720   0.07851   0.08434

 Mulliken charges and spin densities:
               1          2
     1  C   -0.382137   0.005002
     2  C    1.286742   0.095742
     3  C   -0.546099   0.049012
     4  C   -0.327432   0.147452
     5  O   -0.530699   0.237250
     6  C   -0.546174   0.048991
     7  C    1.284396   0.095594
     8  C   -0.382677   0.005001
     9  C   -1.611064   0.057659
    10  O   -0.483843   0.255418
    11  H    0.162950   0.004505
    12  H    0.144386  -0.000374
    13  H    0.161930   0.004326
    14  H    0.150216  -0.007011
    15  H    0.150176  -0.007013
    16  H    0.144469  -0.000375
    17  H    0.162741   0.004514
    18  H    0.162120   0.004307
 Sum of Mulliken charges =  -1.00000   1.00000

 Dipole moment (field-independent basis, Debye):
    X=             -0.2824    Y=             -3.7827    Z=             -0.8536  Tot=              3.8881
 Quadrupole moment (field-independent basis, Debye-Ang):
   XX=            -59.3331   YY=           -105.4137   ZZ=            -65.7287
   XY=             -3.4475   XZ=             -0.6947   YZ=             -9.6835

  Exact polarizability: 162.523   6.054 245.370   3.105  35.525  99.289
 Approx polarizability: 162.891   8.474 277.217   3.409  40.402 111.064

                      1                      2                      3
                      A                      A                      A
 Frequencies --     99.1870               124.4314               143.3522
 Red. masses --      4.1995                 1.1204                 1.1046
 Frc consts  --      0.0243                 0.0102                 0.0134
 IR Inten    --     21.6795                 2.0967                 0.0190

                      4                      5                      6
                      A                      A                      A
 Frequencies --    177.5477               221.7193               272.4851
 Red. masses --      3.5727                 2.9089                 2.6010
 Frc consts  --      0.0664                 0.0843                 0.1138
 IR Inten    --      1.1941                 0.0374                 7.9163

                      7                      8                      9
                      A                      A                      A
 Frequencies --    297.9979               344.2899               377.2865
 Red. masses --      3.6316                 4.9980                 9.3148
 Frc consts  --      0.1900                 0.3491                 0.7812
 IR Inten    --      1.1441                 1.7572                27.7763

                     10                     11                     12
                      A                      A                      A
 Frequencies --    463.0553               469.8789               497.1279
 Red. masses --      8.4290                 3.2680                 5.2524
 Frc consts  --      1.0649                 0.4251                 0.7648
 IR Inten    --      0.0899                 0.0051                 1.2613

                     13                     14                     15
                      A                      A                      A
 Frequencies --    577.5347               621.7143               641.2109
 Red. masses --      5.5078                 3.7680                 2.7551
 Frc consts  --      1.0824                 0.8581                 0.6674
 IR Inten    --     15.9617                 1.1104                 0.0605

                     16                     17                     18
                      A                      A                      A
 Frequencies --    757.5807               794.8513               849.7223
 Red. masses --      5.4726                 4.2991                 1.2701
 Frc consts  --      1.8506                 1.6003                 0.5403
 IR Inten    --      7.0441                50.6013                 0.0349

                     19                     20                     21
                      A                      A                      A
 Frequencies --    879.3835               946.4795               948.6790
 Red. masses --      1.6147                 2.8373                 3.3243
 Frc consts  --      0.7357                 1.4975                 1.7627
 IR Inten    --     74.8824                26.3001                21.4828

                     22                     23                     24
                      A                      A                      A
 Frequencies --   1032.3897              1036.6038              1045.5676
 Red. masses --      1.6179                 1.7268                 1.4916
 Frc consts  --      1.0160                 1.0932                 0.9607
 IR Inten    --     47.2867                 6.1467                 0.9005

                     25                     26                     27
                      A                      A                      A
 Frequencies --   1047.8218              1187.8773              1209.7088
 Red. masses --      1.5231                 2.4807                 2.6930
 Frc consts  --      0.9853                 2.0623                 2.3220
 IR Inten    --      3.2939               131.5118                 1.6295

                     28                     29                     30
                      A                      A                      A
 Frequencies --   1260.6259              1338.0890              1397.5291
 Red. masses --      2.0536                 2.2622                 1.2973
 Frc consts  --      1.9228                 2.3865                 1.4929
 IR Inten    --      2.4841                30.4551                 6.4957

                     31                     32                     33
                      A                      A                      A
 Frequencies --   1399.6183              1428.2966              1458.6143
 Red. masses --      1.3245                 3.7773                 1.0784
 Frc consts  --      1.5287                 4.5401                 1.3518
 IR Inten    --     35.4057                47.1535                14.9032

                     34                     35                     36
                      A                      A                      A
 Frequencies --   1460.7212              1462.2056              1477.3009
 Red. masses --      1.1053                 1.5245                 1.2695
 Frc consts  --      1.3895                 1.9204                 1.6324
 IR Inten    --     26.9355               122.3737                 1.6626

                     37                     38                     39
                      A                      A                      A
 Frequencies --   1480.6197              1497.0622              1540.0298
 Red. masses --      5.8309                 2.3566                 4.2555
 Frc consts  --      7.5313                 3.1119                 5.9464
 IR Inten    --    266.7945              1033.4315                 3.4386

                     40                     41                     42
                      A                      A                      A
 Frequencies --   1646.1862              3016.5679              3017.6987
 Red. masses --      6.5766                 1.0364                 1.0364
 Frc consts  --     10.5004                 5.5567                 5.5605
 IR Inten    --     41.1001                82.3026                51.5627

                     43                     44                     45
                      A                      A                      A
 Frequencies --   3059.6901              3060.7815              3096.2914
 Red. masses --      1.0992                 1.0991                 1.1014
 Frc consts  --      6.0628                 6.0669                 6.2214
 IR Inten    --     36.5386                37.3960                32.0581

                     46                     47                     48
                      A                      A                      A
 Frequencies --   3096.4595              3136.6174              3139.2724
 Red. masses --      1.1013                 1.0899                 1.0892
 Frc consts  --      6.2213                 6.3179                 6.3246
 IR Inten    --     37.0916                56.1426                39.7364

 - Thermochemistry -
 -------------------
 Temperature   298.150 Kelvin.  Pressure   1.00000 Atm.
 Atom     1 has atomic number  6 and mass  12.00000

 Molecular mass:   136.05243 amu.
 Principal axes and moments of inertia in atomic units:
                           1         2         3
     Eigenvalues --  1040.009301330.885392348.79751
           X            0.07255   0.99707  -0.02411
           Y            0.97183  -0.07611  -0.22305
           Z            0.22423   0.00725   0.97451
 This molecule is an asymmetric top.
 Rotational symmetry number  1.
 Warning -- assumption of classical behavior for rotation
           may cause significant error
 Rotational temperatures (Kelvin)      0.08328     0.06508     0.03688
 Rotational constants (GHZ):           1.73531     1.35605     0.76837
 Zero-point vibrational energy     362084.3 (Joules/Mol)
                                   86.54022 (Kcal/Mol)
 Warning -- explicit consideration of  13 degrees of freedom as
           vibrations may cause significant error
 Vibrational temperatures:    142.71   179.03   206.25   255.45   319.00
          (Kelvin)            392.05   428.75   495.36   542.83   666.23
                              676.05   715.26   830.94   894.51   922.56
                             1089.99  1143.61  1222.56  1265.24  1361.77
                             1364.94  1485.38  1491.44  1504.34  1507.58
                             1709.09  1740.50  1813.76  1925.21  2010.73
                             2013.74  2055.00  2098.62  2101.65  2103.79
                             2125.51  2130.28  2153.94  2215.76  2368.49
                             4340.17  4341.80  4402.21  4403.78  4454.87
                             4455.11  4512.89  4516.71

 Zero-point correction=                           0.137911 (Hartree/Particle)
 Thermal correction to Energy=                    0.147341
 Thermal correction to Enthalpy=                  0.148285
 Thermal correction to Gibbs Free Energy=         0.102934
 Sum of electronic and zero-point Energies=           -460.242974
 Sum of electronic and thermal Energies=              -460.233544
 Sum of electronic and thermal Enthalpies=            -460.232600
 Sum of electronic and thermal Free Energies=         -460.277951

                     E (Thermal)             CV                S
                      KCal/Mol        Cal/Mol-Kelvin    Cal/Mol-Kelvin
 Total                   92.458             35.176             95.449
 Electronic               0.000              0.000              1.377
 Translational            0.889              2.981             40.636
 Rotational               0.889              2.981             29.565
 Vibrational             90.680             29.214             23.871
 Vibration     1          0.604              1.950              3.470
 Vibration     2          0.610              1.929              3.030
 Vibration     3          0.616              1.910              2.759
 Vibration     4          0.628              1.870              2.354
 Vibration     5          0.648              1.808              1.945
 Vibration     6          0.675              1.724              1.580
 Vibration     7          0.691              1.677              1.428
 Vibration     8          0.723              1.587              1.192
 Vibration     9          0.748              1.519              1.050
 Vibration    10          0.821              1.332              0.757
 Vibration    11          0.827              1.317              0.738
 Vibration    12          0.853              1.256              0.665
 Vibration    13          0.934              1.080              0.490

 Optimization completed.
    -- Stationary point found.
 Normal termination of Gaussian 16 at Sat Feb 10 10:28:18 2024.
