 Gaussian 16, Revision A.03,
 Gaussian 16:  ES64L-G16RevA.03 25-Dec-2016

 --------------------------------------
 #P UB3LYP/6-311++G(d,p) nosym opt freq
 --------------------------------------

 -------
 Radical
 -------
 Symbolic Z-matrix:
 Charge = -1 Multiplicity = 2

 SCF Done:  E(UB3LYP) =  -1168.28989173     A.U. after   23 cycles
 SCF Done:  E(UB3LYP) =  -1168.29993363     A.U. after   19 cycles
 SCF Done:  E(UB3LYP) =  -1168.30113005     A.U. after   18 cycles
 SCF Done:  E(UB3LYP) =  -1168.30124246     A.U. after   19 cycles
 SCF Done:  E(UB3LYP) =  -1168.30156118     A.U. after   16 cycles
 SCF Done:  E(UB3LYP) =  -1168.30177249     A.U. after   18 cycles
 SCF Done:  E(UB3LYP) =  -1168.30192346     A.U. after   19 cycles
 SCF Done:  E(UB3LYP) =  -1168.30200139     A.U. after   17 cycles
 SCF Done:  E(UB3LYP) =  -1168.30205382     A.U. after   17 cycles
 SCF Done:  E(UB3LYP) =  -1168.30210637     A.U. after   14 cycles
 SCF Done:  E(UB3LYP) =  -1168.30225814     A.U. after   19 cycles
 SCF Done:  E(UB3LYP) =  -1168.30240606     A.U. after   18 cycles
 SCF Done:  E(UB3LYP) =  -1168.30234956     A.U. after   18 cycles
 SCF Done:  E(UB3LYP) =  -1168.30246458     A.U. after   17 cycles
 SCF Done:  E(UB3LYP) =  -1168.30246697     A.U. after   14 cycles
 SCF Done:  E(UB3LYP) =  -1168.30246915     A.U. after   13 cycles
 SCF Done:  E(UB3LYP) =  -1168.30246929     A.U. after   13 cycles
 SCF Done:  E(UB3LYP) =  -1168.30246935     A.U. after   11 cycles
 SCF Done:  E(UB3LYP) =  -1168.30246936     A.U. after   10 cycles
 Optimization completed.
    -- Stationary point found.
 Normal termination of Gaussian 16 at Tue Dec 26 22:19:14 2023.

 ----------------------------------------------------------------------
 #P Geom=AllCheck Guess=TCheck SCRF=Check GenChk UB3LYP/6-311++G(d,p) F
 req
 ----------------------------------------------------------------------

 Structure from the checkpoint file:  "230-rad.chk"
 -------
 Radical
 -------
 Charge = -1 Multiplicity = 2

                          Input orientation:
 ---------------------------------------------------------------------
 Center     Atomic      Atomic             Coordinates (Angstroms)
 Number     Number       Type             X           Y           Z
 ---------------------------------------------------------------------
      1          6           0        5.805524   -5.207159    1.129416
      2          6           0        6.599560   -5.237663   -0.004249
      3          6           0        6.366600   -4.320821   -1.048683
      4          6           0        4.761881   -4.272841    1.259183
      5          6           0        4.527127   -3.349048    0.207968
      6          6           0        5.347297   -3.393343   -0.939834
      7          6           0        3.952559   -4.268244    2.494844
      8          6           0        2.911270   -3.268768    2.534162
      9          6           0        2.625496   -2.387954    1.500709
     10          6           0        3.445895   -2.378336    0.292503
     11          8           0        4.184350   -5.066696    3.429400
     12          8           0        3.197969   -1.544738   -0.628535
     13          1           0        5.962276   -5.897003    1.950578
     14          1           0        7.400604   -5.965941   -0.088939
     15          1           0        5.146676   -2.677432   -1.728482
     16         17           0        2.026268   -3.164399    4.067491
     17          1           0        6.988664   -4.343103   -1.938773
     18          7           0        1.627216   -1.405140    1.515760
     19          6           0        0.219545   -1.780864    1.673618
     20          6           0       -0.664140   -0.533816    1.721449
     21          6           0       -2.153531   -0.868704    1.845199
     22          1           0        1.756239   -0.884721    0.646860
     23          1           0        0.099065   -2.348357    2.596191
     24          1           0       -0.112328   -2.433729    0.847463
     25          1           0       -0.496422    0.063633    0.816361
     26          1           0       -0.344436    0.086248    2.565516
     27          1           0       -2.499236   -1.466047    0.995003
     28          1           0       -2.765065    0.038186    1.884041
     29          1           0       -2.354262   -1.444182    2.754831
 ---------------------------------------------------------------------

 SCF Done:  E(UB3LYP) =  -1168.30246936     A.U. after    1 cycles

 Alpha  occ. eigenvalues -- -101.41862 -18.95513 -18.94569 -14.19493 -10.10225
 Alpha  occ. eigenvalues --  -10.09879 -10.09036 -10.08997 -10.08725 -10.08073
 Alpha  occ. eigenvalues --  -10.07647 -10.06071 -10.05960 -10.05427 -10.05393
 Alpha  occ. eigenvalues --  -10.05356 -10.05315  -9.33322  -7.09744  -7.08853
 Alpha  occ. eigenvalues --   -7.08770  -0.88211  -0.87472  -0.80708  -0.74156
 Alpha  occ. eigenvalues --   -0.72938  -0.69055  -0.66526  -0.63317  -0.61352
 Alpha  occ. eigenvalues --   -0.57601  -0.54384  -0.50195  -0.49705  -0.47814
 Alpha  occ. eigenvalues --   -0.44385  -0.41064  -0.39069  -0.37805  -0.35872
 Alpha  occ. eigenvalues --   -0.35613  -0.34182  -0.32739  -0.31304  -0.30751
 Alpha  occ. eigenvalues --   -0.30560  -0.29851  -0.29102  -0.28267  -0.27142
 Alpha  occ. eigenvalues --   -0.27130  -0.25647  -0.25591  -0.24607  -0.24230
 Alpha  occ. eigenvalues --   -0.23698  -0.22177  -0.20794  -0.17821  -0.16925
 Alpha  occ. eigenvalues --   -0.14293  -0.13794  -0.12645  -0.11247  -0.09870
 Alpha  occ. eigenvalues --   -0.02475
 Alpha virt. eigenvalues --    0.06602   0.08191   0.08553   0.09318   0.09709
 Alpha virt. eigenvalues --    0.10021   0.10179   0.10443   0.11873   0.12732
 Alpha virt. eigenvalues --    0.12854   0.13395   0.13736   0.14461   0.15048

  Beta  occ. eigenvalues -- -101.41859 -18.94836 -18.93999 -14.19443 -10.10134
  Beta  occ. eigenvalues --  -10.09663 -10.08984 -10.08942 -10.08591 -10.08073
  Beta  occ. eigenvalues --  -10.07647 -10.06057 -10.05884 -10.05398 -10.05368
  Beta  occ. eigenvalues --  -10.05334 -10.05250  -9.33319  -7.09748  -7.08838
  Beta  occ. eigenvalues --   -7.08769  -0.87128  -0.86483  -0.80455  -0.73928
  Beta  occ. eigenvalues --   -0.72830  -0.68990  -0.66169  -0.63135  -0.61180
  Beta  occ. eigenvalues --   -0.57455  -0.53633  -0.50141  -0.49569  -0.47526
  Beta  occ. eigenvalues --   -0.44125  -0.40924  -0.38879  -0.37737  -0.35707
  Beta  occ. eigenvalues --   -0.35441  -0.34067  -0.32648  -0.31165  -0.30635
  Beta  occ. eigenvalues --   -0.29958  -0.29664  -0.28548  -0.27734  -0.26956
  Beta  occ. eigenvalues --   -0.26734  -0.25524  -0.24846  -0.24058  -0.23814
  Beta  occ. eigenvalues --   -0.22490  -0.22002  -0.19809  -0.17776  -0.16069
  Beta  occ. eigenvalues --   -0.13131  -0.12469  -0.12031  -0.10693  -0.08892
  Beta virt. eigenvalues --    0.03984   0.06606   0.08185   0.09187   0.09317
  Beta virt. eigenvalues --    0.09740   0.10062   0.10200   0.11446   0.11880
  Beta virt. eigenvalues --    0.12745   0.12880   0.13429   0.13754   0.14476

 Mulliken charges and spin densities:
               1          2
     1  C    0.118111  -0.003768
     2  C   -0.357772   0.061240
     3  C   -0.323118   0.011329
     4  C    0.359857   0.078843
     5  C    0.173215   0.004576
     6  C    0.057021   0.056450
     7  C   -0.925399   0.043145
     8  C    1.132576   0.047755
     9  C   -0.443935   0.088537
    10  C   -1.113933   0.137928
    11  O   -0.326148   0.211733
    12  O   -0.389247   0.252715
    13  H    0.161634  -0.000464
    14  H    0.121900  -0.004714
    15  H    0.162039  -0.003372
    16  Cl   0.324093   0.002043
    17  H    0.121588  -0.001145
    18  N    0.141592   0.015570
    19  C   -0.486068  -0.000221
    20  C   -0.023037  -0.005461
    21  C   -0.623053   0.000652
    22  H    0.278624  -0.000013
    23  H    0.085374   0.002624
    24  H    0.136224   0.003955
    25  H    0.113647  -0.001033
    26  H    0.137410   0.000807
    27  H    0.123602   0.000374
    28  H    0.125460   0.000253
    29  H    0.137744  -0.000337
 Sum of Mulliken charges =  -1.00000   1.00000

 Dipole moment (field-independent basis, Debye):
    X=            -17.6713    Y=             16.0597    Z=             -8.6447  Tot=             25.3952
 Quadrupole moment (field-independent basis, Debye-Ang):
   XX=           -184.9062   YY=           -181.2105   ZZ=           -150.9526
   XY=             64.0406   XZ=            -29.6313   YZ=             39.5419

  Exact polarizability: 241.139 -72.776 189.166 -47.252 -18.801 216.155
 Approx polarizability: 319.156 -95.470 314.433 -52.560 -66.974 367.847

                      1                      2                      3
                      A                      A                      A
 Frequencies --     31.4144                39.6067                65.0558
 Red. masses --      3.4907                 2.8828                 2.7379
 Frc consts  --      0.0020                 0.0027                 0.0068
 IR Inten    --      0.6514                 1.7797                 0.4022

                      4                      5                      6
                      A                      A                      A
 Frequencies --     74.6368               117.6997               149.6357
 Red. masses --      5.2944                 4.4956                 5.7108
 Frc consts  --      0.0174                 0.0367                 0.0753
 IR Inten    --      3.7471                 3.7123                 1.3668

                      7                      8                      9
                      A                      A                      A
 Frequencies --    165.0720               181.7852               211.6265
 Red. masses --      2.8838                 6.6454                 6.1975
 Frc consts  --      0.0463                 0.1294                 0.1635
 IR Inten    --      6.2384                 1.3821                 0.4608

                     10                     11                     12
                      A                      A                      A
 Frequencies --    230.6633               252.2693               266.2261
 Red. masses --      1.2021                 3.9321                 4.7164
 Frc consts  --      0.0377                 0.1474                 0.1970
 IR Inten    --      0.3094                 2.6226                 0.1686

                     13                     14                     15
                      A                      A                      A
 Frequencies --    287.9500               304.3026               350.8290
 Red. masses --      5.6550                 9.1459                 7.3897
 Frc consts  --      0.2763                 0.4990                 0.5359
 IR Inten    --      0.1065                 0.1902                 0.4240

                     16                     17                     18
                      A                      A                      A
 Frequencies --    380.5986               408.1228               435.2831
 Red. masses --      9.5951                 6.2404                 3.7872
 Frc consts  --      0.8189                 0.6124                 0.4228
 IR Inten    --      8.5238                 1.2564                 5.7301

                     19                     20                     21
                      A                      A                      A
 Frequencies --    458.5957               474.2200               508.9948
 Red. masses --      3.9519                 9.0157                 8.5532
 Frc consts  --      0.4897                 1.1946                 1.3056
 IR Inten    --      3.7522                 2.1989                 3.8623

                     22                     23                     24
                      A                      A                      A
 Frequencies --    556.5383               610.3592               672.2943
 Red. masses --      5.2776                 7.6338                 6.5061
 Frc consts  --      0.9631                 1.6756                 1.7326
 IR Inten    --      7.7563                 1.8309                15.6758

                     25                     26                     27
                      A                      A                      A
 Frequencies --    687.0663               710.0905               719.0665
 Red. masses --      4.8115                 4.8969                 3.3862
 Frc consts  --      1.3382                 1.4548                 1.0316
 IR Inten    --     14.4463                16.1773                28.0044

                     28                     29                     30
                      A                      A                      A
 Frequencies --    758.7208               777.4667               782.2558
 Red. masses --      1.0873                 1.9035                 5.2554
 Frc consts  --      0.3688                 0.6779                 1.8948
 IR Inten    --      2.8121                25.0851                 0.7469

                     31                     32                     33
                      A                      A                      A
 Frequencies --    813.1412               852.5016               868.8868
 Red. masses --      7.8475                 1.5994                 1.4360
 Frc consts  --      3.0571                 0.6848                 0.6387
 IR Inten    --     99.1281                81.3943                 0.1603

                     34                     35                     36
                      A                      A                      A
 Frequencies --    880.7497               893.5882               925.5126
 Red. masses --      2.9487                 1.3378                 2.1151
 Frc consts  --      1.3477                 0.6294                 1.0675
 IR Inten    --      5.7706                24.2260                11.8691

                     37                     38                     39
                      A                      A                      A
 Frequencies --    976.6400               979.9797              1011.9152
 Red. masses --      1.3486                 1.2692                 2.7966
 Frc consts  --      0.7579                 0.7181                 1.6872
 IR Inten    --      2.3447                 0.3757                22.1712

                     40                     41                     42
                      A                      A                      A
 Frequencies --   1034.9826              1047.6962              1092.5572
 Red. masses --      2.5726                 2.3686                 3.3529
 Frc consts  --      1.6236                 1.5318                 2.3581
 IR Inten    --     19.8766                 5.6903                14.1890

                     43                     44                     45
                      A                      A                      A
 Frequencies --   1106.1013              1133.9082              1147.6818
 Red. masses --      2.3363                 2.1285                 1.4786
 Frc consts  --      1.6841                 1.6124                 1.1475
 IR Inten    --      3.7023                11.0844                 3.3567

                     46                     47                     48
                      A                      A                      A
 Frequencies --   1159.3949              1190.4989              1209.1407
 Red. masses --      2.1507                 2.2591                 2.8210
 Frc consts  --      1.7033                 1.8864                 2.4300
 IR Inten    --     70.3939                 6.1146               132.3827

                     49                     50                     51
                      A                      A                      A
 Frequencies --   1228.8407              1254.5869              1270.0391
 Red. masses --      2.9395                 1.9751                 1.3265
 Frc consts  --      2.6153                 1.8316                 1.2606
 IR Inten    --      1.4505                56.8235                68.6936

                     52                     53                     54
                      A                      A                      A
 Frequencies --   1321.5467              1326.5779              1353.1327
 Red. masses --      1.2854                 1.2410                 2.3665
 Frc consts  --      1.3227                 1.2867                 2.5530
 IR Inten    --      1.9815                15.4244                22.8324

                     55                     56                     57
                      A                      A                      A
 Frequencies --   1357.5877              1404.8571              1410.0547
 Red. masses --      9.9333                 1.3064                 1.4159
 Frc consts  --     10.7865                 1.5191                 1.6586
 IR Inten    --     13.0013                 2.1472                11.1855

                     58                     59                     60
                      A                      A                      A
 Frequencies --   1462.4714              1473.0179              1492.1168
 Red. masses --      3.0863                 2.6520                 1.0578
 Frc consts  --      3.8893                 3.3903                 1.3876
 IR Inten    --    166.4712                14.0681                 1.5395

                     61                     62                     63
                      A                      A                      A
 Frequencies --   1497.1297              1501.0050              1504.4528
 Red. masses --      1.1109                 2.9915                 1.1265
 Frc consts  --      1.4671                 3.9710                 1.5023
 IR Inten    --     48.1700               301.1439                36.1264

                     64                     65                     66
                      A                      A                      A
 Frequencies --   1517.4108              1540.1221              1550.9072
 Red. masses --      1.1264                 4.8755                 7.4772
 Frc consts  --      1.5280                 6.8137                10.5964
 IR Inten    --      7.1992                92.6342               182.9795

                     67                     68                     69
                      A                      A                      A
 Frequencies --   1574.0438              1609.1904              1627.8857
 Red. masses --      1.6046                 7.1619                 6.3340
 Frc consts  --      2.3423                10.9268                 9.8896
 IR Inten    --     56.2268                22.5433                33.9610

                     70                     71                     72
                      A                      A                      A
 Frequencies --   2922.1940              3004.6420              3011.0231
 Red. masses --      1.0746                 1.0651                 1.0349
 Frc consts  --      5.4066                 5.6654                 5.5280
 IR Inten    --    100.8906                29.3274                55.5681

                     73                     74                     75
                      A                      A                      A
 Frequencies --   3042.2304              3070.4226              3072.4300
 Red. masses --      1.0957                 1.1007                 1.1009
 Frc consts  --      5.9751                 6.1138                 6.1232
 IR Inten    --      8.7785                62.3214                55.5948

                     76                     77                     78
                      A                      A                      A
 Frequencies --   3100.7958              3134.6928              3153.9626
 Red. masses --      1.0877                 1.0847                 1.0913
 Frc consts  --      6.1615                 6.2801                 6.3960
 IR Inten    --     21.9828                15.7792                50.4628

                     79                     80                     81
                      A                      A                      A
 Frequencies --   3183.2710              3185.7875              3431.0040
 Red. masses --      1.0914                 1.0928                 1.0724
 Frc consts  --      6.5157                 6.5348                 7.4378
 IR Inten    --     10.4048                26.2333                36.3566

 - Thermochemistry -
 -------------------
 Temperature   298.150 Kelvin.  Pressure   1.00000 Atm.
 Atom     1 has atomic number  6 and mass  12.00000

 Molecular mass:   249.05566 amu.
 Principal axes and moments of inertia in atomic units:
                           1         2         3
     Eigenvalues --  2384.821846837.710418936.25373
           X            0.85193   0.04023   0.52210
           Y           -0.44799  -0.46027   0.76646
           Z           -0.27114   0.88687   0.37410
 This molecule is an asymmetric top.
 Rotational symmetry number  1.
 Warning -- assumption of classical behavior for rotation
           may cause significant error
 Rotational temperatures (Kelvin)      0.03632     0.01267     0.00969
 Rotational constants (GHZ):           0.75676     0.26394     0.20196
 Zero-point vibrational energy     583674.5 (Joules/Mol)
                                  139.50155 (Kcal/Mol)
 Warning -- explicit consideration of  23 degrees of freedom as
           vibrations may cause significant error
 Vibrational temperatures:     45.20    56.99    93.60   107.39   169.34
          (Kelvin)            215.29   237.50   261.55   304.48   331.87
                              362.96   383.04   414.30   437.82   504.76
                              547.60   587.20   626.28   659.82   682.30
                              732.33   800.73   878.17   967.28   988.54
                             1021.66  1034.58  1091.63  1118.60  1125.49
                             1169.93  1226.56  1250.13  1267.20  1285.67
                             1331.61  1405.17  1409.97  1455.92  1489.11
                             1507.40  1571.95  1591.43  1631.44  1651.26
                             1668.11  1712.86  1739.68  1768.03  1805.07
                             1827.30  1901.41  1908.65  1946.86  1953.27
                             2021.28  2028.75  2104.17  2119.34  2146.82
                             2154.04  2159.61  2164.57  2183.22  2215.89
                             2231.41  2264.70  2315.27  2342.16  4204.39
                             4323.01  4332.19  4377.09  4417.65  4420.54
                             4461.35  4510.12  4537.85  4580.02  4583.64
                             4936.45

 Zero-point correction=                           0.222310 (Hartree/Particle)
 Thermal correction to Energy=                    0.237743
 Thermal correction to Enthalpy=                  0.238687
 Thermal correction to Gibbs Free Energy=         0.177705
 Sum of electronic and zero-point Energies=          -1168.080159
 Sum of electronic and thermal Energies=             -1168.064726
 Sum of electronic and thermal Enthalpies=           -1168.063782
 Sum of electronic and thermal Free Energies=        -1168.124765

                     E (Thermal)             CV                S
                      KCal/Mol        Cal/Mol-Kelvin    Cal/Mol-Kelvin
 Total                  149.186             58.149            128.349
 Electronic               0.000              0.000              1.377
 Translational            0.889              2.981             42.438
 Rotational               0.889              2.981             33.343
 Vibrational            147.409             52.188             51.191
 Vibration     1          0.594              1.983              5.738
 Vibration     2          0.594              1.981              5.279
 Vibration     3          0.597              1.971              4.298
 Vibration     4          0.599              1.966              4.027
 Vibration     5          0.608              1.935              3.138
 Vibration     6          0.618              1.903              2.677
 Vibration     7          0.623              1.885              2.491
 Vibration     8          0.630              1.865              2.310
 Vibration     9          0.643              1.823              2.030
 Vibration    10          0.652              1.794              1.874
 Vibration    11          0.664              1.759              1.715
 Vibration    12          0.672              1.735              1.621
 Vibration    13          0.685              1.696              1.486
 Vibration    14          0.695              1.666              1.393
 Vibration    15          0.728              1.574              1.162
 Vibration    16          0.750              1.512              1.037
 Vibration    17          0.773              1.453              0.933
 Vibration    18          0.796              1.393              0.842
 Vibration    19          0.817              1.342              0.770
 Vibration    20          0.831              1.307              0.726
 Vibration    21          0.864              1.230              0.636
 Vibration    22          0.912              1.125              0.531
 Vibration    23          0.969              1.010              0.432

 Optimization completed.
    -- Stationary point found.
 Normal termination of Gaussian 16 at Tue Dec 26 23:11:39 2023.
