 Gaussian 16, Revision A.03,
 Gaussian 16:  ES64L-G16RevA.03 25-Dec-2016

 ----------------------------------------------------------------------
 #P UB3LYP/6-311++G(d,p) nosym opt freq SCRF=(PCM,Solvent=n,n-DiMethylF
 ormamide)
 ----------------------------------------------------------------------

 --------
 Oxidized
 --------
 Symbolic Z-matrix:
 Charge =  0 Multiplicity = 1

 SCF Done:  E(UB3LYP) =  -5685.94412339     A.U. after   15 cycles
 SCF Done:  E(UB3LYP) =  -5685.94417217     A.U. after   11 cycles
 SCF Done:  E(UB3LYP) =  -5685.94418255     A.U. after   11 cycles
 SCF Done:  E(UB3LYP) =  -5685.94418649     A.U. after   10 cycles
 SCF Done:  E(UB3LYP) =  -5685.94418847     A.U. after    9 cycles
 SCF Done:  E(UB3LYP) =  -5685.94418819     A.U. after    9 cycles
 SCF Done:  E(UB3LYP) =  -5685.94418883     A.U. after    8 cycles
 Optimization completed.
    -- Stationary point found.
 Normal termination of Gaussian 16 at Sat Feb 10 10:19:39 2024.

 ----------------------------------------------------------------------
 #P Geom=AllCheck Guess=TCheck SCRF=Check GenChk UB3LYP/6-311++G(d,p) F
 req
 ----------------------------------------------------------------------

 Structure from the checkpoint file:  "015.chk"
 --------
 Oxidized
 --------
 Charge =  0 Multiplicity = 1

                          Input orientation:
 ---------------------------------------------------------------------
 Center     Atomic      Atomic             Coordinates (Angstroms)
 Number     Number       Type             X           Y           Z
 ---------------------------------------------------------------------
      1          6           0       -1.828553    0.304772   -1.090302
      2          6           0       -1.198057    0.140216    0.315929
      3          6           0       -1.893900   -1.045115    1.011513
      4          6           0       -1.452781    1.409011    1.168896
      5          6           0        0.309246   -0.104479    0.184907
      6          6           0        0.914628   -1.219731    0.628806
      7          6           0        2.358503   -1.489881    0.521084
      8          8           0        2.831986   -2.528876    0.947486
      9          6           0        3.213554   -0.445939   -0.126284
     10          6           0        2.652028    0.686048   -0.586551
     11         35           0        3.638953    2.067430   -1.420832
     12          6           0        1.167415    0.943852   -0.469246
     13          8           0        0.707426    1.980919   -0.901293
     14         35           0        5.058799   -0.838938   -0.234907
     15          1           0       -2.909257    0.431670   -0.983899
     16          1           0       -1.653480   -0.585416   -1.700958
     17          1           0       -1.432269    1.172225   -1.615614
     18          1           0       -1.781554   -1.975330    0.448227
     19          1           0       -2.962531   -0.831925    1.085950
     20          1           0       -1.517803   -1.203922    2.025686
     21          1           0       -1.009501    1.304079    2.163145
     22          1           0       -2.530517    1.543580    1.294390
     23          1           0       -1.048598    2.304158    0.698984
     24          1           0        0.366262   -2.018409    1.109193
 ---------------------------------------------------------------------

 SCF Done:  E(UB3LYP) =  -5685.94418883     A.U. after    1 cycles

 Alpha  occ. eigenvalues -- -482.85750-482.85689 -62.51015 -62.50954 -56.33067
 Alpha  occ. eigenvalues --  -56.33007 -56.32677 -56.32625 -56.32616 -56.32563
 Alpha  occ. eigenvalues --  -19.15588 -19.15328 -10.30892 -10.30422 -10.27638
 Alpha  occ. eigenvalues --  -10.27463 -10.23062 -10.21399 -10.21007 -10.16574
 Alpha  occ. eigenvalues --  -10.16380 -10.16376  -8.71983  -8.71923  -6.55173
 Alpha  occ. eigenvalues --   -6.55114  -6.53865  -6.53807  -6.53714  -6.53652
 Alpha  occ. eigenvalues --   -2.66262  -2.66202  -2.65912  -2.65854  -2.65797
 Alpha  occ. eigenvalues --   -2.65736  -2.64756  -2.64753  -2.64695  -2.64693
 Alpha  occ. eigenvalues --   -1.09221  -1.08559  -0.90309  -0.86277  -0.82519
 Alpha  occ. eigenvalues --   -0.81056  -0.75623  -0.71526  -0.69405  -0.69402
 Alpha  occ. eigenvalues --   -0.63840  -0.62013  -0.56233  -0.54830  -0.50937
 Alpha  occ. eigenvalues --   -0.48819  -0.47390  -0.47380  -0.45371  -0.45035
 Alpha  occ. eigenvalues --   -0.44851  -0.43933  -0.43449  -0.41370  -0.39702
 Alpha  occ. eigenvalues --   -0.38826  -0.37841  -0.37052  -0.36688  -0.34854
 Alpha  occ. eigenvalues --   -0.34477  -0.32887  -0.32840  -0.30868  -0.30501
 Alpha  occ. eigenvalues --   -0.30231  -0.28790  -0.27725
 Alpha virt. eigenvalues --   -0.14694  -0.05325  -0.04326  -0.01736  -0.00821
 Alpha virt. eigenvalues --   -0.00399   0.00606   0.01274   0.01796   0.02754
 Alpha virt. eigenvalues --    0.03331   0.03551   0.03805   0.04147   0.04553

  Beta  occ. eigenvalues -- -482.85750-482.85689 -62.51015 -62.50954 -56.33067
  Beta  occ. eigenvalues --  -56.33007 -56.32677 -56.32625 -56.32616 -56.32563
  Beta  occ. eigenvalues --  -19.15588 -19.15328 -10.30892 -10.30422 -10.27638
  Beta  occ. eigenvalues --  -10.27463 -10.23062 -10.21399 -10.21007 -10.16574
  Beta  occ. eigenvalues --  -10.16380 -10.16376  -8.71983  -8.71923  -6.55173
  Beta  occ. eigenvalues --   -6.55114  -6.53865  -6.53807  -6.53714  -6.53652
  Beta  occ. eigenvalues --   -2.66262  -2.66202  -2.65912  -2.65854  -2.65797
  Beta  occ. eigenvalues --   -2.65736  -2.64756  -2.64753  -2.64695  -2.64693
  Beta  occ. eigenvalues --   -1.09221  -1.08559  -0.90309  -0.86277  -0.82519
  Beta  occ. eigenvalues --   -0.81056  -0.75623  -0.71526  -0.69405  -0.69402
  Beta  occ. eigenvalues --   -0.63840  -0.62013  -0.56233  -0.54830  -0.50937
  Beta  occ. eigenvalues --   -0.48819  -0.47390  -0.47380  -0.45371  -0.45035
  Beta  occ. eigenvalues --   -0.44851  -0.43933  -0.43449  -0.41370  -0.39702
  Beta  occ. eigenvalues --   -0.38826  -0.37841  -0.37052  -0.36688  -0.34854
  Beta  occ. eigenvalues --   -0.34477  -0.32887  -0.32840  -0.30868  -0.30501
  Beta  occ. eigenvalues --   -0.30231  -0.28790  -0.27725
  Beta virt. eigenvalues --   -0.14694  -0.05325  -0.04326  -0.01736  -0.00821
  Beta virt. eigenvalues --   -0.00399   0.00606   0.01274   0.01796   0.02754
  Beta virt. eigenvalues --    0.03331   0.03551   0.03805   0.04147   0.04553

 Mulliken charges and spin densities:
               1          2
     1  C   -0.688555  -0.000000
     2  C    0.553910  -0.000000
     3  C   -0.476746   0.000000
     4  C   -0.688934   0.000000
     5  C    1.382331   0.000000
     6  C   -0.498866  -0.000000
     7  C   -0.802392   0.000000
     8  O   -0.221425   0.000000
     9  C    0.920581   0.000000
    10  C   -0.344465  -0.000000
    11  Br  -0.026749  -0.000000
    12  C   -0.653862  -0.000000
    13  O   -0.168271   0.000000
    14  Br  -0.013656   0.000000
    15  H    0.170739   0.000000
    16  H    0.150811   0.000000
    17  H    0.178885  -0.000000
    18  H    0.144676  -0.000000
    19  H    0.184970   0.000000
    20  H    0.144688  -0.000000
    21  H    0.150738   0.000000
    22  H    0.170670  -0.000000
    23  H    0.178747   0.000000
    24  H    0.252172   0.000000
 Sum of Mulliken charges =  -0.00000  -0.00000

 Dipole moment (field-independent basis, Debye):
    X=             -3.2144    Y=              0.0895    Z=              0.4966  Tot=              3.2537
 Quadrupole moment (field-independent basis, Debye-Ang):
   XX=           -111.6871   YY=           -120.4902   ZZ=           -108.9385
   XY=              8.1214   XZ=             -3.7860   YZ=              5.1907

  Exact polarizability: 259.763 -36.657 261.680  -1.000 -50.937 169.743
 Approx polarizability: 278.596 -61.890 336.333  11.346 -73.991 197.878

                      1                      2                      3
                      A                      A                      A
 Frequencies --     26.8429                43.8042                79.0036
 Red. masses --      5.5756                 7.6380                 4.9983
 Frc consts  --      0.0024                 0.0086                 0.0184
 IR Inten    --      3.4320                 0.1761                 0.0210

                      4                      5                      6
                      A                      A                      A
 Frequencies --    131.0642               131.8742               142.6988
 Red. masses --      4.1878                29.0367                 6.9649
 Frc consts  --      0.0424                 0.2975                 0.0836
 IR Inten    --      8.6939                 0.3836                 0.8014

                      7                      8                      9
                      A                      A                      A
 Frequencies --    204.3269               205.8167               218.1577
 Red. masses --      1.4585                 6.4977                 4.9981
 Frc consts  --      0.0359                 0.1622                 0.1402
 IR Inten    --      1.6857                 1.1713                 0.1297

                     10                     11                     12
                      A                      A                      A
 Frequencies --    238.7485               258.2837               268.1026
 Red. masses --      1.3607                 2.5942                 2.3907
 Frc consts  --      0.0457                 0.1020                 0.1012
 IR Inten    --      0.4546                 0.5732                 0.0006

                     13                     14                     15
                      A                      A                      A
 Frequencies --    287.4791               306.6046               335.7291
 Red. masses --      9.4922                 3.3520                 1.0668
 Frc consts  --      0.4622                 0.1857                 0.0708
 IR Inten    --      0.1670                 0.6749                 0.0629

                     16                     17                     18
                      A                      A                      A
 Frequencies --    356.8430               377.4904               416.6773
 Red. masses --      6.4910                 2.2886                 2.7059
 Frc consts  --      0.4870                 0.1921                 0.2768
 IR Inten    --      8.6353                 0.2537                 0.9415

                     19                     20                     21
                      A                      A                      A
 Frequencies --    453.8528               468.2391               507.7475
 Red. masses --      6.9234                 7.8710                 4.1633
 Frc consts  --      0.8402                 1.0168                 0.6324
 IR Inten    --      0.0231                 0.0967                64.8137

                     22                     23                     24
                      A                      A                      A
 Frequencies --    528.0256               574.0640               687.0862
 Red. masses --      4.5120                 5.0222                 6.3319
 Frc consts  --      0.7412                 0.9751                 1.7612
 IR Inten    --      0.0339                33.6304                 6.6186

                     25                     26                     27
                      A                      A                      A
 Frequencies --    718.7590               728.4059               799.7781
 Red. masses --      6.1155                 7.0289                 8.9531
 Frc consts  --      1.8614                 2.1973                 3.3741
 IR Inten    --     11.2398                38.5487                 8.2452

                     28                     29                     30
                      A                      A                      A
 Frequencies --    822.4777               837.0887               915.6668
 Red. masses --      3.3292                 8.7098                 1.6370
 Frc consts  --      1.3269                 3.5958                 0.8087
 IR Inten    --     37.0315                28.1406                25.5381

                     31                     32                     33
                      A                      A                      A
 Frequencies --    935.0565               936.9852               942.5664
 Red. masses --      1.6342                 1.7617                 4.8741
 Frc consts  --      0.8418                 0.9113                 2.5513
 IR Inten    --     12.4036                 4.3404                 8.0073

                     34                     35                     36
                      A                      A                      A
 Frequencies --    966.2492              1028.6619              1046.3031
 Red. masses --      1.1968                 2.5350                 1.3805
 Frc consts  --      0.6583                 1.5805                 0.8904
 IR Inten    --      0.0367               329.2730                 0.0786

                     37                     38                     39
                      A                      A                      A
 Frequencies --   1061.2761              1173.8256              1213.3087
 Red. masses --      1.9381                 3.5342                 2.6808
 Frc consts  --      1.2861                 2.8692                 2.3252
 IR Inten    --    198.6604               139.8056                 5.2497

                     40                     41                     42
                      A                      A                      A
 Frequencies --   1218.2374              1254.1448              1276.4741
 Red. masses --      3.2719                 3.8551                 3.0386
 Frc consts  --      2.8610                 3.5726                 2.9171
 IR Inten    --     49.7489               184.5853                33.2100

                     43                     44                     45
                      A                      A                      A
 Frequencies --   1344.0665              1389.9708              1395.7991
 Red. masses --      1.7656                 1.1934                 1.2240
 Frc consts  --      1.8792                 1.3585                 1.4050
 IR Inten    --     24.5024                 9.5268                14.8819

                     46                     47                     48
                      A                      A                      A
 Frequencies --   1423.1664              1475.7517              1489.3457
 Red. masses --      1.2157                 1.0460                 1.0453
 Frc consts  --      1.4508                 1.3422                 1.3661
 IR Inten    --      4.6487                 0.0257                 0.3478

                     49                     50                     51
                      A                      A                      A
 Frequencies --   1489.9193              1492.4587              1503.5121
 Red. masses --      1.0473                 1.0527                 1.0482
 Frc consts  --      1.3697                 1.3815                 1.3961
 IR Inten    --      0.8480                23.3876                14.0936

                     52                     53                     54
                      A                      A                      A
 Frequencies --   1518.2006              1591.0326              1666.5876
 Red. masses --      1.0599                11.6749                 8.5797
 Frc consts  --      1.4394                17.4125                14.0404
 IR Inten    --     25.5675               292.7028                10.4064

                     55                     56                     57
                      A                      A                      A
 Frequencies --   1699.7701              1718.1359              3026.1102
 Red. masses --     11.8194                12.6829                 1.0355
 Frc consts  --     20.1199                22.0589                 5.5868
 IR Inten    --    845.7547               262.3575                25.3300

                     58                     59                     60
                      A                      A                      A
 Frequencies --   3029.0988              3034.4947              3087.7764
 Red. masses --      1.0375                 1.0384                 1.1026
 Frc consts  --      5.6088                 5.6334                 6.1940
 IR Inten    --     59.4800                35.8963                12.9420

                     61                     62                     63
                      A                      A                      A
 Frequencies --   3088.7577              3093.2378              3099.1500
 Red. masses --      1.1022                 1.1027                 1.1009
 Frc consts  --      6.1953                 6.2163                 6.2300
 IR Inten    --     33.0686                54.2642                76.2979

                     64                     65                     66
                      A                      A                      A
 Frequencies --   3132.9930              3135.0997              3214.8685
 Red. masses --      1.0989                 1.0983                 1.0910
 Frc consts  --      6.3551                 6.3603                 6.6433
 IR Inten    --      0.1898                39.3575                 0.3786

 - Thermochemistry -
 -------------------
 Temperature   298.150 Kelvin.  Pressure   1.00000 Atm.
 Atom     1 has atomic number  6 and mass  12.00000

 Molecular mass:   319.90475 amu.
 Principal axes and moments of inertia in atomic units:
                           1         2         3
     Eigenvalues --  3063.089706688.145869346.70633
           X            0.98842  -0.04084   0.14616
           Y           -0.02690   0.90070   0.43361
           Z           -0.14935  -0.43252   0.88917
 This molecule is an asymmetric top.
 Rotational symmetry number  1.
 Warning -- assumption of classical behavior for rotation
           may cause significant error
 Rotational temperatures (Kelvin)      0.02828     0.01295     0.00927
 Rotational constants (GHZ):           0.58919     0.26984     0.19309
 Zero-point vibrational energy     462136.2 (Joules/Mol)
                                  110.45319 (Kcal/Mol)
 Warning -- explicit consideration of  23 degrees of freedom as
           vibrations may cause significant error
 Vibrational temperatures:     38.62    63.02   113.67   188.57   189.74
          (Kelvin)            205.31   293.98   296.12   313.88   343.51
                              371.61   385.74   413.62   441.14   483.04
                              513.42   543.12   599.51   652.99   673.69
                              730.54   759.71   825.95   988.56  1034.13
                             1048.01  1150.70  1183.36  1204.38  1317.44
                             1345.34  1348.11  1356.14  1390.22  1480.02
                             1505.40  1526.94  1688.87  1745.68  1752.77
                             1804.43  1836.56  1933.81  1999.86  2008.24
                             2047.62  2123.28  2142.84  2143.66  2147.32
                             2163.22  2184.35  2289.14  2397.85  2445.59
                             2472.01  4353.90  4358.20  4365.96  4442.62
                             4444.03  4450.48  4458.99  4507.68  4510.71
                             4625.48

 Zero-point correction=                           0.176018 (Hartree/Particle)
 Thermal correction to Energy=                    0.190773
 Thermal correction to Enthalpy=                  0.191717
 Thermal correction to Gibbs Free Energy=         0.132424
 Sum of electronic and zero-point Energies=          -5685.768170
 Sum of electronic and thermal Energies=             -5685.753416
 Sum of electronic and thermal Enthalpies=           -5685.752472
 Sum of electronic and thermal Free Energies=        -5685.811765

                     E (Thermal)             CV                S
                      KCal/Mol        Cal/Mol-Kelvin    Cal/Mol-Kelvin
 Total                  119.712             53.569            124.794
 Electronic               0.000              0.000              0.000
 Translational            0.889              2.981             43.184
 Rotational               0.889              2.981             33.615
 Vibrational            117.934             47.608             47.995
 Vibration     1          0.593              1.984              6.050
 Vibration     2          0.595              1.980              5.079
 Vibration     3          0.600              1.963              3.915
 Vibration     4          0.612              1.922              2.930
 Vibration     5          0.612              1.921              2.919
 Vibration     6          0.616              1.911              2.767
 Vibration     7          0.640              1.834              2.094
 Vibration     8          0.640              1.832              2.080
 Vibration     9          0.646              1.813              1.974
 Vibration    10          0.657              1.781              1.812
 Vibration    11          0.667              1.749              1.673
 Vibration    12          0.673              1.732              1.608
 Vibration    13          0.685              1.697              1.489
 Vibration    14          0.697              1.661              1.381
 Vibration    15          0.717              1.604              1.232
 Vibration    16          0.732              1.561              1.136
 Vibration    17          0.748              1.518              1.049
 Vibration    18          0.780              1.434              0.903
 Vibration    19          0.812              1.352              0.784
 Vibration    20          0.825              1.321              0.742
 Vibration    21          0.863              1.233              0.639
 Vibration    22          0.883              1.188              0.592
 Vibration    23          0.930              1.087              0.496

                           ! Non-Optimized Parameters !
 Normal termination of Gaussian 16 at Sat Feb 10 10:43:05 2024.
