 Q-Chem 5.4, Q-Chem, Inc., Pleasanton, CA (2021)
 Q-Chem 5.4.0 for Intel X86 EM64T Linux

User input:
--------------------------------------------------------------
$molecule
-1 2
N                 -3.3412030000     -0.8993340000      0.0762850000
C                 -2.0839070000     -0.2919340000      0.1265110000
C                 -1.9141430000      1.0499070000      0.4152710000
C                 -0.6354350000      1.6947220000      0.4301780000
O                 -0.4875900000      2.9158240000      0.6992780000
C                  0.5226280000      0.8329680000      0.0997720000
C                  1.8160470000      1.3815470000      0.0774820000
C                  2.9219990000      0.6023250000     -0.2227990000
C                  2.7540130000     -0.7669370000     -0.5103480000
C                  1.4903430000     -1.3287870000     -0.4938080000
C                  0.3511320000     -0.5502630000     -0.1934070000
C                 -0.9683130000     -1.1703870000     -0.1745980000
O                 -1.1630430000     -2.4065400000     -0.3892370000
H                 -4.0192760000     -0.5471400000      0.7359500000
H                 -3.2472860000     -1.9100910000      0.0756710000
H                 -2.7765780000      1.6749780000      0.6341950000
H                  1.9112590000      2.4374360000      0.3057630000
H                  3.9145700000      1.0433160000     -0.2360370000
H                  3.6185120000     -1.3816740000     -0.7456490000
H                  1.3362710000     -2.3799370000     -0.7104740000
$end
$rem
MAX_SCF_CYCLES=200
BASIS  =  6-311++G(d,p)
GUI  =  2
JOB_TYPE  =  SP
METHOD  =  B3LYP
SOLVENT_METHOD = PCM
$end
$pcm
theory = CPCM
$end
$solvent
dielectric 37.219
opticaldielectric 1.43
$end

--------------------------------------------------------------

             Standard Nuclear Orientation (Angstroms)
    I     Atom           X                Y                Z
 ----------------------------------------------------------------
    1      N      -3.3412030000    -0.8993340000     0.0762850000
    2      C      -2.0839070000    -0.2919340000     0.1265110000
    3      C      -1.9141430000     1.0499070000     0.4152710000
    4      C      -0.6354350000     1.6947220000     0.4301780000
    5      O      -0.4875900000     2.9158240000     0.6992780000
    6      C       0.5226280000     0.8329680000     0.0997720000
    7      C       1.8160470000     1.3815470000     0.0774820000
    8      C       2.9219990000     0.6023250000    -0.2227990000
    9      C       2.7540130000    -0.7669370000    -0.5103480000
   10      C       1.4903430000    -1.3287870000    -0.4938080000
   11      C       0.3511320000    -0.5502630000    -0.1934070000
   12      C      -0.9683130000    -1.1703870000    -0.1745980000
   13      O      -1.1630430000    -2.4065400000    -0.3892370000
   14      H      -4.0192760000    -0.5471400000     0.7359500000
   15      H      -3.2472860000    -1.9100910000     0.0756710000
   16      H      -2.7765780000     1.6749780000     0.6341950000
   17      H       1.9112590000     2.4374360000     0.3057630000
   18      H       3.9145700000     1.0433160000    -0.2360370000
   19      H       3.6185120000    -1.3816740000    -0.7456490000
   20      H       1.3362710000    -2.3799370000    -0.7104740000
 ----------------------------------------------------------------

    9    -590.8007609882      4.96e-06  Convergence criterion met
 Total energy in the final basis set =     -590.8007609882

                    Orbital Energies (a.u.)
 --------------------------------------------------------------

 Alpha MOs
 -- Occupied --
-19.0794 -19.0718 -14.3099 -10.2221 -10.2185 -10.2052 -10.1721 -10.1705
-10.1701 -10.1694 -10.1680 -10.1677 -10.1493  -1.0032  -0.9966  -0.9046
 -0.8550  -0.7886  -0.7485  -0.7281  -0.6712  -0.6157  -0.6058  -0.5593
 -0.5302  -0.5068  -0.4761  -0.4712  -0.4461  -0.4290  -0.4223  -0.4171
 -0.4112  -0.4024  -0.3842  -0.3791  -0.3570  -0.3504  -0.3357  -0.3223
 -0.2627  -0.2558  -0.2503  -0.2383  -0.2212  -0.1484

 Beta MOs
 -- Occupied --
-19.0729 -19.0672 -14.3092 -10.2208 -10.2156 -10.2037 -10.1720 -10.1705
-10.1691 -10.1686 -10.1679 -10.1675 -10.1490  -0.9921  -0.9880  -0.9017
 -0.8530  -0.7843  -0.7464  -0.7264  -0.6616  -0.6140  -0.6029  -0.5567
 -0.5288  -0.5042  -0.4743  -0.4681  -0.4454  -0.4261  -0.4185  -0.4083
 -0.4039  -0.3993  -0.3815  -0.3587  -0.3499  -0.3474  -0.3344  -0.3063
 -0.2490  -0.2458  -0.2445  -0.2337  -0.2120

          Ground-State Mulliken Net Atomic Charges

     Atom                 Charge (a.u.)    Spin (a.u.)
  --------------------------------------------------------
      1 N                    -0.411835       0.036177
      2 C                    -0.014722       0.086908
      3 C                     0.472997       0.022797
      4 C                    -0.526654       0.067971
      5 O                    -0.535472       0.167428
      6 C                     0.207679       0.069976
      7 C                     0.159722      -0.001936
      8 C                    -0.419279       0.069689
      9 C                    -0.403812      -0.003290
     10 C                     0.079432       0.079848
     11 C                     0.243437      -0.014767
     12 C                    -0.804531       0.192064
     13 O                    -0.532979       0.242570
     14 H                     0.280181       0.000982
     15 H                     0.290174      -0.001991
     16 H                     0.187651      -0.004472
     17 H                     0.165226      -0.000126
     18 H                     0.196979      -0.004804
     19 H                     0.199855      -0.000668
     20 H                     0.165947      -0.004354
  --------------------------------------------------------
  Sum of atomic charges =    -1.000000

                    Cartesian Multipole Moments
 -----------------------------------------------------------------
    Charge (ESU x 10^10)
                -4.8032
    Dipole Moment (Debye)
         X       2.5157      Y      -2.6149      Z       0.4899
       Tot       3.6615
    Quadrupole Moments (Debye-Ang)
        XX     -72.3926     XY      -0.6472     YY    -114.0110
        XZ      -6.7577     YZ      -8.0468     ZZ     -83.0992

 Total job time:  36.55s(wall), 190.45s(cpu)
        *  Thank you very much for using Q-Chem.  Have a nice day.  *
