 Q-Chem 5.4, Q-Chem, Inc., Pleasanton, CA (2021)
 Q-Chem 5.4.0 for Intel X86 EM64T Linux

User input:
--------------------------------------------------------------
$molecule
-1 2
C                 -4.9829770000     -1.2267170000     -0.6061740000
C                 -3.5810530000     -1.6767210000     -0.2962520000
O                 -3.2284020000     -2.2512910000      0.6989310000
O                 -2.7562510000     -1.3850800000     -1.3443760000
C                 -1.3723720000     -1.4006320000     -1.1465750000
C                 -0.6923110000     -2.4319520000     -1.7487960000
C                  0.7082260000     -2.4633390000     -1.6978040000
C                  1.3881960000     -1.4624170000     -1.0462250000
O                  2.7820950000     -1.5093860000     -1.1425730000
C                  3.5142300000     -1.8351130000     -0.0372120000
C                  4.9538500000     -1.4492890000     -0.2434700000
O                  3.0642420000     -2.3902050000      0.9293610000
C                  0.7297730000     -0.3746380000     -0.4117750000
C                  1.4908640000      0.6962130000      0.2412740000
O                  2.7426550000      0.6822360000      0.3507190000
C                  0.7210910000      1.8220430000      0.7724220000
C                  1.4104360000      2.9037710000      1.3637250000
C                  0.7271360000      3.9848890000      1.8821320000
C                 -0.6830240000      4.0161240000      1.8314850000
C                 -1.3745090000      2.9654650000      1.2636460000
C                 -0.6930180000      1.8534140000      0.7215330000
C                 -1.4716910000      0.7620650000      0.1343530000
O                 -2.7274810000      0.8038210000      0.1532320000
C                 -0.7137890000     -0.3424550000     -0.4640560000
H                 -5.0009520000     -0.1415670000     -0.4846310000
H                 -5.6817800000     -1.6936190000      0.0866120000
H                 -5.2480690000     -1.4621450000     -1.6389920000
H                 -1.2537180000     -3.2035910000     -2.2611970000
H                  1.2702960000     -3.2602270000     -2.1691950000
H                  5.0115410000     -0.3656360000     -0.1209330000
H                  5.2830800000     -1.6997470000     -1.2540580000
H                  5.5783440000     -1.9447320000      0.4987040000
H                  2.4918810000      2.8484700000      1.3949390000
H                  1.2722620000      4.8093200000      2.3318520000
H                 -1.2220100000      4.8645510000      2.2422890000
H                 -2.4567910000      2.9581130000      1.2170870000
$end

$rem
BASIS  =  6-311++G(d,p)
GUI  =  2
JOB_TYPE  =  SP
METHOD  =  B3LYP
SCF_CONVERGENCE  = 8
SOLVENT_METHOD = sm12
$end

$smx
solvent dimethylformamide
charges CM5
$end

--------------------------------------------------------------

             Standard Nuclear Orientation (Angstroms)
    I     Atom           X                Y                Z
 ----------------------------------------------------------------
    1      C      -4.9829770000    -1.2267170000    -0.6061740000
    2      C      -3.5810530000    -1.6767210000    -0.2962520000
    3      O      -3.2284020000    -2.2512910000     0.6989310000
    4      O      -2.7562510000    -1.3850800000    -1.3443760000
    5      C      -1.3723720000    -1.4006320000    -1.1465750000
    6      C      -0.6923110000    -2.4319520000    -1.7487960000
    7      C       0.7082260000    -2.4633390000    -1.6978040000
    8      C       1.3881960000    -1.4624170000    -1.0462250000
    9      O       2.7820950000    -1.5093860000    -1.1425730000
   10      C       3.5142300000    -1.8351130000    -0.0372120000
   11      C       4.9538500000    -1.4492890000    -0.2434700000
   12      O       3.0642420000    -2.3902050000     0.9293610000
   13      C       0.7297730000    -0.3746380000    -0.4117750000
   14      C       1.4908640000     0.6962130000     0.2412740000
   15      O       2.7426550000     0.6822360000     0.3507190000
   16      C       0.7210910000     1.8220430000     0.7724220000
   17      C       1.4104360000     2.9037710000     1.3637250000
   18      C       0.7271360000     3.9848890000     1.8821320000
   19      C      -0.6830240000     4.0161240000     1.8314850000
   20      C      -1.3745090000     2.9654650000     1.2636460000
   21      C      -0.6930180000     1.8534140000     0.7215330000
   22      C      -1.4716910000     0.7620650000     0.1343530000
   23      O      -2.7274810000     0.8038210000     0.1532320000
   24      C      -0.7137890000    -0.3424550000    -0.4640560000
   25      H      -5.0009520000    -0.1415670000    -0.4846310000
   26      H      -5.6817800000    -1.6936190000     0.0866120000
   27      H      -5.2480690000    -1.4621450000    -1.6389920000
   28      H      -1.2537180000    -3.2035910000    -2.2611970000
   29      H       1.2702960000    -3.2602270000    -2.1691950000
   30      H       5.0115410000    -0.3656360000    -0.1209330000
   31      H       5.2830800000    -1.6997470000    -1.2540580000
   32      H       5.5783440000    -1.9447320000     0.4987040000
   33      H       2.4918810000     2.8484700000     1.3949390000
   34      H       1.2722620000     4.8093200000     2.3318520000
   35      H      -1.2220100000     4.8645510000     2.2422890000
   36      H      -2.4567910000     2.9581130000     1.2170870000
 ----------------------------------------------------------------

   16   -1144.9002973778      8.07e-09  Convergence criterion met
 Total energy in the final basis set =    -1144.9879625617

                    Orbital Energies (a.u.)
 --------------------------------------------------------------

 Alpha MOs
 -- Occupied --
-19.1691 -19.1690 -19.1119 -19.1118 -19.0791 -19.0791 -10.3058 -10.3058
-10.2440 -10.2440 -10.2334 -10.2334 -10.1938 -10.1934 -10.1848 -10.1843
-10.1828 -10.1823 -10.1808 -10.1803 -10.1786 -10.1786 -10.1706 -10.1706
 -1.1119  -1.1117  -1.0302  -1.0296  -1.0080  -1.0060  -0.8727  -0.8620
 -0.7985  -0.7864  -0.7583  -0.7539  -0.7526  -0.7275  -0.6824  -0.6607
 -0.6359  -0.6353  -0.5979  -0.5831  -0.5486  -0.5457  -0.5125  -0.4998
 -0.4907  -0.4904  -0.4844  -0.4823  -0.4738  -0.4683  -0.4639  -0.4526
 -0.4430  -0.4325  -0.4286  -0.4248  -0.4152  -0.4077  -0.4074  -0.4041
 -0.4034  -0.3935  -0.3823  -0.3816  -0.3770  -0.3750  -0.3630  -0.3615
 -0.3463  -0.3437  -0.3235  -0.3166  -0.2852  -0.2828  -0.2760  -0.2636
 -0.2605  -0.2547  -0.2481  -0.2375  -0.1479

 Beta MOs
 -- Occupied --
-19.1690 -19.1690 -19.1119 -19.1118 -19.0732 -19.0732 -10.3058 -10.3058
-10.2440 -10.2440 -10.2321 -10.2321 -10.1928 -10.1924 -10.1841 -10.1836
-10.1824 -10.1819 -10.1801 -10.1796 -10.1786 -10.1786 -10.1706 -10.1706
 -1.1118  -1.1116  -1.0300  -1.0294  -0.9980  -0.9958  -0.8702  -0.8608
 -0.7944  -0.7854  -0.7565  -0.7536  -0.7510  -0.7264  -0.6755  -0.6599
 -0.6341  -0.6332  -0.5970  -0.5818  -0.5463  -0.5443  -0.5111  -0.4991
 -0.4906  -0.4896  -0.4823  -0.4818  -0.4727  -0.4673  -0.4630  -0.4520
 -0.4422  -0.4322  -0.4242  -0.4189  -0.4106  -0.4056  -0.4051  -0.4032
 -0.4005  -0.3918  -0.3797  -0.3766  -0.3754  -0.3627  -0.3601  -0.3580
 -0.3443  -0.3335  -0.3220  -0.3159  -0.2850  -0.2826  -0.2583  -0.2565
 -0.2522  -0.2467  -0.2425  -0.2323

          Ground-State Mulliken Net Atomic Charges

     Atom                 Charge (a.u.)    Spin (a.u.)
  --------------------------------------------------------
      1 C                     0.083429       0.003168
      2 C                    -0.247556      -0.001769
      3 O                    -0.289078      -0.000626
      4 O                     0.061765      -0.001354
      5 C                    -0.271415       0.036527
      6 C                     1.809363       0.058545
      7 C                     1.807971       0.058454
      8 C                    -0.269896       0.036487
      9 O                     0.062053      -0.001340
     10 C                    -0.247324      -0.001735
     11 C                     0.083347       0.003169
     12 O                    -0.288866      -0.000605
     13 C                    -0.872277       0.043374
     14 C                    -2.008284       0.050729
     15 O                    -0.228140       0.225996
     16 C                    -0.956813       0.031723
     17 C                    -0.056512       0.030168
     18 C                     1.011565       0.031788
     19 C                     1.012145       0.031739
     20 C                    -0.057059       0.030133
     21 C                    -0.954031       0.031675
     22 C                    -2.008780       0.050771
     23 O                    -0.228467       0.226038
     24 C                    -0.868388       0.043408
     25 H                     0.187549      -0.000472
     26 H                     0.211116      -0.000214
     27 H                     0.231609       0.000356
     28 H                     0.321756      -0.004440
     29 H                     0.321557      -0.004440
     30 H                     0.187538      -0.000471
     31 H                     0.231666       0.000353
     32 H                     0.211054      -0.000212
     33 H                     0.155802      -0.000919
     34 H                     0.352894      -0.002542
     35 H                     0.352859      -0.002540
     36 H                     0.155850      -0.000921
  --------------------------------------------------------
  Sum of atomic charges =    -1.000000

                    Cartesian Multipole Moments
 -----------------------------------------------------------------
    Charge (ESU x 10^10)
                -4.8032
    Dipole Moment (Debye)
         X       0.1471      Y       0.6378      Z      -3.6259
       Tot       3.6845
    Quadrupole Moments (Debye-Ang)
        XX    -156.9552     XY      -0.3483     YY    -154.2531
        XZ      -0.0584     YZ      10.7405     ZZ    -148.5839

 Total job time:  1495.99s(wall), 11328.34s(cpu)
        *  Thank you very much for using Q-Chem.  Have a nice day.  *
