 Gaussian 16, Revision A.03,
 Gaussian 16:  ES64L-G16RevA.03 25-Dec-2016

 ----------------------------------------------------------------------
 #P UB3LYP/6-311++G(d,p) nosym opt freq SCRF=(PCM,Solvent=n,n-DiMethylF
 ormamide)
 ----------------------------------------------------------------------

 -------
 Reduced
 -------
 Symbolic Z-matrix:
 Charge = -2 Multiplicity = 1

 SCF Done:  E(UB3LYP) =  -650.095463640     A.U. after   17 cycles
 SCF Done:  E(UB3LYP) =  -650.096125781     A.U. after   13 cycles
 SCF Done:  E(UB3LYP) =  -650.096246929     A.U. after   13 cycles
 SCF Done:  E(UB3LYP) =  -650.096276316     A.U. after   12 cycles
 SCF Done:  E(UB3LYP) =  -650.096294288     A.U. after   11 cycles
 SCF Done:  E(UB3LYP) =  -650.096309398     A.U. after   12 cycles
 SCF Done:  E(UB3LYP) =  -650.096327003     A.U. after   11 cycles
 SCF Done:  E(UB3LYP) =  -650.096377589     A.U. after   12 cycles
 SCF Done:  E(UB3LYP) =  -650.096396057     A.U. after   12 cycles
 SCF Done:  E(UB3LYP) =  -650.096418774     A.U. after   11 cycles
 SCF Done:  E(UB3LYP) =  -650.096433555     A.U. after   12 cycles
 SCF Done:  E(UB3LYP) =  -650.096437812     A.U. after   11 cycles
 SCF Done:  E(UB3LYP) =  -650.096438414     A.U. after   10 cycles
 SCF Done:  E(UB3LYP) =  -650.096438574     A.U. after   10 cycles
 SCF Done:  E(UB3LYP) =  -650.096438613     A.U. after    8 cycles
 Optimization completed.
    -- Stationary point found.
 Normal termination of Gaussian 16 at Sun Feb 11 03:29:33 2024.

 ----------------------------------------------------------------------
 #P Geom=AllCheck Guess=TCheck SCRF=Check GenChk UB3LYP/6-311++G(d,p) F
 req
 ----------------------------------------------------------------------

 Structure from the checkpoint file:  "281-an.chk"
 -------
 Reduced
 -------
 Charge = -2 Multiplicity = 1

                          Input orientation:
 ---------------------------------------------------------------------
 Center     Atomic      Atomic             Coordinates (Angstroms)
 Number     Number       Type             X           Y           Z
 ---------------------------------------------------------------------
      1          6           0        3.277921   -0.260450   -0.110430
      2          6           0        1.775199   -0.383824   -0.144567
      3          6           0        0.977055    0.766913    0.098981
      4          8           0        1.508474    1.933984    0.349649
      5          6           0       -0.463234    0.575924    0.056247
      6          6           0       -1.338120    1.666876    0.282635
      7          6           0       -2.713627    1.534235    0.256372
      8          6           0       -3.288521    0.262835   -0.005439
      9          6           0       -2.475156   -0.825967   -0.233739
     10          6           0       -1.053623   -0.723085   -0.216702
     11          6           0       -0.225306   -1.854841   -0.458810
     12          8           0       -0.641310   -3.091418   -0.722277
     13          6           0        1.161590   -1.621705   -0.409700
     14          8           0        1.918441   -2.759091   -0.651406
     15          1           0        3.760489   -1.215102   -0.325806
     16          1           0        3.631525    0.086905    0.868422
     17          1           0        3.638904    0.476288   -0.838548
     18          1           0       -0.887089    2.632978    0.482357
     19          1           0       -3.351994    2.394143    0.434704
     20          1           0       -4.368736    0.150296   -0.025717
     21          1           0       -2.908328   -1.800424   -0.434137
     22          1           0        1.193004   -3.415545   -0.791513
 ---------------------------------------------------------------------

 SCF Done:  E(UB3LYP) =  -650.096438613     A.U. after    2 cycles

 Alpha  occ. eigenvalues --  -19.10861 -19.02255 -19.01494 -10.17597 -10.16962
 Alpha  occ. eigenvalues --  -10.15920 -10.14745 -10.14424 -10.14406 -10.14319
 Alpha  occ. eigenvalues --  -10.13857 -10.13757 -10.13344 -10.12709  -1.01953
 Alpha  occ. eigenvalues --   -0.92391  -0.91506  -0.82206  -0.76982  -0.72185
 Alpha  occ. eigenvalues --   -0.71999  -0.66424  -0.62946  -0.58199  -0.56289
 Alpha  occ. eigenvalues --   -0.53342  -0.50000  -0.46956  -0.44347  -0.42486
 Alpha  occ. eigenvalues --   -0.42041  -0.40112  -0.39847  -0.37737  -0.36919
 Alpha  occ. eigenvalues --   -0.36517  -0.35526  -0.34956  -0.34571  -0.33585
 Alpha  occ. eigenvalues --   -0.30985  -0.30738  -0.29743  -0.29199  -0.22736
 Alpha  occ. eigenvalues --   -0.22053  -0.21064  -0.19384  -0.19036  -0.11186
 Alpha virt. eigenvalues --   -0.00394  -0.00107   0.00921   0.01535   0.01979
 Alpha virt. eigenvalues --    0.02829   0.03218   0.04125   0.05404   0.05573
 Alpha virt. eigenvalues --    0.05712   0.05980   0.07584   0.07896   0.08936

  Beta  occ. eigenvalues --  -19.10861 -19.02255 -19.01494 -10.17597 -10.16962
  Beta  occ. eigenvalues --  -10.15920 -10.14745 -10.14424 -10.14406 -10.14319
  Beta  occ. eigenvalues --  -10.13857 -10.13757 -10.13344 -10.12709  -1.01953
  Beta  occ. eigenvalues --   -0.92391  -0.91506  -0.82206  -0.76982  -0.72185
  Beta  occ. eigenvalues --   -0.71999  -0.66424  -0.62946  -0.58199  -0.56289
  Beta  occ. eigenvalues --   -0.53342  -0.50000  -0.46956  -0.44347  -0.42486
  Beta  occ. eigenvalues --   -0.42041  -0.40112  -0.39847  -0.37737  -0.36919
  Beta  occ. eigenvalues --   -0.36517  -0.35526  -0.34956  -0.34571  -0.33585
  Beta  occ. eigenvalues --   -0.30985  -0.30738  -0.29743  -0.29199  -0.22736
  Beta  occ. eigenvalues --   -0.22053  -0.21064  -0.19384  -0.19036  -0.11186
  Beta virt. eigenvalues --   -0.00394  -0.00107   0.00921   0.01535   0.01979
  Beta virt. eigenvalues --    0.02829   0.03218   0.04125   0.05404   0.05573
  Beta virt. eigenvalues --    0.05712   0.05980   0.07584   0.07896   0.08936

 Mulliken charges and spin densities:
               1          2
     1  C   -0.218593  -0.000000
     2  C    1.388473  -0.000000
     3  C   -0.460726   0.000000
     4  O   -0.691101  -0.000000
     5  C    0.050987   0.000000
     6  C    0.046788   0.000000
     7  C   -0.449870  -0.000000
     8  C   -0.280379  -0.000000
     9  C   -0.218086   0.000000
    10  C    0.657917  -0.000000
    11  C   -0.984688   0.000000
    12  O   -0.754039  -0.000000
    13  C   -1.034013   0.000000
    14  O   -0.359187  -0.000000
    15  H    0.163471  -0.000000
    16  H    0.141200   0.000000
    17  H    0.141062   0.000000
    18  H    0.138675   0.000000
    19  H    0.151671  -0.000000
    20  H    0.155324  -0.000000
    21  H    0.137744   0.000000
    22  H    0.277370  -0.000000
 Sum of Mulliken charges =  -2.00000  -0.00000

 Dipole moment (field-independent basis, Debye):
    X=             -3.0584    Y=              4.8114    Z=              1.6386  Tot=              5.9320
 Quadrupole moment (field-independent basis, Debye-Ang):
   XX=           -113.8485   YY=           -140.9928   ZZ=            -95.1758
   XY=            -10.6843   XZ=             -2.1038   YZ=            -10.6110

  Exact polarizability: 340.087 -22.075 287.049  -4.562  32.668 139.482
 Approx polarizability: 378.584 -27.515 331.908  -5.767  39.767 152.348

                      1                      2                      3
                      A                      A                      A
 Frequencies --     68.6124               110.8514               130.2792
 Red. masses --      1.4488                 3.3097                 2.8638
 Frc consts  --      0.0040                 0.0240                 0.0286
 IR Inten    --      8.9584                 7.6892                 1.0535

                      4                      5                      6
                      A                      A                      A
 Frequencies --    176.1901               185.3718               258.2449
 Red. masses --      4.6141                 5.8302                 4.3647
 Frc consts  --      0.0844                 0.1180                 0.1715
 IR Inten    --      0.1838                 6.6963                19.4410

                      7                      8                      9
                      A                      A                      A
 Frequencies --    294.7895               307.3982               323.0989
 Red. masses --      3.4617                 4.7770                 5.6522
 Frc consts  --      0.1772                 0.2660                 0.3476
 IR Inten    --      2.9266                 1.8027                28.7464

                     10                     11                     12
                      A                      A                      A
 Frequencies --    361.3965               371.1826               432.7842
 Red. masses --     10.9998                 7.8250                 6.3789
 Frc consts  --      0.8465                 0.6352                 0.7039
 IR Inten    --     10.2819                 0.0439                 9.9908

                     13                     14                     15
                      A                      A                      A
 Frequencies --    440.2666               454.9872               520.0904
 Red. masses --      8.4046                 3.2196                10.1904
 Frc consts  --      0.9598                 0.3927                 1.6240
 IR Inten    --      9.6128                 6.0385                 4.1167

                     16                     17                     18
                      A                      A                      A
 Frequencies --    528.0035               610.2086               663.0866
 Red. masses --      3.9563                 6.9169                 6.2047
 Frc consts  --      0.6498                 1.5175                 1.6073
 IR Inten    --      1.3314                65.3511                 6.9776

                     19                     20                     21
                      A                      A                      A
 Frequencies --    679.2486               692.6407               699.1302
 Red. masses --      4.1519                 3.0966                 5.4663
 Frc consts  --      1.1287                 0.8753                 1.5742
 IR Inten    --      0.0255                75.2154                 4.4285

                     22                     23                     24
                      A                      A                      A
 Frequencies --    723.3816               749.7621               770.1473
 Red. masses --      1.3202                 2.1953                 2.5602
 Frc consts  --      0.4070                 0.7271                 0.8947
 IR Inten    --    191.9115                 2.2636                27.4573

                     25                     26                     27
                      A                      A                      A
 Frequencies --    838.6937               847.1249               924.4020
 Red. masses --      1.4541                 3.4853                 5.9654
 Frc consts  --      0.6026                 1.4736                 3.0034
 IR Inten    --      0.1075               101.8378               101.8810

                     28                     29                     30
                      A                      A                      A
 Frequencies --    961.5206               970.7062               998.1999
 Red. masses --      1.3411                 1.2429                 3.0233
 Frc consts  --      0.7305                 0.6900                 1.7749
 IR Inten    --      3.6006                 0.3916                98.9112

                     31                     32                     33
                      A                      A                      A
 Frequencies --   1022.8906              1043.0308              1068.0160
 Red. masses --      2.1773                 1.4338                 2.8465
 Frc consts  --      1.3422                 0.9190                 1.9130
 IR Inten    --     93.0438                 0.0288               597.6083

                     34                     35                     36
                      A                      A                      A
 Frequencies --   1097.8442              1128.2939              1160.3822
 Red. masses --      2.6266                 1.9744                 2.0678
 Frc consts  --      1.8652                 1.4809                 1.6405
 IR Inten    --     42.9942                22.2468                41.0201

                     37                     38                     39
                      A                      A                      A
 Frequencies --   1185.5034              1238.4825              1286.3851
 Red. masses --      1.7564                 2.7623                 2.7435
 Frc consts  --      1.4544                 2.4963                 2.6748
 IR Inten    --    110.2559               294.3394               101.9196

                     40                     41                     42
                      A                      A                      A
 Frequencies --   1317.4171              1340.8625              1373.8907
 Red. masses --      5.8305                 1.8152                 3.1399
 Frc consts  --      5.9621                 1.9228                 3.4920
 IR Inten    --    520.1981               409.4230               923.1453

                     43                     44                     45
                      A                      A                      A
 Frequencies --   1396.1661              1425.6655              1431.3308
 Red. masses --      1.8259                 4.5840                 2.4177
 Frc consts  --      2.0970                 5.4895                 2.9183
 IR Inten    --    695.6988                24.1775                66.1395

                     46                     47                     48
                      A                      A                      A
 Frequencies --   1460.2241              1467.1708              1481.3618
 Red. masses --      2.1601                 1.0558                 1.2650
 Frc consts  --      2.7137                 1.3390                 1.6355
 IR Inten    --     19.2499                 7.7281                67.8959

                     49                     50                     51
                      A                      A                      A
 Frequencies --   1520.0013              1546.2222              1597.3478
 Red. masses --      3.6259                 5.2523                 5.0510
 Frc consts  --      4.9358                 7.3985                 7.5933
 IR Inten    --     16.5900               279.0014               120.0604

                     52                     53                     54
                      A                      A                      A
 Frequencies --   1614.1058              2991.8272              3020.3335
 Red. masses --      5.6764                 1.0432                 1.0962
 Frc consts  --      8.7134                 5.5015                 5.8919
 IR Inten    --     10.4473               175.1376                86.8391

                     55                     56                     57
                      A                      A                      A
 Frequencies --   3098.8093              3135.2245              3150.4914
 Red. masses --      1.0949                 1.0842                 1.0880
 Frc consts  --      6.1943                 6.2792                 6.3625
 IR Inten    --     36.3113                15.3307                26.0787

                     58                     59                     60
                      A                      A                      A
 Frequencies --   3164.2562              3171.4845              3367.9189
 Red. masses --      1.0921                 1.0939                 1.0640
 Frc consts  --      6.4426                 6.4825                 7.1110
 IR Inten    --     58.8247                65.5624               266.2362

 - Thermochemistry -
 -------------------
 Temperature   298.150 Kelvin.  Pressure   1.00000 Atm.
 Atom     1 has atomic number  6 and mass  12.00000

 Molecular mass:   188.04734 amu.
 Principal axes and moments of inertia in atomic units:
                           1         2         3
     Eigenvalues --  1690.646902707.901604387.49436
           X            0.91009   0.41442  -0.00070
           Y           -0.40552   0.89019  -0.20765
           Z           -0.08543   0.18927   0.97820
 This molecule is an asymmetric top.
 Rotational symmetry number  1.
 Warning -- assumption of classical behavior for rotation
           may cause significant error
 Rotational temperatures (Kelvin)      0.05123     0.03199     0.01974
 Rotational constants (GHZ):           1.06749     0.66647     0.41134
 Zero-point vibrational energy     421054.1 (Joules/Mol)
                                  100.63433 (Kcal/Mol)
 Warning -- explicit consideration of  17 degrees of freedom as
           vibrations may cause significant error
 Vibrational temperatures:     98.72   159.49   187.44   253.50   266.71
          (Kelvin)            371.56   424.14   442.28   464.87   519.97
                              534.05   622.68   633.45   654.63   748.29
                              759.68   877.95   954.03   977.29   996.56
                             1005.89  1040.78  1078.74  1108.07  1206.69
                             1218.82  1330.01  1383.41  1396.63  1436.19
                             1471.71  1500.69  1536.64  1579.55  1623.36
                             1669.53  1705.68  1781.90  1850.82  1895.47
                             1929.20  1976.72  2008.77  2051.21  2059.37
                             2100.94  2110.93  2131.35  2186.94  2224.67
                             2298.23  2322.34  4304.57  4345.59  4458.50
                             4510.89  4532.85  4552.66  4563.06  4845.68

 Zero-point correction=                           0.160371 (Hartree/Particle)
 Thermal correction to Energy=                    0.171699
 Thermal correction to Enthalpy=                  0.172643
 Thermal correction to Gibbs Free Energy=         0.123401
 Sum of electronic and zero-point Energies=           -649.936068
 Sum of electronic and thermal Energies=              -649.924740
 Sum of electronic and thermal Enthalpies=            -649.923796
 Sum of electronic and thermal Free Energies=         -649.973038

                     E (Thermal)             CV                S
                      KCal/Mol        Cal/Mol-Kelvin    Cal/Mol-Kelvin
 Total                  107.743             44.863            103.639
 Electronic               0.000              0.000              0.000
 Translational            0.889              2.981             41.600
 Rotational               0.889              2.981             31.374
 Vibrational            105.965             38.902             30.664
 Vibration     1          0.598              1.969              4.193
 Vibration     2          0.607              1.940              3.254
 Vibration     3          0.612              1.923              2.942
 Vibration     4          0.628              1.872              2.368
 Vibration     5          0.631              1.860              2.274
 Vibration     6          0.667              1.749              1.674
 Vibration     7          0.689              1.683              1.446
 Vibration     8          0.697              1.660              1.376
 Vibration     9          0.708              1.629              1.294
 Vibration    10          0.736              1.552              1.116
 Vibration    11          0.743              1.531              1.075
 Vibration    12          0.794              1.399              0.850
 Vibration    13          0.800              1.382              0.826
 Vibration    14          0.813              1.350              0.781
 Vibration    15          0.875              1.206              0.610
 Vibration    16          0.883              1.188              0.592
 Vibration    17          0.969              1.010              0.432

 Optimization completed.
    -- Stationary point found.
 Normal termination of Gaussian 16 at Sun Feb 11 03:57:47 2024.
