 Q-Chem 5.4, Q-Chem, Inc., Pleasanton, CA (2021)
 Q-Chem 5.4.0 for Intel X86 EM64T Linux

User input:
--------------------------------------------------------------
$molecule
-2 1
C                 -1.2654030000      2.4486610000     -2.9041900000
C                 -2.1493230000      2.2735940000     -1.7849460000
C                  0.0935600000      2.1633230000     -2.5365710000
C                  0.4621870000      1.4946140000     -1.3729600000
C                 -0.5343030000      0.9036790000     -0.4981930000
C                 -1.8013910000      1.6026930000     -0.6168280000
C                 -0.2865220000     -0.2204060000      0.4536370000
C                 -1.3145290000     -0.8241230000      1.2825340000
C                  0.9817110000     -0.9049080000      0.6279360000
C                  1.2841630000     -1.5709280000      1.8119840000
C                  0.3522620000     -1.7615170000      2.8883080000
C                 -0.9925270000     -1.4939520000      2.4587000000
O                 -1.6155290000      2.9535460000     -4.0223600000
O                  0.6566600000     -2.2645970000      4.0205920000
C                  1.9002690000      1.7601460000     -0.8792080000
C                  1.9484230000      3.1568710000     -0.2150550000
C                  3.0000500000      1.6838870000     -1.9547880000
C                  1.8666980000     -1.2657320000     -0.5840650000
C                  1.4265300000     -2.6455850000     -1.1286500000
C                  3.3831890000     -1.2984650000     -0.3167400000
C                 -2.7310080000     -1.0842160000      0.7254470000
C                 -3.8663310000     -1.0831870000      1.7658140000
C                 -2.7321040000     -2.4424090000     -0.0149420000
C                 -2.6321770000      1.9555650000      0.6360630000
C                 -2.1129520000      3.2922180000      1.2163200000
C                 -4.1526720000      2.0645550000      0.4181280000
H                 -3.0989600000      2.7967580000     -1.8518220000
H                  0.8539700000      2.6065510000     -3.1736940000
H                  2.2354200000     -2.0848510000      1.9196210000
H                 -1.7752910000     -1.9451880000      3.0617140000
H                  2.1421860000      1.0565500000     -0.0878430000
H                  2.9460170000      3.3539330000      0.2026250000
H                  1.2213170000      3.2189380000      0.5973020000
H                  1.7125620000      3.9425070000     -0.9395720000
H                  2.9782920000      0.7359770000     -2.4975460000
H                  3.9912930000      1.7893860000     -1.4962650000
H                  2.8920630000      2.4865000000     -2.6903820000
H                  1.6735130000     -0.5633920000     -1.3897920000
H                  1.5821200000     -3.4289010000     -0.3803170000
H                  1.9965230000     -2.9062550000     -2.0317760000
H                  0.3657540000     -2.6334790000     -1.3876620000
H                  3.6479300000     -2.1093170000      0.3683510000
H                  3.7424520000     -0.3656670000      0.1242210000
H                  3.9327800000     -1.4654420000     -1.2516210000
H                 -2.9624820000     -0.3409330000     -0.0326870000
H                 -4.8398610000     -1.1647990000      1.2664030000
H                 -3.8704890000     -0.1707620000      2.3666700000
H                 -3.7790650000     -1.9301640000      2.4530240000
H                 -3.7164090000     -2.6401360000     -0.4625380000
H                 -2.4903150000     -3.2607050000      0.6707640000
H                 -1.9894100000     -2.4413510000     -0.8154840000
H                 -2.4505620000      1.2142540000      1.4095910000
H                 -2.6537350000      3.5521700000      2.1373440000
H                 -2.2406040000      4.1063040000      0.4957240000
H                 -1.0503970000      3.2167750000      1.4565990000
H                 -4.6650920000      2.2077450000      1.3776920000
H                 -4.5641510000      1.1694410000     -0.0541290000
H                 -4.4046450000      2.9184440000     -0.2179630000
$end
$rem
MAX_SCF_CYCLES=200
BASIS  =  6-311++G(d,p)
GUI  =  2
JOB_TYPE  =  SP
METHOD  =  B3LYP
SOLVENT_METHOD = PCM
$end
$pcm
theory = CPCM
$end
$solvent
dielectric 37.219
opticaldielectric 1.43
$end

--------------------------------------------------------------

             Standard Nuclear Orientation (Angstroms)
    I     Atom           X                Y                Z
 ----------------------------------------------------------------
    1      C      -1.2654030000     2.4486610000    -2.9041900000
    2      C      -2.1493230000     2.2735940000    -1.7849460000
    3      C       0.0935600000     2.1633230000    -2.5365710000
    4      C       0.4621870000     1.4946140000    -1.3729600000
    5      C      -0.5343030000     0.9036790000    -0.4981930000
    6      C      -1.8013910000     1.6026930000    -0.6168280000
    7      C      -0.2865220000    -0.2204060000     0.4536370000
    8      C      -1.3145290000    -0.8241230000     1.2825340000
    9      C       0.9817110000    -0.9049080000     0.6279360000
   10      C       1.2841630000    -1.5709280000     1.8119840000
   11      C       0.3522620000    -1.7615170000     2.8883080000
   12      C      -0.9925270000    -1.4939520000     2.4587000000
   13      O      -1.6155290000     2.9535460000    -4.0223600000
   14      O       0.6566600000    -2.2645970000     4.0205920000
   15      C       1.9002690000     1.7601460000    -0.8792080000
   16      C       1.9484230000     3.1568710000    -0.2150550000
   17      C       3.0000500000     1.6838870000    -1.9547880000
   18      C       1.8666980000    -1.2657320000    -0.5840650000
   19      C       1.4265300000    -2.6455850000    -1.1286500000
   20      C       3.3831890000    -1.2984650000    -0.3167400000
   21      C      -2.7310080000    -1.0842160000     0.7254470000
   22      C      -3.8663310000    -1.0831870000     1.7658140000
   23      C      -2.7321040000    -2.4424090000    -0.0149420000
   24      C      -2.6321770000     1.9555650000     0.6360630000
   25      C      -2.1129520000     3.2922180000     1.2163200000
   26      C      -4.1526720000     2.0645550000     0.4181280000
   27      H      -3.0989600000     2.7967580000    -1.8518220000
   28      H       0.8539700000     2.6065510000    -3.1736940000
   29      H       2.2354200000    -2.0848510000     1.9196210000
   30      H      -1.7752910000    -1.9451880000     3.0617140000
   31      H       2.1421860000     1.0565500000    -0.0878430000
   32      H       2.9460170000     3.3539330000     0.2026250000
   33      H       1.2213170000     3.2189380000     0.5973020000
   34      H       1.7125620000     3.9425070000    -0.9395720000
   35      H       2.9782920000     0.7359770000    -2.4975460000
   36      H       3.9912930000     1.7893860000    -1.4962650000
   37      H       2.8920630000     2.4865000000    -2.6903820000
   38      H       1.6735130000    -0.5633920000    -1.3897920000
   39      H       1.5821200000    -3.4289010000    -0.3803170000
   40      H       1.9965230000    -2.9062550000    -2.0317760000
   41      H       0.3657540000    -2.6334790000    -1.3876620000
   42      H       3.6479300000    -2.1093170000     0.3683510000
   43      H       3.7424520000    -0.3656670000     0.1242210000
   44      H       3.9327800000    -1.4654420000    -1.2516210000
   45      H      -2.9624820000    -0.3409330000    -0.0326870000
   46      H      -4.8398610000    -1.1647990000     1.2664030000
   47      H      -3.8704890000    -0.1707620000     2.3666700000
   48      H      -3.7790650000    -1.9301640000     2.4530240000
   49      H      -3.7164090000    -2.6401360000    -0.4625380000
   50      H      -2.4903150000    -3.2607050000     0.6707640000
   51      H      -1.9894100000    -2.4413510000    -0.8154840000
   52      H      -2.4505620000     1.2142540000     1.4095910000
   53      H      -2.6537350000     3.5521700000     2.1373440000
   54      H      -2.2406040000     4.1063040000     0.4957240000
   55      H      -1.0503970000     3.2167750000     1.4565990000
   56      H      -4.6650920000     2.2077450000     1.3776920000
   57      H      -4.5641510000     1.1694410000    -0.0541290000
   58      H      -4.4046450000     2.9184440000    -0.2179630000
 ----------------------------------------------------------------

    8   -1084.7578820067      9.69e-06  Convergence criterion met
 Total energy in the final basis set =    -1084.7578820067

                    Orbital Energies (a.u.)
 --------------------------------------------------------------

 Alpha MOs
 -- Occupied --
-19.0359 -19.0359 -10.1857 -10.1857 -10.1582 -10.1582 -10.1578 -10.1577
-10.1520 -10.1519 -10.1519 -10.1519 -10.1486 -10.1483 -10.1432 -10.1431
-10.1431 -10.1431 -10.1430 -10.1430 -10.1428 -10.1428 -10.1197 -10.1197
-10.1196 -10.1195  -0.9532  -0.9532  -0.8346  -0.8115  -0.7963  -0.7833
 -0.7590  -0.7501  -0.7102  -0.6918  -0.6889  -0.6707  -0.6700  -0.6686
 -0.6655  -0.6524  -0.6081  -0.5934  -0.5852  -0.5672  -0.5463  -0.5257
 -0.5153  -0.5121  -0.4801  -0.4683  -0.4403  -0.4392  -0.4362  -0.4285
 -0.4213  -0.4197  -0.4184  -0.4156  -0.4144  -0.3978  -0.3969  -0.3935
 -0.3881  -0.3828  -0.3821  -0.3766  -0.3740  -0.3721  -0.3686  -0.3671
 -0.3580  -0.3503  -0.3448  -0.3437  -0.3406  -0.3400  -0.3327  -0.3281
 -0.3253  -0.3250  -0.3227  -0.3144  -0.3118  -0.3090  -0.3037  -0.3030
 -0.2877  -0.2855  -0.2455  -0.2110  -0.2106  -0.1999  -0.1948  -0.1886
 -0.1260

          Ground-State Mulliken Net Atomic Charges

     Atom                 Charge (a.u.)
  ----------------------------------------
      1 C                    -0.505295
      2 C                    -0.381269
      3 C                    -0.383093
      4 C                     0.405951
      5 C                     0.179355
      6 C                     0.410162
      7 C                     0.173076
      8 C                     0.431545
      9 C                     0.391783
     10 C                    -0.372143
     11 C                    -0.504988
     12 C                    -0.394331
     13 O                    -0.662232
     14 O                    -0.662081
     15 C                     0.046152
     16 C                    -0.655305
     17 C                    -0.745780
     18 C                     0.049457
     19 C                    -0.652821
     20 C                    -0.748297
     21 C                     0.032698
     22 C                    -0.743401
     23 C                    -0.673309
     24 C                     0.036368
     25 C                    -0.669662
     26 C                    -0.745735
     27 H                     0.164085
     28 H                     0.163981
     29 H                     0.164318
     30 H                     0.163987
     31 H                     0.257891
     32 H                     0.156175
     33 H                     0.124354
     34 H                     0.170807
     35 H                     0.146476
     36 H                     0.170217
     37 H                     0.143248
     38 H                     0.257813
     39 H                     0.170950
     40 H                     0.156329
     41 H                     0.123531
     42 H                     0.142651
     43 H                     0.146660
     44 H                     0.169947
     45 H                     0.257732
     46 H                     0.171641
     47 H                     0.145977
     48 H                     0.142417
     49 H                     0.153654
     50 H                     0.171166
     51 H                     0.133212
     52 H                     0.257081
     53 H                     0.153867
     54 H                     0.171789
     55 H                     0.131979
     56 H                     0.171664
     57 H                     0.145751
     58 H                     0.141845
  ----------------------------------------
  Sum of atomic charges =    -2.000000

                    Cartesian Multipole Moments
 -----------------------------------------------------------------
    Charge (ESU x 10^10)
                -9.6064
    Dipole Moment (Debye)
         X       4.4616      Y      -3.3009      Z       0.0524
       Tot       5.5502
    Quadrupole Moments (Debye-Ang)
        XX    -185.7649     XY      23.2962     YY    -227.7923
        XZ     -34.9454     YZ      77.4391     ZZ    -296.9935

 Total job time:  265.78s(wall), 1678.06s(cpu)
        *  Thank you very much for using Q-Chem.  Have a nice day.  *
