 Gaussian 16, Revision A.03,
 Gaussian 16:  ES64L-G16RevA.03 25-Dec-2016

 ----------------------------------------------------------------
 #P UB3LYP/6-311++G(d,p) SCRF=(PCM,Solvent=n,n-DiMethylFormamide)
 ----------------------------------------------------------------

 ------------------
 Radical PCM in DMF
 ------------------
 Symbolic Z-matrix:
 Charge = -1 Multiplicity = 2

                         Standard orientation:
 ---------------------------------------------------------------------
 Center     Atomic      Atomic             Coordinates (Angstroms)
 Number     Number       Type             X           Y           Z
 ---------------------------------------------------------------------
      1          6           0       -1.345246    1.564748    0.069367
      2          6           0       -0.062413    0.902030    0.025436
      3          6           0        0.079319   -0.459245   -0.039543
      4          6           0       -1.091412   -1.326050   -0.063861
      5          6           0       -2.395082   -0.673052   -0.023198
      6          6           0       -2.520472    0.700001    0.040299
      7          6           0       -3.872631    1.367687    0.082832
      8          6           0       -3.610006   -1.568690   -0.053088
      9          8           0       -1.434838    2.827732    0.130214
     10          8           0       -0.972202   -2.588153   -0.116143
     11          6           0        1.433588   -1.147912   -0.059004
     12          6           0        2.550287   -0.327530   -0.635118
     13          6           0        3.694896    0.066494   -0.060362
     14          6           0        4.088952   -0.234411    1.364631
     15          6           0        4.708668    0.884701   -0.825283
     16          1           0        0.808347    1.551248    0.049158
     17          1           0       -4.472312    1.130749   -0.805631
     18          1           0       -3.737113    2.448726    0.134581
     19          1           0       -4.459642    1.044551    0.952315
     20          1           0       -3.290286   -2.609570   -0.111511
     21          1           0       -4.255142   -1.349046   -0.913474
     22          1           0       -4.230165   -1.441894    0.843770
     23          1           0        1.311515   -2.064721   -0.648266
     24          1           0        1.674965   -1.499207    0.950765
     25          1           0        2.384772   -0.014047   -1.665922
     26          1           0        3.320976   -0.785155    1.906877
     27          1           0        4.287197    0.695231    1.913363
     28          1           0        5.016443   -0.821725    1.399400
     29          1           0        4.378204    1.080006   -1.848062
     30          1           0        5.680332    0.374220   -0.872264
     31          1           0        4.887552    1.851365   -0.336319
 ---------------------------------------------------------------------

 SCF Done:  E(UB3LYP) =  -655.771004410     A.U. after   19 cycles

 The electronic state is 2-A.
 Alpha  occ. eigenvalues --  -19.06938 -19.06896 -10.20997 -10.20971 -10.17291
 Alpha  occ. eigenvalues --  -10.16451 -10.16178 -10.16119 -10.16014 -10.15924
 Alpha  occ. eigenvalues --  -10.15892 -10.15690 -10.15010 -10.14992 -10.14941
 Alpha  occ. eigenvalues --   -0.99119  -0.98844  -0.82628  -0.81063  -0.77834
 Alpha  occ. eigenvalues --   -0.72405  -0.71819  -0.68919  -0.66343  -0.65561
 Alpha  occ. eigenvalues --   -0.61981  -0.55641  -0.53685  -0.51253  -0.48600
 Alpha  occ. eigenvalues --   -0.46253  -0.44943  -0.43155  -0.42912  -0.42803
 Alpha  occ. eigenvalues --   -0.41643  -0.39984  -0.39168  -0.38992  -0.38541
 Alpha  occ. eigenvalues --   -0.38279  -0.38190  -0.37947  -0.37111  -0.36618
 Alpha  occ. eigenvalues --   -0.35995  -0.35347  -0.34249  -0.33356  -0.32361
 Alpha  occ. eigenvalues --   -0.26826  -0.24336  -0.23765  -0.23132  -0.22326
 Alpha  occ. eigenvalues --   -0.15271
 Alpha virt. eigenvalues --   -0.00662  -0.00032   0.00295   0.01183   0.01483
 Alpha virt. eigenvalues --    0.01833   0.02193   0.03098   0.03174   0.03687
 Alpha virt. eigenvalues --    0.04091   0.04275   0.04796   0.05112   0.05136

  Beta  occ. eigenvalues --  -19.06264 -19.06222 -10.20842 -10.20794 -10.17292
  Beta  occ. eigenvalues --  -10.16324 -10.16187 -10.16036 -10.15924 -10.15908
  Beta  occ. eigenvalues --  -10.15892 -10.15687 -10.15019 -10.14999 -10.14847
  Beta  occ. eigenvalues --   -0.97936  -0.97635  -0.82224  -0.80906  -0.77664
  Beta  occ. eigenvalues --   -0.72220  -0.71550  -0.68918  -0.65987  -0.65179
  Beta  occ. eigenvalues --   -0.61598  -0.55303  -0.53279  -0.51207  -0.48422
  Beta  occ. eigenvalues --   -0.46170  -0.44613  -0.43022  -0.42796  -0.42330
  Beta  occ. eigenvalues --   -0.41215  -0.39644  -0.38760  -0.38695  -0.38295
  Beta  occ. eigenvalues --   -0.38210  -0.38001  -0.37855  -0.36672  -0.35938
  Beta  occ. eigenvalues --   -0.35308  -0.34007  -0.33560  -0.32788  -0.32211
  Beta  occ. eigenvalues --   -0.24347  -0.23641  -0.23099  -0.22378  -0.21851
  Beta virt. eigenvalues --   -0.08097  -0.00617   0.00009   0.01156   0.01215
  Beta virt. eigenvalues --    0.01696   0.02085   0.02221   0.03197   0.03326
  Beta virt. eigenvalues --    0.03802   0.04235   0.04739   0.04897   0.05150

 Mulliken charges and spin densities:
               1          2
     1  C   -1.006826   0.106477
     2  C   -0.752066   0.027566
     3  C    1.175995   0.073602
     4  C   -1.039660   0.126179
     5  C    0.184540   0.036558
     6  C    0.980576   0.117207
     7  C   -0.446469   0.008634
     8  C   -0.498185  -0.006620
     9  O   -0.503371   0.238368
    10  O   -0.480469   0.245649
    11  C   -0.500596   0.018684
    12  C    0.372823  -0.003949
    13  C    0.211375  -0.000090
    14  C   -0.604354  -0.000640
    15  C   -0.620704   0.000184
    16  H    0.167378  -0.007605
    17  H    0.147740   0.003752
    18  H    0.178906  -0.001854
    19  H    0.148104   0.003677
    20  H    0.186587  -0.001682
    21  H    0.146101   0.002800
    22  H    0.148127   0.002851
    23  H    0.196501   0.001192
    24  H    0.162795   0.009568
    25  H    0.167330   0.000214
    26  H    0.135164  -0.000583
    27  H    0.148826  -0.000017
    28  H    0.149206   0.000006
    29  H    0.151219  -0.000087
    30  H    0.143015  -0.000033
    31  H    0.150391  -0.000008
 Sum of Mulliken charges =  -1.00000   1.00000

 Dipole moment (field-independent basis, Debye):
    X=              5.5689    Y=             -1.1300    Z=              0.2588  Tot=              5.6883
 Quadrupole moment (field-independent basis, Debye-Ang):
   XX=            -97.3857   YY=           -136.4541   ZZ=            -94.6565
   XY=              5.4510   XZ=              1.6560   YZ=             -2.2907

 Normal termination of Gaussian 16 at Sun Jan 21 07:21:41 2024.
