 Gaussian 16, Revision A.03,
 Gaussian 16:  ES64L-G16RevA.03 25-Dec-2016

 --------------------------------------
 #P UB3LYP/6-311++G(d,p) nosym opt freq
 --------------------------------------

 -------
 Radical
 -------
 Symbolic Z-matrix:
 Charge = -1 Multiplicity = 2

 SCF Done:  E(UB3LYP) =  -655.688171850     A.U. after   22 cycles
 SCF Done:  E(UB3LYP) =  -655.688172015     A.U. after   10 cycles
 SCF Done:  E(UB3LYP) =  -655.688172242     A.U. after   10 cycles
 SCF Done:  E(UB3LYP) =  -655.688172636     A.U. after   11 cycles
 SCF Done:  E(UB3LYP) =  -655.688174026     A.U. after   12 cycles
 SCF Done:  E(UB3LYP) =  -655.688178302     A.U. after   13 cycles
 SCF Done:  E(UB3LYP) =  -655.643507582     A.U. after   18 cycles
 SCF Done:  E(UB3LYP) =  -655.688359883     A.U. after   15 cycles
 SCF Done:  E(UB3LYP) =  -655.680098411     A.U. after   19 cycles
 SCF Done:  E(UB3LYP) =  -655.688462341     A.U. after   15 cycles
 SCF Done:  E(UB3LYP) =  -655.691992300     A.U. after   15 cycles
 SCF Done:  E(UB3LYP) =  -655.692011510     A.U. after   14 cycles
 SCF Done:  E(UB3LYP) =  -655.692020064     A.U. after   14 cycles
 SCF Done:  E(UB3LYP) =  -655.692036026     A.U. after   14 cycles
 SCF Done:  E(UB3LYP) =  -655.692048062     A.U. after   15 cycles
 SCF Done:  E(UB3LYP) =  -655.692050507     A.U. after   13 cycles
 SCF Done:  E(UB3LYP) =  -655.692055703     A.U. after   14 cycles
 SCF Done:  E(UB3LYP) =  -655.692056515     A.U. after   13 cycles
 SCF Done:  E(UB3LYP) =  -655.692056554     A.U. after   10 cycles
 Optimization completed.
    -- Stationary point found.
 Normal termination of Gaussian 16 at Thu Jan 18 11:19:34 2024.

 ----------------------------------------------------------------------
 #P Geom=AllCheck Guess=TCheck SCRF=Check GenChk UB3LYP/6-311++G(d,p) F
 req
 ----------------------------------------------------------------------

 Structure from the checkpoint file:  "040-rad.chk"
 -------
 Radical
 -------
 Charge = -1 Multiplicity = 2

                          Input orientation:
 ---------------------------------------------------------------------
 Center     Atomic      Atomic             Coordinates (Angstroms)
 Number     Number       Type             X           Y           Z
 ---------------------------------------------------------------------
      1          6           0        0.643900    1.419606   -0.509521
      2          6           0       -0.476700    0.542066   -0.262609
      3          6           0       -0.338812   -0.751199    0.168474
      4          6           0        0.983005   -1.318280    0.400360
      5          6           0        2.125860   -0.444705    0.158772
      6          6           0        1.969522    0.856660   -0.273707
      7          6           0        3.156863    1.753596   -0.522046
      8          6           0        3.496609   -1.028291    0.402850
      9          8           0        0.475000    2.610668   -0.909146
     10          8           0        1.123064   -2.516929    0.792115
     11          6           0       -1.523088   -1.674479    0.400272
     12          6           0       -2.804182   -0.979641    0.757973
     13          6           0       -3.983763   -0.999075    0.122411
     14          6           0       -4.256211   -1.744215   -1.160931
     15          6           0       -5.170539   -0.234585    0.660389
     16          1           0       -1.460555    0.966588   -0.441718
     17          1           0        3.759951    1.891844    0.384759
     18          1           0        2.804720    2.729246   -0.859375
     19          1           0        3.828562    1.338851   -1.284808
     20          1           0        3.395004   -2.058576    0.745274
     21          1           0        4.051637   -0.458380    1.159060
     22          1           0        4.109548   -1.019992   -0.507791
     23          1           0       -1.237108   -2.354857    1.211426
     24          1           0       -1.650836   -2.324616   -0.472829
     25          1           0       -2.743649   -0.375179    1.663062
     26          1           0       -3.372670   -2.248393   -1.551184
     27          1           0       -4.620787   -1.056704   -1.934917
     28          1           0       -5.041851   -2.498248   -1.017437
     29          1           0       -4.924166    0.290639    1.586060
     30          1           0       -6.018071   -0.903621    0.862895
     31          1           0       -5.525915    0.507733   -0.066383
 ---------------------------------------------------------------------

 SCF Done:  E(UB3LYP) =  -655.692056554     A.U. after    1 cycles

 Alpha  occ. eigenvalues --  -18.93138 -18.92891 -10.07580 -10.07518 -10.07493
 Alpha  occ. eigenvalues --  -10.07324 -10.07273 -10.05859 -10.04730 -10.03465
 Alpha  occ. eigenvalues --  -10.03188 -10.03163 -10.03126 -10.03020 -10.01915
 Alpha  occ. eigenvalues --   -0.85296  -0.84830  -0.71775  -0.69189  -0.66022
 Alpha  occ. eigenvalues --   -0.61103  -0.60255  -0.59475  -0.55177  -0.52904
 Alpha  occ. eigenvalues --   -0.50101  -0.43324  -0.41216  -0.40735  -0.36569
 Alpha  occ. eigenvalues --   -0.36017  -0.34306  -0.33400  -0.31382  -0.30654
 Alpha  occ. eigenvalues --   -0.29836  -0.28842  -0.28603  -0.27846  -0.27219
 Alpha  occ. eigenvalues --   -0.27078  -0.26220  -0.25777  -0.25252  -0.25176
 Alpha  occ. eigenvalues --   -0.23840  -0.22938  -0.21894  -0.21232  -0.20453
 Alpha  occ. eigenvalues --   -0.14024  -0.13043  -0.10377  -0.09905  -0.08928
 Alpha  occ. eigenvalues --   -0.01583
 Alpha virt. eigenvalues --    0.06689   0.08707   0.09069   0.09436   0.10561
 Alpha virt. eigenvalues --    0.11264   0.11923   0.12231   0.12421   0.12744
 Alpha virt. eigenvalues --    0.13044   0.13240   0.13612   0.13946   0.14598

  Beta  occ. eigenvalues --  -18.92443 -18.92154 -10.07580 -10.07494 -10.07371
  Beta  occ. eigenvalues --  -10.07272 -10.07214 -10.05857 -10.04740 -10.03350
  Beta  occ. eigenvalues --  -10.03194 -10.03172 -10.03039 -10.02902 -10.01797
  Beta  occ. eigenvalues --   -0.84088  -0.83545  -0.71748  -0.68690  -0.65880
  Beta  occ. eigenvalues --   -0.60925  -0.60251  -0.59236  -0.54978  -0.52517
  Beta  occ. eigenvalues --   -0.49538  -0.43059  -0.41058  -0.40415  -0.36537
  Beta  occ. eigenvalues --   -0.35874  -0.34296  -0.33329  -0.30998  -0.30269
  Beta  occ. eigenvalues --   -0.29836  -0.28729  -0.28277  -0.27802  -0.27078
  Beta  occ. eigenvalues --   -0.26907  -0.26105  -0.25731  -0.24799  -0.24526
  Beta  occ. eigenvalues --   -0.23204  -0.21998  -0.20920  -0.20242  -0.19215
  Beta  occ. eigenvalues --   -0.13836  -0.10131  -0.09323  -0.09241  -0.08281
  Beta virt. eigenvalues --    0.05634   0.06693   0.08710   0.09075   0.09444
  Beta virt. eigenvalues --    0.10564   0.11269   0.11957   0.12253   0.12458
  Beta virt. eigenvalues --    0.12832   0.13076   0.13607   0.13903   0.14309

 Mulliken charges and spin densities:
               1          2
     1  C   -1.231605   0.069992
     2  C   -0.669082   0.049918
     3  C    1.408536   0.060859
     4  C   -1.229526   0.102228
     5  C    0.284028   0.042633
     6  C    1.090325   0.127952
     7  C   -0.471376   0.008362
     8  C   -0.547936  -0.006058
     9  O   -0.399662   0.264732
    10  O   -0.392841   0.255105
    11  C   -0.591904   0.020973
    12  C    0.525246  -0.008193
    13  C    0.197795   0.001213
    14  C   -0.591996  -0.001012
    15  C   -0.629839   0.000512
    16  H    0.149527  -0.009077
    17  H    0.113806   0.004021
    18  H    0.196815  -0.002482
    19  H    0.114452   0.003947
    20  H    0.201624  -0.002093
    21  H    0.112022   0.002869
    22  H    0.113238   0.002965
    23  H    0.204780   0.000246
    24  H    0.126362   0.010451
    25  H    0.151571  -0.000115
    26  H    0.138911  -0.000005
    27  H    0.123859   0.000090
    28  H    0.117142   0.000042
    29  H    0.143661  -0.000083
    30  H    0.113120  -0.000046
    31  H    0.128951   0.000052
 Sum of Mulliken charges =  -1.00000   1.00000

 Dipole moment (field-independent basis, Debye):
    X=             -2.8401    Y=             -0.3397    Z=              0.2341  Tot=              2.8699
 Quadrupole moment (field-independent basis, Debye-Ang):
   XX=           -110.1850   YY=           -129.3425   ZZ=            -99.5115
   XY=              1.8815   XZ=             -0.2521   YZ=             11.4446

  Exact polarizability: 239.177   8.544 198.229   8.686 -21.997 128.266
 Approx polarizability: 290.296  -9.149 342.056  21.219 -50.467 203.422

                      1                      2                      3
                      A                      A                      A
 Frequencies --     19.0226                28.6252                67.9004
 Red. masses --      3.3501                 3.2310                 3.1556
 Frc consts  --      0.0007                 0.0016                 0.0086
 IR Inten    --      0.5390                 0.7129                 1.8908

                      4                      5                      6
                      A                      A                      A
 Frequencies --     80.7630                95.7929               122.8699
 Red. masses --      1.0670                 4.5076                 1.0787
 Frc consts  --      0.0041                 0.0244                 0.0096
 IR Inten    --      0.0172                 9.6850                 0.2546

                      7                      8                      9
                      A                      A                      A
 Frequencies --    131.9996               146.5168               172.3184
 Red. masses --      3.0561                 1.0648                 4.2522
 Frc consts  --      0.0314                 0.0135                 0.0744
 IR Inten    --      0.3523                 0.0107                 0.8566

                     10                     11                     12
                      A                      A                      A
 Frequencies --    184.0738               213.6582               264.6817
 Red. masses --      1.4999                 2.3412                 3.2147
 Frc consts  --      0.0299                 0.0630                 0.1327
 IR Inten    --      1.1378                 3.9762                 0.1870

                     13                     14                     15
                      A                      A                      A
 Frequencies --    282.5094               297.6935               312.9725
 Red. masses --      3.1261                 2.2085                 2.5675
 Frc consts  --      0.1470                 0.1153                 0.1482
 IR Inten    --      0.2627                 0.9138                 2.1708

                     16                     17                     18
                      A                      A                      A
 Frequencies --    334.4408               376.4672               398.9688
 Red. masses --      3.8594                 4.6229                 2.6477
 Frc consts  --      0.2543                 0.3860                 0.2483
 IR Inten    --      1.4675                 0.8792                 3.5727

                     19                     20                     21
                      A                      A                      A
 Frequencies --    407.4315               438.6292               481.5430
 Red. masses --      5.9785                 2.8573                 5.3932
 Frc consts  --      0.5847                 0.3239                 0.7368
 IR Inten    --     16.4147                 2.8807                 2.2286

                     22                     23                     24
                      A                      A                      A
 Frequencies --    492.0672               506.3382               533.4426
 Red. masses --      4.3003                 4.0860                 3.1210
 Frc consts  --      0.6135                 0.6172                 0.5233
 IR Inten    --      0.9351                 1.4905                 5.1962

                     25                     26                     27
                      A                      A                      A
 Frequencies --    605.0476               662.4025               689.9250
 Red. masses --      3.9572                 3.6263                 4.1585
 Frc consts  --      0.8535                 0.9375                 1.1662
 IR Inten    --      3.7365                 1.9484                 1.3150

                     28                     29                     30
                      A                      A                      A
 Frequencies --    710.4275               764.5083               782.2424
 Red. masses --      5.2093                 4.6380                 2.6357
 Frc consts  --      1.5491                 1.5972                 0.9502
 IR Inten    --     18.7501                 2.2676                 1.8694

                     31                     32                     33
                      A                      A                      A
 Frequencies --    856.0438               873.0099               886.6790
 Red. masses --      1.9038                 1.6525                 1.7074
 Frc consts  --      0.8220                 0.7420                 0.7909
 IR Inten    --     24.4307                 6.7296                11.7158

                     34                     35                     36
                      A                      A                      A
 Frequencies --    932.7902               956.2158               959.4065
 Red. masses --      2.6673                 1.9492                 1.3947
 Frc consts  --      1.3674                 1.0501                 0.7564
 IR Inten    --      0.2865                 2.1994                 0.1421

                     37                     38                     39
                      A                      A                      A
 Frequencies --   1001.4249              1019.4000              1025.5648
 Red. masses --      1.8458                 1.2530                 1.4076
 Frc consts  --      1.0906                 0.7671                 0.8723
 IR Inten    --     18.6402                 4.0914                 0.0129

                     40                     41                     42
                      A                      A                      A
 Frequencies --   1041.5296              1055.4330              1099.7362
 Red. masses --      1.9891                 1.5189                 1.6421
 Frc consts  --      1.2713                 0.9968                 1.1701
 IR Inten    --      2.4804                 0.0592                 0.3499

                     43                     44                     45
                      A                      A                      A
 Frequencies --   1108.3691              1120.2244              1131.5151
 Red. masses --      2.7519                 3.2323                 2.1384
 Frc consts  --      1.9918                 2.3898                 1.6131
 IR Inten    --     10.8875                17.1758                14.5025

                     46                     47                     48
                      A                      A                      A
 Frequencies --   1173.2176              1186.9774              1216.9609
 Red. masses --      1.5571                 2.2245                 4.7608
 Frc consts  --      1.2628                 1.8466                 4.1541
 IR Inten    --      7.9629                35.5888                16.0586

                     49                     50                     51
                      A                      A                      A
 Frequencies --   1234.6325              1275.2177              1335.8212
 Red. masses --      1.6866                 1.6671                 1.9118
 Frc consts  --      1.5147                 1.5973                 2.0099
 IR Inten    --      3.2028                14.1255                 3.4876

                     52                     53                     54
                      A                      A                      A
 Frequencies --   1374.1038              1380.3733              1385.3426
 Red. masses --      1.3356                 1.4269                 1.2776
 Frc consts  --      1.4858                 1.6019                 1.4446
 IR Inten    --     17.5129                15.2885                 4.4640

                     55                     56                     57
                      A                      A                      A
 Frequencies --   1403.1828              1413.6388              1429.2405
 Red. masses --      1.3746                 1.2844                 3.3343
 Frc consts  --      1.5946                 1.5123                 4.0129
 IR Inten    --      9.3668                 0.9621                22.9918

                     58                     59                     60
                      A                      A                      A
 Frequencies --   1469.7445              1472.9906              1475.3410
 Red. masses --      1.1597                 1.0526                 1.1646
 Frc consts  --      1.4760                 1.3456                 1.4935
 IR Inten    --      0.6400                 0.4658                 1.2837

                     61                     62                     63
                      A                      A                      A
 Frequencies --   1484.4881              1487.4934              1490.7376
 Red. masses --      1.2669                 1.1170                 1.0473
 Frc consts  --      1.6449                 1.4562                 1.3712
 IR Inten    --     95.8256                 9.8318                 9.6289

                     64                     65                     66
                      A                      A                      A
 Frequencies --   1491.4495              1495.2020              1497.4930
 Red. masses --      1.0489                 1.1113                 3.7479
 Frc consts  --      1.3747                 1.4638                 4.9519
 IR Inten    --      0.1589                 2.4096                 3.9944

                     67                     68                     69
                      A                      A                      A
 Frequencies --   1506.0242              1506.9899              1533.4857
 Red. masses --      1.0482                 7.0953                 4.8611
 Frc consts  --      1.4008                 9.4939                 6.7351
 IR Inten    --     11.6731               396.5327                50.6878

                     70                     71                     72
                      A                      A                      A
 Frequencies --   1637.4841              1723.7469              2982.8738
 Red. masses --      7.6042                 6.4564                 1.0406
 Frc consts  --     12.0132                11.3028                 5.4550
 IR Inten    --      1.5315                 1.2964                63.5542

                     73                     74                     75
                      A                      A                      A
 Frequencies --   2985.3793              2987.1833              2991.2003
 Red. masses --      1.0413                 1.0405                 1.0433
 Frc consts  --      5.4682                 5.4706                 5.5000
 IR Inten    --     29.5909               209.9078               103.6381

                     76                     77                     78
                      A                      A                      A
 Frequencies --   3011.8320              3015.9623              3017.6880
 Red. masses --      1.0593                 1.0989                 1.0979
 Frc consts  --      5.6613                 5.8892                 5.8907
 IR Inten    --     43.6072                94.4396                27.6462

                     79                     80                     81
                      A                      A                      A
 Frequencies --   3019.2705              3022.9954              3029.9696
 Red. masses --      1.0987                 1.0971                 1.0989
 Frc consts  --      5.9011                 5.9072                 5.9443
 IR Inten    --      3.2036                43.6243                13.3957

                     82                     83                     84
                      A                      A                      A
 Frequencies --   3085.5859              3103.8681              3105.5492
 Red. masses --      1.0964                 1.0871                 1.0942
 Frc consts  --      6.1501                 6.1707                 6.2179
 IR Inten    --     21.8265                36.1906                 7.4038

                     85                     86                     87
                      A                      A                      A
 Frequencies --   3108.3254              3117.0621              3146.2585
 Red. masses --      1.0941                 1.0926                 1.0887
 Frc consts  --      6.2284                 6.2548                 6.3496
 IR Inten    --     10.2150                22.4769                17.5967

 - Thermochemistry -
 -------------------
 Temperature   298.150 Kelvin.  Pressure   1.00000 Atm.
 Atom     1 has atomic number  6 and mass  12.00000

 Molecular mass:   204.11503 amu.
 Principal axes and moments of inertia in atomic units:
                           1         2         3
     Eigenvalues --  1714.607075709.942827016.69381
           X            0.97641  -0.21292  -0.03591
           Y            0.21446   0.93684   0.27630
           Z           -0.02519  -0.27748   0.96040
 This molecule is an asymmetric top.
 Rotational symmetry number  1.
 Warning -- assumption of classical behavior for rotation
           may cause significant error
 Rotational temperatures (Kelvin)      0.05052     0.01517     0.01234
 Rotational constants (GHZ):           1.05257     0.31607     0.25721
 Zero-point vibrational energy     666828.4 (Joules/Mol)
                                  159.37582 (Kcal/Mol)
 Warning -- explicit consideration of  25 degrees of freedom as
           vibrations may cause significant error
 Vibrational temperatures:     27.37    41.19    97.69   116.20   137.82
          (Kelvin)            176.78   189.92   210.81   247.93   264.84
                              307.41   380.82   406.47   428.31   450.30
                              481.19   541.65   574.03   586.20   631.09
                              692.83   707.97   728.51   767.50   870.53
                              953.05   992.65  1022.15  1099.96  1125.47
                             1231.66  1256.07  1275.73  1342.08  1375.78
                             1380.37  1440.83  1466.69  1475.56  1498.53
                             1518.53  1582.28  1594.70  1611.75  1628.00
                             1688.00  1707.80  1750.94  1776.36  1834.75
                             1921.95  1977.03  1986.05  1993.20  2018.87
                             2033.91  2056.36  2114.63  2119.30  2122.69
                             2135.85  2140.17  2144.84  2145.86  2151.26
                             2154.56  2166.83  2168.22  2206.34  2355.97
                             2480.09  4291.69  4295.29  4297.89  4303.67
                             4333.35  4339.30  4341.78  4344.06  4349.42
                             4359.45  4439.47  4465.77  4468.19  4472.19
                             4484.76  4526.76

 Zero-point correction=                           0.253982 (Hartree/Particle)
 Thermal correction to Energy=                    0.270336
 Thermal correction to Enthalpy=                  0.271280
 Thermal correction to Gibbs Free Energy=         0.208149
 Sum of electronic and zero-point Energies=           -655.438075
 Sum of electronic and thermal Energies=              -655.421721
 Sum of electronic and thermal Enthalpies=            -655.420776
 Sum of electronic and thermal Free Energies=         -655.483907

                     E (Thermal)             CV                S
                      KCal/Mol        Cal/Mol-Kelvin    Cal/Mol-Kelvin
 Total                  169.638             59.773            132.870
 Electronic               0.000              0.000              1.377
 Translational            0.889              2.981             41.845
 Rotational               0.889              2.981             32.596
 Vibrational            167.861             53.812             57.052
 Vibration     1          0.593              1.986              6.734
 Vibration     2          0.593              1.984              5.922
 Vibration     3          0.598              1.970              4.213
 Vibration     4          0.600              1.962              3.872
 Vibration     5          0.603              1.952              3.538
 Vibration     6          0.610              1.930              3.055
 Vibration     7          0.612              1.921              2.917
 Vibration     8          0.617              1.906              2.717
 Vibration     9          0.626              1.877              2.410
 Vibration    10          0.631              1.862              2.287
 Vibration    11          0.644              1.820              2.012
 Vibration    12          0.671              1.738              1.631
 Vibration    13          0.682              1.706              1.518
 Vibration    14          0.691              1.678              1.430
 Vibration    15          0.701              1.649              1.347
 Vibration    16          0.716              1.607              1.239
 Vibration    17          0.747              1.520              1.053
 Vibration    18          0.765              1.472              0.966
 Vibration    19          0.772              1.454              0.936
 Vibration    20          0.799              1.386              0.831
 Vibration    21          0.838              1.291              0.706
 Vibration    22          0.848              1.268              0.678
 Vibration    23          0.862              1.236              0.642
 Vibration    24          0.888              1.176              0.580
 Vibration    25          0.964              1.021              0.441

                           ! Non-Optimized Parameters !
 Normal termination of Gaussian 16 at Thu Jan 18 11:46:59 2024.
