 Q-Chem 5.4, Q-Chem, Inc., Pleasanton, CA (2021)
 Q-Chem 5.4.0 for Intel X86 EM64T Linux

User input:
--------------------------------------------------------------
$molecule
0 1
C                  1.1247380000      2.8557130000      1.4729510000
C                 -0.2367200000      2.5520660000      0.9394140000
C                 -0.5065130000      1.3452790000      0.3979210000
C                  0.5872250000      0.3343750000      0.2635840000
C                  1.9863460000      0.6747840000      0.6745750000
C                  2.2414190000      1.8862310000      1.2279500000
O                  1.3040510000      3.8786750000      2.1130260000
O                  0.3514270000     -0.7688520000     -0.2069890000
C                 -1.2447950000      3.6523390000      1.1079180000
C                 -1.8635240000      0.9335230000     -0.1083970000
C                  3.0133940000     -0.3942080000      0.4496520000
S                  3.8586900000      2.2631600000      1.8644090000
C                  4.1808630000      3.9939630000      1.3022600000
C                  5.6002090000      4.3587940000      1.7267650000
C                  6.0185910000      5.7252910000      1.1975090000
O                  5.4046740000      6.3652570000      0.3925220000
O                  7.1958030000      6.1992360000      1.6904650000
H                 -0.8492080000      4.5940580000      0.7196850000
H                 -1.4502440000      3.8247100000      2.1688260000
H                 -2.1810930000      3.4271030000      0.6010080000
H                 -2.6459570000      1.1582550000      0.6194120000
H                 -1.8753330000     -0.1336260000     -0.3222430000
H                 -2.1118700000      1.4635160000     -1.0339760000
H                  2.7426440000     -1.0040500000     -0.4116070000
H                  3.0626790000     -1.0680050000      1.3127220000
H                  4.0036500000      0.0416120000      0.3158320000
H                  3.4521900000      4.6595110000      1.7543200000
H                  4.0863290000      4.0362730000      0.2182550000
H                  6.3219200000      3.6231010000      1.3501450000
H                  5.6868570000      4.3528600000      2.8193920000
H                  7.5672090000      5.5902420000      2.3405150000
$end
$rem
MAX_SCF_CYCLES=200
BASIS  =  6-311++G(d,p)
GUI  =  2
JOB_TYPE  =  SP
METHOD  =  B3LYP
SOLVENT_METHOD = COSMO
$end
$solvent
dielectric 37.219
opticaldielectric 1.43
$end

--------------------------------------------------------------

             Standard Nuclear Orientation (Angstroms)
    I     Atom           X                Y                Z
 ----------------------------------------------------------------
    1      C      -0.9286022241     0.9107156837     0.5047490840
    2      C      -2.2805074010     1.4098596657     0.1127812351
    3      C      -3.2571164463     0.5436138751    -0.2310076511
    4      C      -2.9584731401    -0.9203833709    -0.2923295774
    5      C      -1.5719735426    -1.4210735838    -0.0291573168
    6      C      -0.6030625248    -0.5415977608     0.3266848901
    7      O      -0.1160394076     1.6877730183     0.9782720286
    8      O      -3.8391024120    -1.7166471879    -0.5831997855
    9      C      -2.4542445837     2.8995477209     0.1892950754
   10      C      -4.6628478191     0.9545411725    -0.5809188376
   11      C      -1.3728574490    -2.9007618887    -0.1671324873
   12      S       1.0124110263    -1.1211434114     0.7926173551
   13      C       2.1765953288     0.0537370790    -0.0318926253
   14      C       3.5952131371    -0.4377631213     0.2397694597
   15      C       4.6359666828     0.3882484831    -0.5065591200
   16      O       4.3884976988     1.1998608530    -1.3518396043
   17      O       5.9288871796     0.1307708749    -0.1666776052
   18      H      -1.6530400581     3.4049061099    -0.3554368024
   19      H      -2.3780400172     3.2415322750     1.2259658363
   20      H      -3.4124836173     3.2185145825    -0.2161442471
   21      H      -5.0718155800     1.6466728645     0.1580743310
   22      H      -5.3057140138     0.0781366042    -0.6384917550
   23      H      -4.6919164503     1.4559438200    -1.5540658978
   24      H      -2.0563417309    -3.3068406713    -0.9120681565
   25      H      -1.5955793568    -3.4086817905     0.7782423370
   26      H      -0.3395662369    -3.1301986496    -0.4281341235
   27      H       2.0229255554     1.0510683332     0.3680982434
   28      H       1.9748341121     0.0577736205    -1.1019719546
   29      H       3.7138871395    -1.4821057791    -0.0752201854
   30      H       3.8123325559    -0.4070266532     1.3136834585
   31      H       5.9754566983    -0.5275642760     0.5374581917
 ----------------------------------------------------------------

    9   -1165.0364308865      7.68e-06  Convergence criterion met
 Total energy in the final basis set =    -1165.0364308865
    5   -1165.0635896603      4.46e-06  Convergence criterion met
 Total energy in the final basis set =    -1165.0635896603

                    Orbital Energies (a.u.)
 --------------------------------------------------------------

 Alpha MOs
 -- Occupied --
-88.8654 -19.1819 -19.1387 -19.1380 -19.1340 -10.3268 -10.2875 -10.2832
-10.2335 -10.2183 -10.2109 -10.2102 -10.2096 -10.2032 -10.1717 -10.1713
-10.1697  -7.9514  -5.9152  -5.9116  -5.9054  -1.1233  -1.0739  -1.0706
 -1.0470  -0.8731  -0.8397  -0.8151  -0.7570  -0.7483  -0.7268  -0.6850
 -0.6609  -0.6436  -0.6199  -0.5807  -0.5770  -0.5427  -0.5354  -0.5012
 -0.4860  -0.4836  -0.4708  -0.4677  -0.4479  -0.4395  -0.4353  -0.4339
 -0.4261  -0.4213  -0.4173  -0.4095  -0.4018  -0.3985  -0.3927  -0.3895
 -0.3801  -0.3793  -0.3726  -0.3463  -0.3457  -0.3065  -0.3028  -0.2934
 -0.2786  -0.2745  -0.2419

          Ground-State Mulliken Net Atomic Charges

     Atom                 Charge (a.u.)
  ----------------------------------------
      1 C                    -0.748616
      2 C                     0.942949
      3 C                     0.018112
      4 C                    -1.466632
      5 C                     0.479794
      6 C                     1.661205
      7 O                    -0.262575
      8 O                    -0.278767
      9 C                    -0.536263
     10 C                    -0.549577
     11 C                    -0.237064
     12 S                    -0.594847
     13 C                    -0.688301
     14 C                    -0.086023
     15 C                    -0.070226
     16 O                    -0.342810
     17 O                    -0.224536
     18 H                     0.185397
     19 H                     0.212929
     20 H                     0.181202
     21 H                     0.178726
     22 H                     0.199797
     23 H                     0.202863
     24 H                     0.187136
     25 H                     0.227072
     26 H                     0.146932
     27 H                     0.240252
     28 H                     0.256197
     29 H                     0.228482
     30 H                     0.213638
     31 H                     0.323555
  ----------------------------------------
  Sum of atomic charges =     0.000000

                    Cartesian Multipole Moments
 -----------------------------------------------------------------
    Charge (ESU x 10^10)
                 0.0000
    Dipole Moment (Debye)
         X      -0.6872      Y      -2.1511      Z       2.2924
       Tot       3.2178
    Quadrupole Moments (Debye-Ang)
        XX    -111.9299     XY     -33.0071     YY    -109.6905
        XZ      15.7900     YZ      -0.4601     ZZ    -112.4361

 Total job time:  70.05s(wall), 464.63s(cpu)
        *  Thank you very much for using Q-Chem.  Have a nice day.  *
