 Gaussian 16, Revision A.03,
 Gaussian 16:  ES64L-G16RevA.03 25-Dec-2016

 ----------------------------------------------------------------
 #P UB3LYP/6-311++G(d,p) SCRF=(PCM,Solvent=n,n-DiMethylFormamide)
 ----------------------------------------------------------------

 ------------------
 Quinone PCM in DMF
 ------------------
 Symbolic Z-matrix:
 Charge =  0 Multiplicity = 1

                         Standard orientation:
 ---------------------------------------------------------------------
 Center     Atomic      Atomic             Coordinates (Angstroms)
 Number     Number       Type             X           Y           Z
 ---------------------------------------------------------------------
      1          6           0        2.729262   -1.254783   -0.223653
      2          6           0        3.637085   -0.146149   -0.585716
      3          6           0        3.160631    1.095988   -0.669046
      4          6           0        1.717419    1.370663   -0.445728
      5          6           0        0.876409    0.344100    0.262905
      6          6           0        1.327410   -0.940690    0.227154
      7          8           0        3.131003   -2.407524   -0.256841
      8          8           0        1.249600    2.392016   -0.924025
      9          6           0        0.558787   -2.168908    0.630743
     10          6           0       -0.459431    0.760826    0.944812
     11          6           0       -1.664012    0.180026    0.177593
     12          6           0       -1.727103    0.323806   -1.215587
     13          6           0       -2.745755   -0.427683    0.823213
     14          6           0       -3.848797   -0.887401    0.101260
     15          6           0       -2.824635   -0.134404   -1.938158
     16          6           0       -3.892698   -0.746005   -1.282170
     17          1           0        4.662360   -0.414899   -0.813514
     18          1           0        3.752167    1.944268   -0.995102
     19          1           0        0.903039   -2.544727    1.599956
     20          1           0        0.761110   -2.965450   -0.087534
     21          1           0       -0.511690   -1.994138    0.676021
     22          1           0       -0.912029    0.808513   -1.741552
     23          1           0       -2.739767   -0.555834    1.898411
     24          1           0       -4.672422   -1.358358    0.626733
     25          1           0       -2.846325   -0.011498   -3.015433
     26          6           0       -0.384797    0.287783    2.420928
     27          1           0        0.508732    0.707297    2.889461
     28          1           0       -1.246754    0.657133    2.980481
     29          1           0       -0.346384   -0.793812    2.533840
     30          6           0       -0.684933    2.297466    1.027290
     31          1           0        0.151608    2.797616    1.522623
     32          1           0       -0.827040    2.756650    0.054295
     33          1           0       -1.582660    2.468571    1.626678
     34          1           0       -4.747810   -1.105079   -1.843471
 ---------------------------------------------------------------------

 SCF Done:  E(UB3LYP) =  -769.961811064     A.U. after   16 cycles

 The electronic state is 1-A.
 Alpha  occ. eigenvalues --  -19.14043 -19.13990 -10.28811 -10.28456 -10.21867
 Alpha  occ. eigenvalues --  -10.21744 -10.21505 -10.21098 -10.20858 -10.19271
 Alpha  occ. eigenvalues --  -10.18038 -10.18027 -10.17893 -10.17844 -10.17834
 Alpha  occ. eigenvalues --  -10.17331 -10.16630 -10.16091  -1.07363  -1.07140
 Alpha  occ. eigenvalues --   -0.87946  -0.86182  -0.82783  -0.79378  -0.75462
 Alpha  occ. eigenvalues --   -0.74451  -0.72568  -0.69332  -0.68757  -0.64253
 Alpha  occ. eigenvalues --   -0.61599  -0.60920  -0.59212  -0.56366  -0.52874
 Alpha  occ. eigenvalues --   -0.52577  -0.50307  -0.48765  -0.46668  -0.46621
 Alpha  occ. eigenvalues --   -0.45867  -0.45538  -0.44792  -0.44003  -0.43356
 Alpha  occ. eigenvalues --   -0.43027  -0.42151  -0.41180  -0.40832  -0.40029
 Alpha  occ. eigenvalues --   -0.39423  -0.38733  -0.37942  -0.37398  -0.36552
 Alpha  occ. eigenvalues --   -0.35241  -0.34323  -0.33887  -0.31126  -0.29025
 Alpha  occ. eigenvalues --   -0.28107  -0.27399  -0.26327  -0.25315
 Alpha virt. eigenvalues --   -0.12988  -0.03005  -0.02256  -0.01976  -0.00951
 Alpha virt. eigenvalues --   -0.00782   0.00322   0.00828   0.00919   0.01725
 Alpha virt. eigenvalues --    0.02541   0.02749   0.02949   0.03759   0.03980

  Beta  occ. eigenvalues --  -19.14043 -19.13990 -10.28811 -10.28456 -10.21867
  Beta  occ. eigenvalues --  -10.21744 -10.21505 -10.21098 -10.20858 -10.19271
  Beta  occ. eigenvalues --  -10.18038 -10.18027 -10.17893 -10.17844 -10.17834
  Beta  occ. eigenvalues --  -10.17331 -10.16630 -10.16091  -1.07363  -1.07140
  Beta  occ. eigenvalues --   -0.87946  -0.86182  -0.82783  -0.79378  -0.75462
  Beta  occ. eigenvalues --   -0.74451  -0.72568  -0.69332  -0.68757  -0.64253
  Beta  occ. eigenvalues --   -0.61599  -0.60920  -0.59212  -0.56366  -0.52874
  Beta  occ. eigenvalues --   -0.52577  -0.50307  -0.48765  -0.46668  -0.46621
  Beta  occ. eigenvalues --   -0.45867  -0.45538  -0.44792  -0.44003  -0.43356
  Beta  occ. eigenvalues --   -0.43027  -0.42151  -0.41180  -0.40832  -0.40029
  Beta  occ. eigenvalues --   -0.39423  -0.38733  -0.37942  -0.37398  -0.36552
  Beta  occ. eigenvalues --   -0.35241  -0.34323  -0.33887  -0.31126  -0.29025
  Beta  occ. eigenvalues --   -0.28107  -0.27399  -0.26327  -0.25315
  Beta virt. eigenvalues --   -0.12988  -0.03005  -0.02256  -0.01976  -0.00951
  Beta virt. eigenvalues --   -0.00782   0.00322   0.00828   0.00919   0.01725
  Beta virt. eigenvalues --    0.02541   0.02749   0.02949   0.03759   0.03980

 Mulliken charges and spin densities:
               1          2
     1  C   -0.530710   0.000000
     2  C    0.099756  -0.000000
     3  C   -0.174633   0.000000
     4  C   -0.473403  -0.000000
     5  C    0.886221   0.000000
     6  C    0.348191  -0.000000
     7  O   -0.273892  -0.000000
     8  O   -0.230312   0.000000
     9  C   -0.578053  -0.000000
    10  C    0.150619  -0.000000
    11  C    0.586014   0.000000
    12  C   -0.413587  -0.000000
    13  C   -0.148900  -0.000000
    14  C   -0.345710  -0.000000
    15  C   -0.500746  -0.000000
    16  C   -0.368552  -0.000000
    17  H    0.240376   0.000000
    18  H    0.255058   0.000000
    19  H    0.228122   0.000000
    20  H    0.191389  -0.000000
    21  H    0.137589   0.000000
    22  H    0.192626  -0.000000
    23  H    0.172682  -0.000000
    24  H    0.209454   0.000000
    25  H    0.207125   0.000000
    26  C   -0.525106   0.000000
    27  H    0.180420   0.000000
    28  H    0.152841  -0.000000
    29  H    0.160722   0.000000
    30  C   -0.514422   0.000000
    31  H    0.168215  -0.000000
    32  H    0.180964   0.000000
    33  H    0.154158   0.000000
    34  H    0.175485   0.000000
 Sum of Mulliken charges =  -0.00000   0.00000

 Dipole moment (field-independent basis, Debye):
    X=             -0.4854    Y=              0.3414    Z=              1.9430  Tot=              2.0316
 Quadrupole moment (field-independent basis, Debye-Ang):
   XX=           -100.8833   YY=           -122.3414   ZZ=           -101.5301
   XY=             12.8610   XZ=             -0.5362   YZ=              1.2230

 Normal termination of Gaussian 16 at Sat Mar  2 19:23:48 2024.
