 Q-Chem 5.4, Q-Chem, Inc., Pleasanton, CA (2021)
 Q-Chem 5.4.0 for Intel X86 EM64T Linux

User input:
--------------------------------------------------------------
$molecule
-2 1
C                 -0.8823480000      3.8446880000     -0.1942380000
C                 -2.0327400000      3.0900680000     -0.0666780000
C                 -1.9480790000      1.6734900000      0.0017050000
C                  0.4034750000      3.2504170000     -0.2582410000
C                  0.4862990000      1.8084840000     -0.1782650000
C                 -0.7067100000      1.0636310000     -0.0552540000
C                  1.5756820000      4.0766600000     -0.4122050000
C                  2.8351840000      3.3884830000     -0.4785220000
C                  2.9146880000      1.9933930000     -0.3241790000
C                  1.7638940000      1.1394010000     -0.2180120000
O                  1.5331990000      5.3662290000     -0.5031080000
O                  1.9065390000     -0.1456560000     -0.1800650000
N                  3.9464460000      4.1939470000     -0.7610260000
H                 -0.9212600000      4.9279000000     -0.2542640000
H                 -3.0042740000      3.5794300000     -0.0205200000
H                 -2.8511880000      1.0745110000      0.0999740000
H                 -0.6078230000     -0.0163940000     -0.0031270000
H                  3.6701110000      5.1621730000     -0.6149500000
H                  4.7943630000      3.9082090000     -0.2778550000
N                  4.0975900000      1.2042580000     -0.3925360000
H                  3.7772120000      0.2342880000     -0.4975240000
C                  5.3724480000      1.3864840000      0.0056140000
C                  6.2489300000      0.1346840000     -0.0881280000
C                  7.4964060000      0.3508450000     -0.9546450000
O                  5.8691080000      2.4420940000      0.4355550000
H                  5.6742410000     -0.7196880000     -0.4588830000
H                  6.5665970000     -0.1054210000      0.9355380000
H                  7.2213460000      0.5395320000     -1.9976530000
H                  8.1542410000     -0.5261270000     -0.9332100000
H                  8.0613560000      1.2136080000     -0.5932170000
$end
$rem
MAX_SCF_CYCLES=200
BASIS  =  6-311++G(d,p)
GUI  =  2
JOB_TYPE  =  SP
METHOD  =  B3LYP
SOLVENT_METHOD = PCM
$end
$pcm
theory = CPCM
$end
$solvent
dielectric 37.219
opticaldielectric 1.43
$end

--------------------------------------------------------------

             Standard Nuclear Orientation (Angstroms)
    I     Atom           X                Y                Z
 ----------------------------------------------------------------
    1      C      -0.8823480000     3.8446880000    -0.1942380000
    2      C      -2.0327400000     3.0900680000    -0.0666780000
    3      C      -1.9480790000     1.6734900000     0.0017050000
    4      C       0.4034750000     3.2504170000    -0.2582410000
    5      C       0.4862990000     1.8084840000    -0.1782650000
    6      C      -0.7067100000     1.0636310000    -0.0552540000
    7      C       1.5756820000     4.0766600000    -0.4122050000
    8      C       2.8351840000     3.3884830000    -0.4785220000
    9      C       2.9146880000     1.9933930000    -0.3241790000
   10      C       1.7638940000     1.1394010000    -0.2180120000
   11      O       1.5331990000     5.3662290000    -0.5031080000
   12      O       1.9065390000    -0.1456560000    -0.1800650000
   13      N       3.9464460000     4.1939470000    -0.7610260000
   14      H      -0.9212600000     4.9279000000    -0.2542640000
   15      H      -3.0042740000     3.5794300000    -0.0205200000
   16      H      -2.8511880000     1.0745110000     0.0999740000
   17      H      -0.6078230000    -0.0163940000    -0.0031270000
   18      H       3.6701110000     5.1621730000    -0.6149500000
   19      H       4.7943630000     3.9082090000    -0.2778550000
   20      N       4.0975900000     1.2042580000    -0.3925360000
   21      H       3.7772120000     0.2342880000    -0.4975240000
   22      C       5.3724480000     1.3864840000     0.0056140000
   23      C       6.2489300000     0.1346840000    -0.0881280000
   24      C       7.4964060000     0.3508450000    -0.9546450000
   25      O       5.8691080000     2.4420940000     0.4355550000
   26      H       5.6742410000    -0.7196880000    -0.4588830000
   27      H       6.5665970000    -0.1054210000     0.9355380000
   28      H       7.2213460000     0.5395320000    -1.9976530000
   29      H       8.1542410000    -0.5261270000    -0.9332100000
   30      H       8.0613560000     1.2136080000    -0.5932170000
 ----------------------------------------------------------------

    9    -838.3160920222      4.34e-06  Convergence criterion met
 Total energy in the final basis set =     -838.3160920222

                    Orbital Energies (a.u.)
 --------------------------------------------------------------

 Alpha MOs
 -- Occupied --
-19.0844 -19.0326 -19.0216 -14.3291 -14.2769 -10.2641 -10.1791 -10.1685
-10.1678 -10.1676 -10.1652 -10.1553 -10.1482 -10.1473 -10.1461 -10.1447
-10.1373 -10.1369  -1.0279  -0.9586  -0.9417  -0.9095  -0.8679  -0.8251
 -0.7708  -0.7537  -0.7234  -0.7029  -0.6551  -0.6296  -0.5991  -0.5858
 -0.5539  -0.5335  -0.5074  -0.4894  -0.4770  -0.4711  -0.4445  -0.4409
 -0.4249  -0.4192  -0.4089  -0.4051  -0.3966  -0.3909  -0.3787  -0.3697
 -0.3655  -0.3550  -0.3492  -0.3412  -0.3362  -0.3275  -0.3246  -0.3065
 -0.2863  -0.2750  -0.2571  -0.2310  -0.2263  -0.2185  -0.2047  -0.1799
 -0.1113

          Ground-State Mulliken Net Atomic Charges

     Atom                 Charge (a.u.)
  ----------------------------------------
      1 C                    -0.011600
      2 C                    -0.384710
      3 C                    -0.462073
      4 C                     0.454614
      5 C                    -0.024777
      6 C                    -0.039830
      7 C                    -0.650573
      8 C                     0.284467
      9 C                     0.419526
     10 C                    -0.847753
     11 O                    -0.730662
     12 O                    -0.669777
     13 N                    -0.523163
     14 H                     0.143099
     15 H                     0.168787
     16 H                     0.170158
     17 H                     0.145273
     18 H                     0.282502
     19 H                     0.289130
     20 N                    -0.007236
     21 H                     0.348251
     22 C                     0.176840
     23 C                    -0.317363
     24 C                    -0.507913
     25 O                    -0.505079
     26 H                     0.152084
     27 H                     0.180006
     28 H                     0.147049
     29 H                     0.159672
     30 H                     0.161049
  ----------------------------------------
  Sum of atomic charges =    -2.000001

                    Cartesian Multipole Moments
 -----------------------------------------------------------------
    Charge (ESU x 10^10)
                -9.6064
    Dipole Moment (Debye)
         X     -17.4899      Y     -28.7112      Z       2.6893
       Tot      33.7263
    Quadrupole Moments (Debye-Ang)
        XX    -175.8505     XY     -59.8110     YY    -242.5347
        XZ       2.1753     YZ      12.8772     ZZ    -121.4549

 Total job time:  64.04s(wall), 376.97s(cpu)
        *  Thank you very much for using Q-Chem.  Have a nice day.  *
