 Gaussian 16, Revision A.03,
 Gaussian 16:  ES64L-G16RevA.03 25-Dec-2016

 ----------------------------------------------------------------
 #P UB3LYP/6-311++G(d,p) SCRF=(PCM,Solvent=n,n-DiMethylFormamide)
 ----------------------------------------------------------------

 ------------------
 Radical PCM in DMF
 ------------------
 Symbolic Z-matrix:
 Charge = -1 Multiplicity = 2

                         Standard orientation:
 ---------------------------------------------------------------------
 Center     Atomic      Atomic             Coordinates (Angstroms)
 Number     Number       Type             X           Y           Z
 ---------------------------------------------------------------------
      1          6           0       -3.980365   -0.641121   -0.236342
      2          6           0       -2.790107    0.054395    0.366844
      3          8           0       -2.558655    0.161214    1.542662
      4          8           0       -2.021991    0.603061   -0.617090
      5          6           0       -0.700232    0.964696   -0.326792
      6          6           0       -0.428116    2.317269   -0.296566
      7          6           0        0.891188    2.758991   -0.110850
      8          6           0        1.906180    1.833873    0.033352
      9          6           0        1.641869    0.452339   -0.002215
     10          6           0        2.784052   -0.477647    0.132057
     11          8           0        3.960965   -0.057412    0.290172
     12          6           0        2.459517   -1.873277    0.061999
     13          6           0        1.174408   -2.329166   -0.107812
     14          6           0        0.026447   -1.472334   -0.227400
     15          8           0       -1.135456   -1.950027   -0.358231
     16          6           0        0.305109   -0.021136   -0.181420
     17          1           0       -4.400386   -0.055243   -1.056575
     18          1           0       -4.731051   -0.822744    0.531863
     19          1           0       -3.615829   -1.588768   -0.638917
     20          1           0       -1.247970    3.015523   -0.420752
     21          1           0        1.104953    3.822881   -0.083018
     22          1           0        2.937645    2.134993    0.173035
     23          1           0        3.289259   -2.568357    0.154232
     24          1           0        0.964776   -3.394265   -0.149115
 ---------------------------------------------------------------------

 SCF Done:  E(UB3LYP) =  -763.355831770     A.U. after   19 cycles

 The electronic state is 2-A.
 Alpha  occ. eigenvalues --  -19.17226 -19.11992 -19.07914 -19.07878 -10.31217
 Alpha  occ. eigenvalues --  -10.24194 -10.22827 -10.22464 -10.18675 -10.18128
 Alpha  occ. eigenvalues --  -10.18005 -10.17879 -10.17277 -10.17242 -10.16553
 Alpha  occ. eigenvalues --  -10.16450  -1.11617  -1.03597  -1.00385  -1.00147
 Alpha  occ. eigenvalues --   -0.86614  -0.80846  -0.77675  -0.74838  -0.73537
 Alpha  occ. eigenvalues --   -0.68162  -0.64258  -0.62394  -0.60149  -0.53555
 Alpha  occ. eigenvalues --   -0.51382  -0.50945  -0.49572  -0.48530  -0.47504
 Alpha  occ. eigenvalues --   -0.47017  -0.45285  -0.42860  -0.42347  -0.41630
 Alpha  occ. eigenvalues --   -0.41002  -0.40132  -0.39941  -0.39016  -0.38301
 Alpha  occ. eigenvalues --   -0.37851  -0.35950  -0.35879  -0.35149  -0.32461
 Alpha  occ. eigenvalues --   -0.29116  -0.28081  -0.25848  -0.25656  -0.24674
 Alpha  occ. eigenvalues --   -0.23929  -0.15734
 Alpha virt. eigenvalues --   -0.03760  -0.02379  -0.00222  -0.00061   0.00736
 Alpha virt. eigenvalues --    0.01053   0.02481   0.03061   0.03522   0.03632
 Alpha virt. eigenvalues --    0.04557   0.05052   0.05368   0.05720   0.06685

  Beta  occ. eigenvalues --  -19.17222 -19.11990 -19.07283 -19.07223 -10.31215
  Beta  occ. eigenvalues --  -10.24182 -10.22680 -10.22319 -10.18638 -10.18068
  Beta  occ. eigenvalues --  -10.17964 -10.17847 -10.17274 -10.17242 -10.16398
  Beta  occ. eigenvalues --  -10.16304  -1.11607  -1.03586  -0.99278  -0.99001
  Beta  occ. eigenvalues --   -0.86435  -0.80301  -0.77594  -0.74618  -0.73441
  Beta  occ. eigenvalues --   -0.67255  -0.64156  -0.62062  -0.59924  -0.53335
  Beta  occ. eigenvalues --   -0.51233  -0.50712  -0.49529  -0.48426  -0.47336
  Beta  occ. eigenvalues --   -0.46868  -0.45172  -0.42610  -0.41823  -0.41170
  Beta  occ. eigenvalues --   -0.40489  -0.39801  -0.39519  -0.38746  -0.38067
  Beta  occ. eigenvalues --   -0.35833  -0.35625  -0.35236  -0.34506  -0.32300
  Beta  occ. eigenvalues --   -0.29101  -0.25335  -0.25195  -0.24879  -0.24075
  Beta  occ. eigenvalues --   -0.23353
  Beta virt. eigenvalues --   -0.09025  -0.02991  -0.01251  -0.00185   0.00030
  Beta virt. eigenvalues --    0.00748   0.01067   0.02496   0.03079   0.03596
  Beta virt. eigenvalues --    0.03661   0.05076   0.05394   0.05731   0.05875

 Mulliken charges and spin densities:
               1          2
     1  C   -0.473934   0.002876
     2  C    0.071004  -0.000696
     3  O   -0.298985  -0.000276
     4  O   -0.005706  -0.002459
     5  C   -0.339048   0.046067
     6  C    0.140702   0.025370
     7  C   -0.568611   0.030134
     8  C    0.022557   0.033412
     9  C    0.333702   0.034227
    10  C   -0.391705   0.091656
    11  O   -0.486600   0.226947
    12  C   -0.078653   0.098341
    13  C   -0.145022   0.093173
    14  C   -0.272922   0.085434
    15  O   -0.472481   0.239728
    16  C    0.495826   0.023064
    17  H    0.172611   0.000333
    18  H    0.161381  -0.000280
    19  H    0.203021  -0.000831
    20  H    0.198163  -0.002129
    21  H    0.196775  -0.002430
    22  H    0.171051  -0.001959
    23  H    0.183392  -0.009465
    24  H    0.183482  -0.010236
 Sum of Mulliken charges =  -1.00000   1.00000

 Dipole moment (field-independent basis, Debye):
    X=             -6.1112    Y=              3.7638    Z=             -2.3753  Tot=              7.5600
 Quadrupole moment (field-independent basis, Debye-Ang):
   XX=           -130.9646   YY=            -95.5767   ZZ=           -104.2115
   XY=             -3.3438   XZ=              3.0263   YZ=             -1.9756

 Normal termination of Gaussian 16 at Sun Jan 21 08:28:50 2024.
