 Gaussian 16, Revision A.03,
 Gaussian 16:  ES64L-G16RevA.03 25-Dec-2016

 ----------------------------------------------------------------------
 #P UB3LYP/6-311++G(d,p) nosym opt freq SCRF=(PCM,Solvent=n,n-DiMethylF
 ormamide)
 ----------------------------------------------------------------------

 -------
 Reduced
 -------
 Symbolic Z-matrix:
 Charge = -2 Multiplicity = 1

 SCF Done:  E(UB3LYP) =  -2019.99907940     A.U. after   18 cycles
 SCF Done:  E(UB3LYP) =  -2019.99606673     A.U. after   19 cycles
 SCF Done:  E(UB3LYP) =  -2020.00089015     A.U. after   17 cycles
 SCF Done:  E(UB3LYP) =  -2020.00190278     A.U. after   18 cycles
 SCF Done:  E(UB3LYP) =  -2020.00255871     A.U. after   18 cycles
 SCF Done:  E(UB3LYP) =  -2020.00311463     A.U. after   18 cycles
 SCF Done:  E(UB3LYP) =  -2020.00364249     A.U. after   19 cycles
 SCF Done:  E(UB3LYP) =  -2020.00447295     A.U. after   19 cycles
 SCF Done:  E(UB3LYP) =  -2020.00230475     A.U. after   18 cycles
 SCF Done:  E(UB3LYP) =  -2020.00475744     A.U. after   15 cycles
 SCF Done:  E(UB3LYP) =  -2020.00484372     A.U. after   14 cycles
 SCF Done:  E(UB3LYP) =  -2020.00484907     A.U. after   14 cycles
 SCF Done:  E(UB3LYP) =  -2020.00485491     A.U. after   13 cycles
 SCF Done:  E(UB3LYP) =  -2020.00485787     A.U. after   13 cycles
 SCF Done:  E(UB3LYP) =  -2020.00486124     A.U. after   12 cycles
 SCF Done:  E(UB3LYP) =  -2020.00486265     A.U. after   11 cycles
 SCF Done:  E(UB3LYP) =  -2020.00486294     A.U. after   11 cycles
 SCF Done:  E(UB3LYP) =  -2020.00486315     A.U. after   12 cycles
 SCF Done:  E(UB3LYP) =  -2020.00486322     A.U. after   11 cycles
 Optimization completed.
    -- Stationary point found.
 Normal termination of Gaussian 16 at Sat Feb 10 16:55:55 2024.

 ----------------------------------------------------------------------
 #P Geom=AllCheck Guess=TCheck SCRF=Check GenChk UB3LYP/6-311++G(d,p) F
 req
 ----------------------------------------------------------------------

 Structure from the checkpoint file:  "073-an.chk"
 -------
 Reduced
 -------
 Charge = -2 Multiplicity = 1

                          Input orientation:
 ---------------------------------------------------------------------
 Center     Atomic      Atomic             Coordinates (Angstroms)
 Number     Number       Type             X           Y           Z
 ---------------------------------------------------------------------
      1          6           0        0.869910    1.225264   -1.423461
      2          6           0       -0.498285    1.132962   -1.847562
      3          6           0       -1.398739    0.405771   -1.045965
      4          6           0       -1.058428   -0.336573    0.135857
      5          6           0        0.301163   -0.214345    0.578821
      6          6           0        1.181020    0.583423   -0.176769
      7          8           0        1.773902    1.848198   -2.106310
      8          8           0       -1.933130   -1.059693    0.755077
      9         16           0        2.872396    0.870302    0.358382
     10          6           0        3.193685    2.649065    0.196320
     11          6           0        4.350856    3.074927   -0.446421
     12          6           0        2.356933    3.547307    0.854464
     13          6           0        2.674822    4.904415    0.841387
     14          6           0        4.668791    4.432573   -0.441465
     15          6           0        3.830508    5.347862    0.196290
     16          8           0        3.859743    0.147578   -0.483490
     17          8           0        2.989503    0.611261    1.818058
     18          1           0        4.981607    2.354584   -0.951220
     19          1           0        1.465177    3.198507    1.361695
     20          1           0        5.567893    4.774576   -0.941383
     21          1           0        2.023331    5.612788    1.340268
     22          1           0        4.077695    6.403336    0.192961
     23         16           0       -3.144255    0.303305   -1.459322
     24          6           0       -4.076927    0.647745    0.058507
     25          6           0       -3.827296    1.830411    0.750660
     26          6           0       -5.125091   -0.193114    0.416120
     27          6           0       -5.931531    0.151973    1.500205
     28          6           0       -4.629762    2.160179    1.841460
     29          6           0       -5.682634    1.323624    2.215907
     30          1           0       -3.013252    2.480656    0.452778
     31          1           0       -5.294767   -1.107501   -0.137737
     32          1           0       -6.749665   -0.498354    1.788346
     33          1           0       -4.435380    3.072240    2.394134
     34          1           0       -6.307819    1.585561    3.061864
     35          8           0       -3.530192   -1.048819   -1.937257
     36          8           0       -3.512408    1.415535   -2.375050
     37          6           0       -0.825312    1.790622   -3.167235
     38          6           0        0.672452   -1.018121    1.802296
     39          1           0        0.117005    1.998754   -3.674038
     40          1           0       -1.357927    2.738764   -3.039958
     41          1           0       -1.451092    1.165218   -3.805039
     42          1           0       -0.100363   -1.772497    1.951031
     43          1           0        0.719241   -0.402783    2.707076
     44          1           0        1.642757   -1.506022    1.706229
 ---------------------------------------------------------------------

 SCF Done:  E(UB3LYP) =  -2020.00486322     A.U. after    2 cycles

 Alpha  occ. eigenvalues --  -89.03513 -89.03513 -19.10211 -19.10197 -19.09800
 Alpha  occ. eigenvalues --  -19.09798 -19.02855 -19.02852 -10.20636 -10.20636
 Alpha  occ. eigenvalues --  -10.19512 -10.19508 -10.18690 -10.18688 -10.18493
 Alpha  occ. eigenvalues --  -10.18485 -10.18323 -10.18322 -10.18278 -10.18274
 Alpha  occ. eigenvalues --  -10.18219 -10.18219 -10.17563 -10.17561 -10.16074
 Alpha  occ. eigenvalues --  -10.16065 -10.14147 -10.14107  -8.09904  -8.09903
 Alpha  occ. eigenvalues --   -6.06190  -6.06190  -6.06084  -6.06083  -6.05976
 Alpha  occ. eigenvalues --   -6.05976  -1.08916  -1.08907  -0.98211  -0.98206
 Alpha  occ. eigenvalues --   -0.95196  -0.94766  -0.87020  -0.87016  -0.81644
 Alpha  occ. eigenvalues --   -0.78316  -0.77261  -0.76389  -0.75837  -0.75826
 Alpha  occ. eigenvalues --   -0.71548  -0.71086  -0.67626  -0.64471  -0.62628
 Alpha  occ. eigenvalues --   -0.61954  -0.61721  -0.61180  -0.58336  -0.55961
 Alpha  occ. eigenvalues --   -0.53498  -0.53366  -0.52025  -0.49207  -0.48277
 Alpha  occ. eigenvalues --   -0.47591  -0.47247  -0.47092  -0.45939  -0.45508
 Alpha  occ. eigenvalues --   -0.45062  -0.44990  -0.43919  -0.43703  -0.43272
 Alpha  occ. eigenvalues --   -0.43254  -0.40970  -0.39620  -0.39569  -0.38533
 Alpha  occ. eigenvalues --   -0.38523  -0.38257  -0.37459  -0.37389  -0.36997
 Alpha  occ. eigenvalues --   -0.36807  -0.35699  -0.35694  -0.35553  -0.35367
 Alpha  occ. eigenvalues --   -0.33915  -0.33479  -0.32231  -0.32024  -0.31093
 Alpha  occ. eigenvalues --   -0.30994  -0.29530  -0.29501  -0.28466  -0.27830
 Alpha  occ. eigenvalues --   -0.26593  -0.26574  -0.26180  -0.26154  -0.24021
 Alpha  occ. eigenvalues --   -0.23453  -0.21190  -0.20454  -0.13704
 Alpha virt. eigenvalues --   -0.03825  -0.03276  -0.02423  -0.02111  -0.01944
 Alpha virt. eigenvalues --   -0.00489   0.00227   0.01136   0.01149   0.01396
 Alpha virt. eigenvalues --    0.02046   0.02829   0.03072   0.03654   0.03741

  Beta  occ. eigenvalues --  -89.03513 -89.03513 -19.10211 -19.10197 -19.09800
  Beta  occ. eigenvalues --  -19.09798 -19.02855 -19.02852 -10.20636 -10.20636
  Beta  occ. eigenvalues --  -10.19512 -10.19508 -10.18690 -10.18688 -10.18493
  Beta  occ. eigenvalues --  -10.18485 -10.18323 -10.18322 -10.18278 -10.18274
  Beta  occ. eigenvalues --  -10.18219 -10.18219 -10.17563 -10.17561 -10.16074
  Beta  occ. eigenvalues --  -10.16065 -10.14147 -10.14107  -8.09904  -8.09903
  Beta  occ. eigenvalues --   -6.06190  -6.06190  -6.06084  -6.06083  -6.05976
  Beta  occ. eigenvalues --   -6.05976  -1.08916  -1.08907  -0.98211  -0.98206
  Beta  occ. eigenvalues --   -0.95196  -0.94766  -0.87020  -0.87016  -0.81644
  Beta  occ. eigenvalues --   -0.78316  -0.77261  -0.76389  -0.75837  -0.75826
  Beta  occ. eigenvalues --   -0.71548  -0.71086  -0.67626  -0.64471  -0.62628
  Beta  occ. eigenvalues --   -0.61954  -0.61721  -0.61180  -0.58336  -0.55961
  Beta  occ. eigenvalues --   -0.53498  -0.53366  -0.52025  -0.49207  -0.48277
  Beta  occ. eigenvalues --   -0.47591  -0.47247  -0.47092  -0.45939  -0.45508
  Beta  occ. eigenvalues --   -0.45062  -0.44990  -0.43919  -0.43703  -0.43272
  Beta  occ. eigenvalues --   -0.43254  -0.40970  -0.39620  -0.39569  -0.38533
  Beta  occ. eigenvalues --   -0.38523  -0.38257  -0.37459  -0.37389  -0.36997
  Beta  occ. eigenvalues --   -0.36807  -0.35699  -0.35694  -0.35553  -0.35367
  Beta  occ. eigenvalues --   -0.33915  -0.33479  -0.32231  -0.32024  -0.31093
  Beta  occ. eigenvalues --   -0.30994  -0.29530  -0.29501  -0.28466  -0.27830
  Beta  occ. eigenvalues --   -0.26593  -0.26574  -0.26180  -0.26154  -0.24021
  Beta  occ. eigenvalues --   -0.23453  -0.21190  -0.20454  -0.13704
  Beta virt. eigenvalues --   -0.03825  -0.03276  -0.02423  -0.02111  -0.01944
  Beta virt. eigenvalues --   -0.00489   0.00227   0.01136   0.01149   0.01396
  Beta virt. eigenvalues --    0.02046   0.02829   0.03072   0.03654   0.03741

 Mulliken charges and spin densities:
               1          2
     1  C   -0.762595  -0.000000
     2  C    0.240616  -0.000000
     3  C    0.140760   0.000000
     4  C   -0.764147  -0.000000
     5  C    0.293628   0.000000
     6  C    0.104236   0.000000
     7  O   -0.468135   0.000000
     8  O   -0.469727   0.000000
     9  S    0.395665  -0.000000
    10  C    0.233158  -0.000000
    11  C   -0.034440   0.000000
    12  C   -0.214318   0.000000
    13  C   -0.375651  -0.000000
    14  C   -0.297172  -0.000000
    15  C   -0.394922   0.000000
    16  O   -0.264722   0.000000
    17  O   -0.239638   0.000000
    18  H    0.233806   0.000000
    19  H    0.230467   0.000000
    20  H    0.207968   0.000000
    21  H    0.215691   0.000000
    22  H    0.186942  -0.000000
    23  S    0.402768  -0.000000
    24  C    0.268327  -0.000000
    25  C   -0.269808  -0.000000
    26  C    0.009033   0.000000
    27  C   -0.313069  -0.000000
    28  C   -0.378510  -0.000000
    29  C   -0.393546   0.000000
    30  H    0.227760  -0.000000
    31  H    0.232569   0.000000
    32  H    0.207795  -0.000000
    33  H    0.215883  -0.000000
    34  H    0.187247   0.000000
    35  O   -0.273493   0.000000
    36  O   -0.238717   0.000000
    37  C   -0.558711   0.000000
    38  C   -0.565419   0.000000
    39  H    0.164447   0.000000
    40  H    0.179516  -0.000000
    41  H    0.175562   0.000000
    42  H    0.165050   0.000000
    43  H    0.180177  -0.000000
    44  H    0.177668  -0.000000
 Sum of Mulliken charges =  -2.00000   0.00000

 Dipole moment (field-independent basis, Debye):
    X=             -0.5571    Y=              0.8687    Z=              9.4439  Tot=              9.5001
 Quadrupole moment (field-independent basis, Debye-Ang):
   XX=           -253.2609   YY=           -185.9638   ZZ=           -223.1819
   XY=             -6.6921   XZ=            -25.9937   YZ=             18.9548

  Exact polarizability: 516.405  52.825 427.164 -26.887 -29.278 426.220
 Approx polarizability: 541.560  49.940 497.660 -39.547 -42.004 503.919

                      1                      2                      3
                      A                      A                      A
 Frequencies --     20.4397                27.3841                41.7612
 Red. masses --      5.9056                 7.6745                 7.2031
 Frc consts  --      0.0015                 0.0034                 0.0074
 IR Inten    --      2.1624                 0.5356                 5.6384

                      4                      5                      6
                      A                      A                      A
 Frequencies --     43.9497                54.7249                59.4615
 Red. masses --      3.7937                 3.8211                 4.0015
 Frc consts  --      0.0043                 0.0067                 0.0083
 IR Inten    --      0.5132                 3.5065                 0.9574

                      7                      8                      9
                      A                      A                      A
 Frequencies --     75.7397                96.0968               105.7779
 Red. masses --      4.5516                 4.9823                 4.1045
 Frc consts  --      0.0154                 0.0271                 0.0271
 IR Inten    --      0.0042                 0.4477                16.6166

                     10                     11                     12
                      A                      A                      A
 Frequencies --    129.4126               143.2058               154.8124
 Red. masses --      1.1719                 1.4616                 2.8981
 Frc consts  --      0.0116                 0.0177                 0.0409
 IR Inten    --      0.1861                 2.4498                 9.0383

                     13                     14                     15
                      A                      A                      A
 Frequencies --    159.9765               168.3658               187.9180
 Red. masses --      7.0155                 6.4366                 6.2413
 Frc consts  --      0.1058                 0.1075                 0.1299
 IR Inten    --     13.0504                 0.8770                 4.3330

                     16                     17                     18
                      A                      A                      A
 Frequencies --    194.4467               216.1914               224.1197
 Red. masses --      8.0613                 5.9415                 6.5812
 Frc consts  --      0.1796                 0.1636                 0.1948
 IR Inten    --     10.9026                 6.9009                17.7814

                     19                     20                     21
                      A                      A                      A
 Frequencies --    244.6847               245.2720               277.1446
 Red. masses --      7.4791                 6.8526                 8.9056
 Frc consts  --      0.2638                 0.2429                 0.4030
 IR Inten    --      3.5643                 4.9658                 0.6854

                     22                     23                     24
                      A                      A                      A
 Frequencies --    296.1701               305.1149               309.5550
 Red. masses --      7.6695                 7.7192                 7.8555
 Frc consts  --      0.3964                 0.4234                 0.4435
 IR Inten    --      2.9412                 1.6785                11.5494

                     25                     26                     27
                      A                      A                      A
 Frequencies --    325.2504               349.8884               360.1152
 Red. masses --      5.2093                 8.3814                 5.0234
 Frc consts  --      0.3247                 0.6045                 0.3838
 IR Inten    --      8.2023                 7.7972                 5.7204

                     28                     29                     30
                      A                      A                      A
 Frequencies --    374.8732               388.7503               399.7379
 Red. masses --      3.5075                 4.9595                 8.9149
 Frc consts  --      0.2904                 0.4416                 0.8393
 IR Inten    --     20.3083                 1.6714                56.0877

                     31                     32                     33
                      A                      A                      A
 Frequencies --    411.2350               413.3065               439.7468
 Red. masses --      2.8903                 2.9070                 6.2998
 Frc consts  --      0.2880                 0.2926                 0.7178
 IR Inten    --      0.5753                 0.3982                 1.3797

                     34                     35                     36
                      A                      A                      A
 Frequencies --    447.2128               481.3998               489.0085
 Red. masses --      8.7920                 5.0258                 4.6556
 Frc consts  --      1.0360                 0.6862                 0.6559
 IR Inten    --      8.9221                 1.4723                50.2928

                     37                     38                     39
                      A                      A                      A
 Frequencies --    495.2715               517.4241               534.5900
 Red. masses --      9.0275                 7.9008                11.4386
 Frc consts  --      1.3047                 1.2463                 1.9260
 IR Inten    --     63.4458                 0.6361               146.3916

                     40                     41                     42
                      A                      A                      A
 Frequencies --    559.4853               580.4209               583.0316
 Red. masses --      7.3459                10.0036                 8.4732
 Frc consts  --      1.3548                 1.9856                 1.6970
 IR Inten    --     23.9360               769.5185                99.8979

                     43                     44                     45
                      A                      A                      A
 Frequencies --    626.8399               627.2903               696.5688
 Red. masses --      6.4647                 6.4690                 4.0351
 Frc consts  --      1.4966                 1.4998                 1.1536
 IR Inten    --      2.0788                 2.3940                 2.2387

                     46                     47                     48
                      A                      A                      A
 Frequencies --    699.6186               702.9065               708.3678
 Red. masses --      2.4676                 2.6333                 6.6115
 Frc consts  --      0.7116                 0.7666                 1.9546
 IR Inten    --    115.7701                11.9050                20.8445

                     49                     50                     51
                      A                      A                      A
 Frequencies --    711.0275               727.5576               734.8856
 Red. masses --      4.5869                 5.1240                 6.5714
 Frc consts  --      1.3663                 1.5981                 2.0910
 IR Inten    --    120.9582                58.5122               165.6840

                     52                     53                     54
                      A                      A                      A
 Frequencies --    742.8278               759.3309               760.0329
 Red. masses --      7.0796                 1.6769                 1.6698
 Frc consts  --      2.3016                 0.5697                 0.5683
 IR Inten    --     14.7336                23.1032                50.0052

                     55                     56                     57
                      A                      A                      A
 Frequencies --    852.5813               854.5174               870.5935
 Red. masses --      1.2518                 1.2507                 9.4725
 Frc consts  --      0.5361                 0.5381                 4.2300
 IR Inten    --      0.1130                 0.2182                25.0020

                     58                     59                     60
                      A                      A                      A
 Frequencies --    915.8547               932.6995               934.7038
 Red. masses --      2.3399                 1.3569                 1.3552
 Frc consts  --      1.1564                 0.6955                 0.6976
 IR Inten    --     36.0352                 0.9915                 0.9808

                     61                     62                     63
                      A                      A                      A
 Frequencies --    992.4050               994.0276              1004.0856
 Red. masses --      1.3880                 1.3840                 4.4616
 Frc consts  --      0.8054                 0.8057                 2.6502
 IR Inten    --      1.2859                 2.2476               151.8049

                     64                     65                     66
                      A                      A                      A
 Frequencies --   1009.7310              1010.4152              1011.4378
 Red. masses --      1.3645                 1.4033                 4.0357
 Frc consts  --      0.8197                 0.8441                 2.4325
 IR Inten    --      3.3335                 3.2978                24.5695

                     67                     68                     69
                      A                      A                      A
 Frequencies --   1012.1903              1020.1929              1030.4224
 Red. masses --      5.0772                 9.0742                 6.7785
 Frc consts  --      3.0648                 5.5645                 4.2405
 IR Inten    --    347.4036               606.7119               107.7754

                     70                     71                     72
                      A                      A                      A
 Frequencies --   1040.0467              1042.1612              1043.6769
 Red. masses --      1.4624                 2.5671                 1.6409
 Frc consts  --      0.9320                 1.6427                 1.0531
 IR Inten    --     21.8973                84.2130                 3.4928

                     73                     74                     75
                      A                      A                      A
 Frequencies --   1045.9886              1047.9154              1092.5437
 Red. masses --      2.3657                 1.7240                 1.7425
 Frc consts  --      1.5250                 1.1154                 1.2255
 IR Inten    --     17.9275                 9.6048                61.5043

                     76                     77                     78
                      A                      A                      A
 Frequencies --   1094.6930              1098.7631              1099.6311
 Red. masses --      1.6726                 2.8572                 2.8444
 Frc consts  --      1.1810                 2.0324                 2.0265
 IR Inten    --     24.1330                71.9210                84.0736

                     79                     80                     81
                      A                      A                      A
 Frequencies --   1112.9345              1154.3855              1160.4321
 Red. masses --      6.2511                10.6791                16.5120
 Frc consts  --      4.5619                 8.3847                13.1006
 IR Inten    --      6.7310                23.0824               456.7198

                     82                     83                     84
                      A                      A                      A
 Frequencies --   1168.5046              1175.5572              1176.2546
 Red. masses --     10.2282                 1.1158                 1.1152
 Frc consts  --      8.2283                 0.9085                 0.9091
 IR Inten    --    635.1084                 0.7655                 0.5887

                     85                     86                     87
                      A                      A                      A
 Frequencies --   1190.0775              1190.9303              1231.8520
 Red. masses --      1.1524                 1.1531                 4.1423
 Frc consts  --      0.9616                 0.9636                 3.7035
 IR Inten    --      2.8108                 2.8880               213.6595

                     88                     89                     90
                      A                      A                      A
 Frequencies --   1324.1094              1324.2378              1340.1949
 Red. masses --      3.1798                 3.2271                 1.7608
 Frc consts  --      3.2847                 3.3342                 1.8634
 IR Inten    --      0.3991                 2.1680                 8.2036

                     91                     92                     93
                      A                      A                      A
 Frequencies --   1341.1502              1355.1038              1373.5189
 Red. masses --      1.7256                 4.8670                 1.9938
 Frc consts  --      1.8287                 5.2657                 2.2162
 IR Inten    --      9.4171                 5.3192               795.6506

                     94                     95                     96
                      A                      A                      A
 Frequencies --   1400.1841              1402.4870              1433.4574
 Red. masses --      1.3814                 3.6580                 3.6312
 Frc consts  --      1.5957                 4.2392                 4.3961
 IR Inten    --      4.0442               106.0008              1400.2116

                     97                     98                     99
                      A                      A                      A
 Frequencies --   1439.9039              1460.6738              1471.6964
 Red. masses --      2.0221                 1.1052                 2.0879
 Frc consts  --      2.4701                 1.3893                 2.6643
 IR Inten    --      4.1041                23.0428                15.2168

                    100                    101                    102
                      A                      A                      A
 Frequencies --   1472.2160              1476.2927              1485.2628
 Red. masses --      2.0905                 1.4431                 1.2525
 Frc consts  --      2.6696                 1.8530                 1.6279
 IR Inten    --     19.7365                31.1409                 3.0525

                    103                    104                    105
                      A                      A                      A
 Frequencies --   1487.1869              1505.2634              1505.9248
 Red. masses --      1.0947                 2.0508                 2.0451
 Frc consts  --      1.4265                 2.7378                 2.7326
 IR Inten    --     25.3393                12.0367                12.8990

                    106                    107                    108
                      A                      A                      A
 Frequencies --   1570.6905              1618.2974              1618.6282
 Red. masses --      7.9633                 5.4507                 5.4354
 Frc consts  --     11.5751                 8.4105                 8.3902
 IR Inten    --      0.0095                 6.3094                 4.1600

                    109                    110                    111
                      A                      A                      A
 Frequencies --   1622.4050              1622.6033              3020.0766
 Red. masses --      5.9377                 5.9135                 1.0459
 Frc consts  --      9.2085                 9.1732                 5.6208
 IR Inten    --      1.2472                 0.7994               177.0230

                    112                    113                    114
                      A                      A                      A
 Frequencies --   3021.4334              3076.5980              3078.2962
 Red. masses --      1.0449                 1.0888                 1.0867
 Frc consts  --      5.6202                 6.0720                 6.0672
 IR Inten    --     31.5448                49.5389                55.2248

                    115                    116                    117
                      A                      A                      A
 Frequencies --   3114.8506              3117.4075              3167.5424
 Red. masses --      1.1024                 1.1021                 1.0860
 Frc consts  --      6.3018                 6.3103                 6.4196
 IR Inten    --     16.6413                15.7832                 0.3617

                    118                    119                    120
                      A                      A                      A
 Frequencies --   3167.9646              3176.0146              3176.3248
 Red. masses --      1.0859                 1.0889                 1.0888
 Frc consts  --      6.4210                 6.4715                 6.4721
 IR Inten    --      0.3605                12.8515                12.2403

                    121                    122                    123
                      A                      A                      A
 Frequencies --   3185.1275              3185.1577              3192.8437
 Red. masses --      1.0927                 1.0926                 1.0966
 Frc consts  --      6.5311                 6.5312                 6.5863
 IR Inten    --     36.9050                 3.9835                16.5269

                    124                    125                    126
                      A                      A                      A
 Frequencies --   3193.0113              3204.0301              3205.1818
 Red. masses --      1.0967                 1.0934                 1.0930
 Frc consts  --      6.5881                 6.6131                 6.6159
 IR Inten    --     21.0691                10.2909                 9.8154

 - Thermochemistry -
 -------------------
 Temperature   298.150 Kelvin.  Pressure   1.00000 Atm.
 Atom     1 has atomic number  6 and mass  12.00000

 Molecular mass:   416.03883 amu.
 Principal axes and moments of inertia in atomic units:
                           1         2         3
     Eigenvalues --  5945.70478********************
           X            0.96103  -0.24683   0.12446
           Y            0.27643   0.85858  -0.43177
           Z           -0.00028   0.44935   0.89336
 This molecule is an asymmetric top.
 Rotational symmetry number  1.
 Warning -- assumption of classical behavior for rotation
           may cause significant error
 Rotational temperatures (Kelvin)      0.01457     0.00437     0.00435
 Rotational constants (GHZ):           0.30354     0.09102     0.09063
 Zero-point vibrational energy     831256.8 (Joules/Mol)
                                  198.67514 (Kcal/Mol)
 Warning -- explicit consideration of  42 degrees of freedom as
           vibrations may cause significant error
 Vibrational temperatures:     29.41    39.40    60.09    63.23    78.74
          (Kelvin)             85.55   108.97   138.26   152.19   186.20
                              206.04   222.74   230.17   242.24   270.37
                              279.77   311.05   322.46   352.05   352.89
                              398.75   426.12   438.99   445.38   467.96
                              503.41   518.13   539.36   559.33   575.13
                              591.68   594.66   632.70   643.44   692.63
                              703.57   712.59   744.46   769.16   804.97
                              835.10   838.85   901.88   902.53  1002.21
                             1006.60  1011.33  1019.18  1023.01  1046.79
                             1057.34  1068.76  1092.51  1093.52  1226.67
                             1229.46  1252.59  1317.71  1341.95  1344.83
                             1427.85  1430.18  1444.66  1452.78  1453.76
                             1455.23  1456.32  1467.83  1482.55  1496.40
                             1499.44  1501.62  1504.94  1507.72  1571.93
                             1575.02  1580.88  1582.12  1601.26  1660.90
                             1669.60  1681.22  1691.36  1692.37  1712.26
                             1713.48  1772.36  1905.10  1905.28  1928.24
                             1929.62  1949.69  1976.19  2014.55  2017.87
                             2062.43  2071.70  2101.58  2117.44  2118.19
                             2124.06  2136.96  2139.73  2165.74  2166.69
                             2259.87  2328.37  2328.84  2334.28  2334.56
                             4345.22  4347.17  4426.54  4428.98  4481.58
                             4485.25  4557.39  4557.99  4569.58  4570.02
                             4582.69  4582.73  4593.79  4594.03  4609.88
                             4611.54

 Zero-point correction=                           0.316609 (Hartree/Particle)
 Thermal correction to Energy=                    0.342295
 Thermal correction to Enthalpy=                  0.343239
 Thermal correction to Gibbs Free Energy=         0.259914
 Sum of electronic and zero-point Energies=          -2019.688254
 Sum of electronic and thermal Energies=             -2019.662568
 Sum of electronic and thermal Enthalpies=           -2019.661624
 Sum of electronic and thermal Free Energies=        -2019.744949

                     E (Thermal)             CV                S
                      KCal/Mol        Cal/Mol-Kelvin    Cal/Mol-Kelvin
 Total                  214.793             98.166            175.371
 Electronic               0.000              0.000              0.000
 Translational            0.889              2.981             43.967
 Rotational               0.889              2.981             36.105
 Vibrational            213.016             92.205             95.299
 Vibration     1          0.593              1.986              6.591
 Vibration     2          0.593              1.984              6.010
 Vibration     3          0.594              1.980              5.174
 Vibration     4          0.595              1.980              5.073
 Vibration     5          0.596              1.976              4.639
 Vibration     6          0.597              1.974              4.475
 Vibration     7          0.599              1.965              3.998
 Vibration     8          0.603              1.952              3.532
 Vibration     9          0.605              1.945              3.345
 Vibration    10          0.612              1.924              2.955
 Vibration    11          0.616              1.910              2.761
 Vibration    12          0.620              1.897              2.612
 Vibration    13          0.622              1.891              2.550
 Vibration    14          0.625              1.881              2.454
 Vibration    15          0.633              1.856              2.248
 Vibration    16          0.635              1.848              2.185
 Vibration    17          0.645              1.816              1.991
 Vibration    18          0.649              1.804              1.926
 Vibration    19          0.660              1.772              1.769
 Vibration    20          0.660              1.771              1.764
 Vibration    21          0.678              1.716              1.551
 Vibration    22          0.690              1.681              1.438
 Vibration    23          0.696              1.664              1.389
 Vibration    24          0.699              1.656              1.365
 Vibration    25          0.709              1.625              1.284
 Vibration    26          0.727              1.575              1.167
 Vibration    27          0.735              1.554              1.122
 Vibration    28          0.746              1.524              1.060
 Vibration    29          0.757              1.494              1.005
 Vibration    30          0.766              1.471              0.964
 Vibration    31          0.775              1.446              0.922
 Vibration    32          0.777              1.441              0.915
 Vibration    33          0.800              1.383              0.827
 Vibration    34          0.806              1.367              0.804
 Vibration    35          0.838              1.291              0.706
 Vibration    36          0.845              1.274              0.686
 Vibration    37          0.851              1.261              0.670
 Vibration    38          0.872              1.211              0.616
 Vibration    39          0.890              1.174              0.577
 Vibration    40          0.915              1.119              0.525
 Vibration    41          0.937              1.074              0.485
 Vibration    42          0.940              1.068              0.480

                           ! Non-Optimized Parameters !
 Normal termination of Gaussian 16 at Sun Feb 11 03:48:36 2024.
