 Q-Chem 5.4, Q-Chem, Inc., Pleasanton, CA (2021)
 Q-Chem 5.4.0 for Intel X86 EM64T Linux

User input:
--------------------------------------------------------------
$molecule
-2 1
O                  2.3669070000      1.6243180000      0.3532210000
C                  1.7303830000      0.4891290000      0.2283820000
C                  2.3940850000     -0.7552030000      0.2553720000
C                  1.6902010000     -1.9705380000      0.1191950000
C                  0.3177570000     -1.9946780000     -0.0467830000
C                 -0.4222360000     -0.7830580000     -0.0842000000
C                 -1.8860130000     -0.8415680000     -0.2621610000
O                 -2.5091220000     -1.9632010000     -0.3847390000
C                 -2.5267900000      0.4218520000     -0.2852700000
C                 -1.8305720000      1.6457560000     -0.1496200000
C                 -0.4600950000      1.6889950000      0.0165590000
O                  0.1950980000      2.9033530000      0.1468160000
C                  0.2756940000      0.4641640000      0.0525670000
H                  1.1641200000      2.6256710000      0.2508950000
H                  3.4747680000     -0.7438720000      0.3857050000
H                  2.2471000000     -2.9094830000      0.1462550000
H                 -0.2382120000     -2.9195560000     -0.1527740000
H                 -3.6085500000      0.4278670000     -0.4147480000
H                 -2.3745200000      2.5900530000     -0.1746730000
$end

$rem
BASIS  =  6-311++G(d,p)
GUI  =  2
JOB_TYPE  =  SP
METHOD  =  B3LYP
SCF_CONVERGENCE  = 8
SOLVENT_METHOD = sm12
$end

$smx
solvent dimethylformamide
charges CM5
$end

--------------------------------------------------------------

             Standard Nuclear Orientation (Angstroms)
    I     Atom           X                Y                Z
 ----------------------------------------------------------------
    1      O       2.3669070000     1.6243180000     0.3532210000
    2      C       1.7303830000     0.4891290000     0.2283820000
    3      C       2.3940850000    -0.7552030000     0.2553720000
    4      C       1.6902010000    -1.9705380000     0.1191950000
    5      C       0.3177570000    -1.9946780000    -0.0467830000
    6      C      -0.4222360000    -0.7830580000    -0.0842000000
    7      C      -1.8860130000    -0.8415680000    -0.2621610000
    8      O      -2.5091220000    -1.9632010000    -0.3847390000
    9      C      -2.5267900000     0.4218520000    -0.2852700000
   10      C      -1.8305720000     1.6457560000    -0.1496200000
   11      C      -0.4600950000     1.6889950000     0.0165590000
   12      O       0.1950980000     2.9033530000     0.1468160000
   13      C       0.2756940000     0.4641640000     0.0525670000
   14      H       1.1641200000     2.6256710000     0.2508950000
   15      H       3.4747680000    -0.7438720000     0.3857050000
   16      H       2.2471000000    -2.9094830000     0.1462550000
   17      H      -0.2382120000    -2.9195560000    -0.1527740000
   18      H      -3.6085500000     0.4278670000    -0.4147480000
   19      H      -2.3745200000     2.5900530000    -0.1746730000
 ----------------------------------------------------------------

   18    -610.5122682118      2.65e-09  Convergence criterion met
 Total energy in the final basis set =     -610.8048918604

                    Orbital Energies (a.u.)
 --------------------------------------------------------------

 Alpha MOs
 -- Occupied --
-19.1082 -19.0623 -19.0349 -10.2182 -10.2061 -10.1990 -10.1756 -10.1669
-10.1641 -10.1607 -10.1552 -10.1537 -10.1484  -1.0202  -0.9675  -0.9488
 -0.8363  -0.7963  -0.7286  -0.7187  -0.6754  -0.6120  -0.5993  -0.5478
 -0.5096  -0.4929  -0.4819  -0.4608  -0.4269  -0.4128  -0.4065  -0.4004
 -0.3913  -0.3745  -0.3662  -0.3552  -0.3511  -0.3415  -0.3284  -0.3013
 -0.2655  -0.2435  -0.2349  -0.2074  -0.1984  -0.1465

          Ground-State Mulliken Net Atomic Charges

     Atom                 Charge (a.u.)
  ----------------------------------------
      1 O                    -0.352833
      2 C                    -0.671199
      3 C                     0.818327
      4 C                     1.168189
      5 C                    -0.515170
      6 C                    -1.298891
      7 C                    -1.435390
      8 O                    -0.374534
      9 C                     0.019244
     10 C                     0.699001
     11 C                    -0.127825
     12 O                    -0.235043
     13 C                    -1.196288
     14 H                     0.385077
     15 H                     0.254215
     16 H                     0.382802
     17 H                     0.078487
     18 H                     0.133372
     19 H                     0.268457
  ----------------------------------------
  Sum of atomic charges =    -2.000000

                    Cartesian Multipole Moments
 -----------------------------------------------------------------
    Charge (ESU x 10^10)
                -9.6064
    Dipole Moment (Debye)
         X       3.0547      Y       0.0641      Z       0.3683
       Tot       3.0775
    Quadrupole Moments (Debye-Ang)
        XX    -130.2945     XY     -19.3822     YY    -122.1901
        XZ      -5.9204     YZ      -3.7992     ZZ     -88.6063

 Total job time:  351.43s(wall), 1987.26s(cpu)
        *  Thank you very much for using Q-Chem.  Have a nice day.  *
