 Gaussian 16, Revision A.03,
 Gaussian 16:  ES64L-G16RevA.03 25-Dec-2016

 ----------------------------------------------------------------------
 #P UB3LYP/6-311++G(d,p) nosym opt freq SCRF=(PCM,Solvent=n,n-DiMethylF
 ormamide)
 ----------------------------------------------------------------------

 --------
 Oxidized
 --------
 Symbolic Z-matrix:
 Charge =  0 Multiplicity = 1

 SCF Done:  E(UB3LYP) =  -918.060206093     A.U. after   16 cycles
 SCF Done:  E(UB3LYP) =  -918.060512415     A.U. after   13 cycles
 SCF Done:  E(UB3LYP) =  -918.060607214     A.U. after   12 cycles
 SCF Done:  E(UB3LYP) =  -918.060622343     A.U. after   12 cycles
 SCF Done:  E(UB3LYP) =  -918.060626681     A.U. after   12 cycles
 SCF Done:  E(UB3LYP) =  -918.060632990     A.U. after   11 cycles
 SCF Done:  E(UB3LYP) =  -918.060631411     A.U. after   12 cycles
 SCF Done:  E(UB3LYP) =  -918.060635695     A.U. after   11 cycles
 SCF Done:  E(UB3LYP) =  -918.060636915     A.U. after   11 cycles
 SCF Done:  E(UB3LYP) =  -918.060637088     A.U. after   10 cycles
 SCF Done:  E(UB3LYP) =  -918.060637114     A.U. after    8 cycles
 Optimization completed.
    -- Stationary point found.
 Normal termination of Gaussian 16 at Sat Feb 10 17:20:06 2024.

 ----------------------------------------------------------------------
 #P Geom=AllCheck Guess=TCheck SCRF=Check GenChk UB3LYP/6-311++G(d,p) F
 req
 ----------------------------------------------------------------------

 Structure from the checkpoint file:  "139.chk"
 --------
 Oxidized
 --------
 Charge =  0 Multiplicity = 1

                          Input orientation:
 ---------------------------------------------------------------------
 Center     Atomic      Atomic             Coordinates (Angstroms)
 Number     Number       Type             X           Y           Z
 ---------------------------------------------------------------------
      1          6           0       -3.216184    3.016997   -0.260189
      2          8           0       -1.909580    2.505550    0.025342
      3          6           0       -1.718638    1.167275    0.062523
      4          6           0       -2.774103    0.261894   -0.104217
      5          6           0       -2.557695   -1.103036   -0.080455
      6          6           0       -1.275352   -1.630770    0.115067
      7          8           0       -1.040987   -2.962696    0.122810
      8          6           0       -2.121775   -3.863272   -0.143665
      9          6           0       -0.186829   -0.742265    0.281804
     10          6           0        1.193916   -1.269957    0.483329
     11          8           0        1.425810   -2.417904    0.840406
     12          6           0        2.326209   -0.338464    0.219946
     13          6           0        3.619766   -0.846392    0.057085
     14          6           0        4.683283    0.018917   -0.171658
     15          6           0        4.467047    1.400338   -0.212061
     16          6           0        3.188147    1.911357   -0.023820
     17          6           0        2.109625    1.043399    0.179383
     18          6           0        0.744744    1.600094    0.399684
     19          8           0        0.614677    2.785714    0.676363
     20          6           0       -0.408445    0.665625    0.250632
     21          1           0       -3.104174    4.098959   -0.271763
     22          1           0       -3.931397    2.734516    0.516808
     23          1           0       -3.571315    2.675907   -1.236383
     24          1           0       -3.782257    0.619643   -0.255067
     25          1           0       -3.404532   -1.760287   -0.214701
     26          1           0       -2.895109   -3.793526    0.625856
     27          1           0       -1.679116   -4.856712   -0.121800
     28          1           0       -2.558113   -3.679128   -1.129078
     29          1           0        3.774264   -1.916778    0.106461
     30          1           0        5.681653   -0.377563   -0.315109
     31          1           0        5.298024    2.073762   -0.386700
     32          1           0        3.008435    2.978801   -0.036832
 ---------------------------------------------------------------------

 SCF Done:  E(UB3LYP) =  -918.060637114     A.U. after    2 cycles

 Alpha  occ. eigenvalues --  -19.16871 -19.16858 -19.12365 -19.12338 -10.27974
 Alpha  occ. eigenvalues --  -10.27970 -10.26170 -10.26155 -10.22825 -10.22819
 Alpha  occ. eigenvalues --  -10.21259 -10.21214 -10.20459 -10.20406 -10.19982
 Alpha  occ. eigenvalues --  -10.19922 -10.19628 -10.19584 -10.19527 -10.19517
 Alpha  occ. eigenvalues --   -1.08775  -1.08658  -1.05699  -1.05521  -0.89145
 Alpha  occ. eigenvalues --   -0.87845  -0.81368  -0.78594  -0.77523  -0.77459
 Alpha  occ. eigenvalues --   -0.73180  -0.70008  -0.69065  -0.66182  -0.64610
 Alpha  occ. eigenvalues --   -0.60779  -0.58287  -0.56502  -0.56235  -0.53018
 Alpha  occ. eigenvalues --   -0.52563  -0.50832  -0.49064  -0.48910  -0.48593
 Alpha  occ. eigenvalues --   -0.47909  -0.45972  -0.45623  -0.45172  -0.45030
 Alpha  occ. eigenvalues --   -0.44787  -0.44144  -0.42700  -0.41595  -0.41538
 Alpha  occ. eigenvalues --   -0.40782  -0.40000  -0.38093  -0.37233  -0.36776
 Alpha  occ. eigenvalues --   -0.36531  -0.35635  -0.34885  -0.31581  -0.28964
 Alpha  occ. eigenvalues --   -0.27848  -0.27752  -0.27209  -0.26221  -0.22969
 Alpha virt. eigenvalues --   -0.11240  -0.06543  -0.03618  -0.01393  -0.00829
 Alpha virt. eigenvalues --   -0.00078   0.00289   0.01361   0.01606   0.02406
 Alpha virt. eigenvalues --    0.02792   0.03020   0.03419   0.03482   0.03516

  Beta  occ. eigenvalues --  -19.16871 -19.16858 -19.12365 -19.12338 -10.27974
  Beta  occ. eigenvalues --  -10.27970 -10.26170 -10.26155 -10.22825 -10.22819
  Beta  occ. eigenvalues --  -10.21259 -10.21214 -10.20459 -10.20406 -10.19982
  Beta  occ. eigenvalues --  -10.19922 -10.19628 -10.19584 -10.19527 -10.19517
  Beta  occ. eigenvalues --   -1.08775  -1.08658  -1.05699  -1.05521  -0.89145
  Beta  occ. eigenvalues --   -0.87845  -0.81368  -0.78594  -0.77523  -0.77459
  Beta  occ. eigenvalues --   -0.73180  -0.70008  -0.69065  -0.66182  -0.64610
  Beta  occ. eigenvalues --   -0.60779  -0.58287  -0.56502  -0.56235  -0.53018
  Beta  occ. eigenvalues --   -0.52563  -0.50832  -0.49064  -0.48910  -0.48593
  Beta  occ. eigenvalues --   -0.47909  -0.45972  -0.45623  -0.45172  -0.45030
  Beta  occ. eigenvalues --   -0.44787  -0.44144  -0.42700  -0.41595  -0.41538
  Beta  occ. eigenvalues --   -0.40782  -0.40000  -0.38093  -0.37233  -0.36776
  Beta  occ. eigenvalues --   -0.36531  -0.35635  -0.34885  -0.31581  -0.28964
  Beta  occ. eigenvalues --   -0.27848  -0.27752  -0.27209  -0.26221  -0.22969
  Beta virt. eigenvalues --   -0.11240  -0.06543  -0.03618  -0.01393  -0.00829
  Beta virt. eigenvalues --   -0.00078   0.00289   0.01361   0.01606   0.02406
  Beta virt. eigenvalues --    0.02792   0.03020   0.03419   0.03482   0.03516

 Mulliken charges and spin densities:
               1          2
     1  C   -0.316359   0.000000
     2  O   -0.139761  -0.000000
     3  C   -0.470728   0.000000
     4  C    0.071382  -0.000000
     5  C    0.076169   0.000000
     6  C   -0.491117  -0.000000
     7  O   -0.139432   0.000000
     8  C   -0.316651  -0.000000
     9  C    0.117036   0.000000
    10  C   -0.419747   0.000000
    11  O   -0.301100  -0.000000
    12  C    0.484543  -0.000000
    13  C    0.158186   0.000000
    14  C   -0.368452  -0.000000
    15  C   -0.376579   0.000000
    16  C    0.177464   0.000000
    17  C    0.482798  -0.000000
    18  C   -0.379443  -0.000000
    19  O   -0.300678   0.000000
    20  C    0.117587  -0.000000
    21  H    0.206827  -0.000000
    22  H    0.168992  -0.000000
    23  H    0.166665  -0.000000
    24  H    0.229129   0.000000
    25  H    0.229282  -0.000000
    26  H    0.169567  -0.000000
    27  H    0.206000   0.000000
    28  H    0.166965   0.000000
    29  H    0.190332  -0.000000
    30  H    0.205951  -0.000000
    31  H    0.205237   0.000000
    32  H    0.189937  -0.000000
 Sum of Mulliken charges =   0.00000  -0.00000

 Dipole moment (field-independent basis, Debye):
    X=             -5.1111    Y=             -0.9038    Z=             -3.2723  Tot=              6.1358
 Quadrupole moment (field-independent basis, Debye-Ang):
   XX=            -73.7758   YY=           -118.2517   ZZ=           -119.4858
   XY=              7.0058   XZ=             -1.4004   YZ=              0.0676

  Exact polarizability: 403.074   9.300 345.518   4.840  -4.000 150.257
 Approx polarizability: 429.176   1.485 420.738   6.431  -5.168 177.335

                      1                      2                      3
                      A                      A                      A
 Frequencies --     35.7620                42.0620                70.0447
 Red. masses --      5.9123                 5.6001                 3.3452
 Frc consts  --      0.0045                 0.0058                 0.0097
 IR Inten    --     11.5401                 7.0023                 0.3210

                      4                      5                      6
                      A                      A                      A
 Frequencies --     97.7211               107.9128               112.2127
 Red. masses --      3.7959                 4.5773                 4.3458
 Frc consts  --      0.0214                 0.0314                 0.0322
 IR Inten    --      0.0976                 1.4072                 3.5884

                      7                      8                      9
                      A                      A                      A
 Frequencies --    162.3351               168.0916               194.7594
 Red. masses --      6.6581                 5.1308                 3.4440
 Frc consts  --      0.1034                 0.0854                 0.0770
 IR Inten    --      6.5670                 4.1901                 1.2855

                     10                     11                     12
                      A                      A                      A
 Frequencies --    241.7956               246.9232               265.3599
 Red. masses --      1.0810                 5.0376                 1.1706
 Frc consts  --      0.0372                 0.1810                 0.0486
 IR Inten    --      0.0106                 1.6819                 1.9773

                     13                     14                     15
                      A                      A                      A
 Frequencies --    276.7928               327.0909               328.8045
 Red. masses --      5.7509                 5.2122                 4.1517
 Frc consts  --      0.2596                 0.3286                 0.2645
 IR Inten    --      0.2335                 0.3275                 8.1485

                     16                     17                     18
                      A                      A                      A
 Frequencies --    357.4894               381.4579               390.3733
 Red. masses --      8.2333                 4.5483                 8.8776
 Frc consts  --      0.6199                 0.3899                 0.7971
 IR Inten    --      2.9280                 0.0079                41.8601

                     19                     20                     21
                      A                      A                      A
 Frequencies --    395.8684               422.6787               426.8308
 Red. masses --      8.0924                 3.7721                 5.6524
 Frc consts  --      0.7472                 0.3971                 0.6067
 IR Inten    --      7.5833                 2.7958                 1.1773

                     22                     23                     24
                      A                      A                      A
 Frequencies --    483.8506               502.9148               514.1894
 Red. masses --      8.5095                 4.8427                 6.3310
 Frc consts  --      1.1737                 0.7216                 0.9862
 IR Inten    --      0.1947                 0.1319                 0.2804

                     25                     26                     27
                      A                      A                      A
 Frequencies --    571.4052               593.6644               630.9264
 Red. masses --      5.6895                 3.3612                 5.1420
 Frc consts  --      1.0945                 0.6980                 1.2060
 IR Inten    --      0.5362                25.6501                 0.0610

                     28                     29                     30
                      A                      A                      A
 Frequencies --    668.8659               686.1013               713.9386
 Red. masses --      6.4993                 5.3154                 5.7593
 Frc consts  --      1.7131                 1.4742                 1.7296
 IR Inten    --     32.0217                 0.2752                13.0712

                     31                     32                     33
                      A                      A                      A
 Frequencies --    738.7544               740.7651               756.0357
 Red. masses --      6.0785                 1.8367                 5.9062
 Frc consts  --      1.9546                 0.5938                 1.9890
 IR Inten    --     31.2016                86.6103                 4.9408

                     34                     35                     36
                      A                      A                      A
 Frequencies --    813.4932               829.8326               835.4994
 Red. masses --      2.0985                 5.5333                 1.8755
 Frc consts  --      0.8182                 2.2450                 0.7713
 IR Inten    --     38.4427                 1.2375                59.7894

                     37                     38                     39
                      A                      A                      A
 Frequencies --    858.4147               868.8552               911.0010
 Red. masses --      7.0433                 8.2784                 1.4937
 Frc consts  --      3.0579                 3.6821                 0.7304
 IR Inten    --     84.4791                 8.9868                 0.0705

                     40                     41                     42
                      A                      A                      A
 Frequencies --    929.6135               956.1764               989.1302
 Red. masses --      5.8157                 1.3454                 6.2466
 Frc consts  --      2.9611                 0.7247                 3.6008
 IR Inten    --      0.5370                 0.0616               410.4271

                     43                     44                     45
                      A                      A                      A
 Frequencies --    996.3888              1019.5356              1051.9312
 Red. masses --      1.4573                 1.3280                 2.2821
 Frc consts  --      0.8524                 0.8133                 1.4878
 IR Inten    --     36.6299                 0.0445                 0.5094

                     46                     47                     48
                      A                      A                      A
 Frequencies --   1071.5215              1112.1623              1112.9069
 Red. masses --     10.1131                 3.9292                 2.3609
 Frc consts  --      6.8412                 2.8635                 1.7229
 IR Inten    --    237.7319                18.4634                 2.5097

                     49                     50                     51
                      A                      A                      A
 Frequencies --   1163.5289              1164.5747              1178.6773
 Red. masses --      1.2702                 1.2706                 1.1338
 Frc consts  --      1.0132                 1.0153                 0.9280
 IR Inten    --      1.4013                 2.7740                28.2904

                     52                     53                     54
                      A                      A                      A
 Frequencies --   1184.8876              1188.5081              1204.8675
 Red. masses --      2.4389                 1.4831                 1.3540
 Frc consts  --      2.0174                 1.2343                 1.1581
 IR Inten    --     27.6786                12.6495                 0.1627

                     55                     56                     57
                      A                      A                      A
 Frequencies --   1211.9083              1255.3816              1256.5172
 Red. masses --      1.4478                 2.0014                 4.2528
 Frc consts  --      1.2528                 1.8584                 3.9560
 IR Inten    --    367.7193                40.3677              1199.5209

                     58                     59                     60
                      A                      A                      A
 Frequencies --   1282.5918              1291.3483              1321.9254
 Red. masses --      2.6257                 4.0355                 3.1959
 Frc consts  --      2.5449                 3.9650                 3.2905
 IR Inten    --    671.1919                41.3495                69.0525

                     61                     62                     63
                      A                      A                      A
 Frequencies --   1347.4113              1357.3874              1419.3523
 Red. masses --      8.5571                 8.0428                 5.4428
 Frc consts  --      9.1533                 8.7310                 6.4602
 IR Inten    --    155.5705                 2.6943               118.3057

                     64                     65                     66
                      A                      A                      A
 Frequencies --   1457.6110              1477.8850              1479.4177
 Red. masses --      1.5722                 1.1916                 2.3363
 Frc consts  --      1.9681                 1.5335                 3.0127
 IR Inten    --    105.1222                 0.5398                 3.9948

                     67                     68                     69
                      A                      A                      A
 Frequencies --   1488.5228              1488.7713              1492.4005
 Red. masses --      1.0486                 1.0473                 1.3335
 Frc consts  --      1.3690                 1.3677                 1.7499
 IR Inten    --      9.1418                24.5553                90.1261

                     70                     71                     72
                      A                      A                      A
 Frequencies --   1497.2446              1501.1122              1506.4688
 Red. masses --      1.0767                 1.2959                 2.5776
 Frc consts  --      1.4221                 1.7204                 3.4466
 IR Inten    --      3.8997                 2.0689                 1.4613

                     73                     74                     75
                      A                      A                      A
 Frequencies --   1588.5220              1614.3171              1617.6612
 Red. masses --      5.3888                 6.1195                 7.5011
 Frc consts  --      8.0118                 9.3961                11.5651
 IR Inten    --    357.3605               102.3239                57.6535

                     76                     77                     78
                      A                      A                      A
 Frequencies --   1623.9557              1693.5951              1694.1772
 Red. masses --      5.8932                11.3860                12.0687
 Frc consts  --      9.1569                19.2415                20.4093
 IR Inten    --    177.2014               131.1704               822.8596

                     79                     80                     81
                      A                      A                      A
 Frequencies --   3022.5183              3023.2981              3090.6959
 Red. masses --      1.0329                 1.0330                 1.1074
 Frc consts  --      5.5599                 5.5628                 6.2327
 IR Inten    --     62.1412               121.0130                40.3579

                     82                     83                     84
                      A                      A                      A
 Frequencies --   3091.2080              3146.2257              3146.4104
 Red. masses --      1.1074                 1.1013                 1.1014
 Frc consts  --      6.2345                 6.4232                 6.4242
 IR Inten    --     42.6236                32.3733                14.6899

                     85                     86                     87
                      A                      A                      A
 Frequencies --   3176.1463              3188.7199              3201.9749
 Red. masses --      1.0874                 1.0914                 1.0926
 Frc consts  --      6.4628                 6.5385                 6.5998
 IR Inten    --      3.3302                13.5860                 5.8422

                     88                     89                     90
                      A                      A                      A
 Frequencies --   3205.0350              3216.0888              3228.7565
 Red. masses --      1.0952                 1.0876                 1.0937
 Frc consts  --      6.6284                 6.6279                 6.7178
 IR Inten    --     21.2607                 4.5479                 2.7213

 - Thermochemistry -
 -------------------
 Temperature   298.150 Kelvin.  Pressure   1.00000 Atm.
 Atom     1 has atomic number  6 and mass  12.00000

 Molecular mass:   268.07356 amu.
 Principal axes and moments of inertia in atomic units:
                           1         2         3
     Eigenvalues --  3859.302305820.880679489.85833
           X            0.98814  -0.15208  -0.02137
           Y            0.15247   0.98814   0.01836
           Z            0.01833  -0.02140   0.99960
 This molecule is an asymmetric top.
 Rotational symmetry number  1.
 Warning -- assumption of classical behavior for rotation
           may cause significant error
 Rotational temperatures (Kelvin)      0.02244     0.01488     0.00913
 Rotational constants (GHZ):           0.46763     0.31005     0.19018
 Zero-point vibrational energy     638793.0 (Joules/Mol)
                                  152.67519 (Kcal/Mol)
 Warning -- explicit consideration of  26 degrees of freedom as
           vibrations may cause significant error
 Vibrational temperatures:     51.45    60.52   100.78   140.60   155.26
          (Kelvin)            161.45   233.56   241.85   280.22   347.89
                              355.27   381.79   398.24   470.61   473.08
                              514.35   548.83   561.66   569.57   608.14
                              614.11   696.15   723.58   739.80   822.12
                              854.15   907.76   962.35   987.15  1027.20
                             1062.90  1065.80  1087.77  1170.44  1193.94
                             1202.10  1235.07  1250.09  1310.73  1337.51
                             1375.72  1423.14  1433.58  1466.88  1513.49
                             1541.68  1600.15  1601.22  1674.06  1675.56
                             1695.85  1704.79  1710.00  1733.54  1743.67
                             1806.21  1807.85  1845.36  1857.96  1901.96
                             1938.62  1952.98  2042.13  2097.18  2126.35
                             2128.55  2141.65  2142.01  2147.23  2154.20
                             2159.77  2167.47  2285.53  2322.64  2327.45
                             2336.51  2436.71  2437.54  4348.73  4349.85
                             4446.82  4447.56  4526.72  4526.98  4569.77
                             4587.86  4606.93  4611.33  4627.23  4645.46

 Zero-point correction=                           0.243303 (Hartree/Particle)
 Thermal correction to Energy=                    0.259947
 Thermal correction to Enthalpy=                  0.260891
 Thermal correction to Gibbs Free Energy=         0.198622
 Sum of electronic and zero-point Energies=           -917.817334
 Sum of electronic and thermal Energies=              -917.800691
 Sum of electronic and thermal Enthalpies=            -917.799746
 Sum of electronic and thermal Free Energies=         -917.862015

                     E (Thermal)             CV                S
                      KCal/Mol        Cal/Mol-Kelvin    Cal/Mol-Kelvin
 Total                  163.119             64.311            131.055
 Electronic               0.000              0.000              0.000
 Translational            0.889              2.981             42.657
 Rotational               0.889              2.981             33.721
 Vibrational            161.341             58.350             54.677
 Vibration     1          0.594              1.982              5.481
 Vibration     2          0.595              1.980              5.160
 Vibration     3          0.598              1.968              4.152
 Vibration     4          0.603              1.951              3.499
 Vibration     5          0.606              1.943              3.306
 Vibration     6          0.607              1.939              3.230
 Vibration     7          0.622              1.889              2.522
 Vibration     8          0.625              1.882              2.457
 Vibration     9          0.635              1.847              2.182
 Vibration    10          0.658              1.776              1.790
 Vibration    11          0.661              1.768              1.752
 Vibration    12          0.671              1.737              1.626
 Vibration    13          0.678              1.716              1.553
 Vibration    14          0.711              1.621              1.274
 Vibration    15          0.712              1.618              1.266
 Vibration    16          0.733              1.560              1.133
 Vibration    17          0.751              1.510              1.033
 Vibration    18          0.758              1.491              0.999
 Vibration    19          0.763              1.479              0.978
 Vibration    20          0.785              1.421              0.883
 Vibration    21          0.788              1.412              0.869
 Vibration    22          0.840              1.286              0.700
 Vibration    23          0.858              1.244              0.651
 Vibration    24          0.869              1.219              0.624
 Vibration    25          0.928              1.093              0.502
 Vibration    26          0.951              1.045              0.461

                           ! Non-Optimized Parameters !
 Normal termination of Gaussian 16 at Sat Feb 10 19:14:13 2024.
