 Q-Chem 5.4, Q-Chem, Inc., Pleasanton, CA (2021)
 Q-Chem 5.4.0 for Intel X86 EM64T Linux

User input:
--------------------------------------------------------------
$molecule
-2 1
C                  5.9024280000     -5.2110920000      1.1205530000
C                  6.7903910000     -5.0839110000      0.0788610000
C                  6.5770690000     -4.0905330000     -0.9148510000
C                  4.7675890000     -4.3783030000      1.2427240000
C                  4.5492120000     -3.3611970000      0.2253580000
C                  5.4837970000     -3.2615140000     -0.8296050000
C                  3.8675640000     -4.5663820000      2.3706630000
C                  2.7764980000     -3.6576260000      2.3573070000
C                  2.5651150000     -2.6730530000      1.3725050000
C                  3.4135840000     -2.4517540000      0.2555530000
O                  4.0599510000     -5.4712170000      3.2775290000
O                  3.2170870000     -1.5456080000     -0.6491250000
H                  6.0410600000     -5.9606410000      1.8927420000
H                  5.2967590000     -2.4947300000     -1.5741640000
Cl                 7.7183690000     -3.9005840000     -2.2855860000
Cl                 8.2078600000     -6.1799290000     -0.0054100000
H                  2.0629170000     -3.7458710000      3.1777080000
H                  1.6929970000     -2.0228550000      1.4542890000
$end
$rem
MAX_SCF_CYCLES=200
BASIS  =  6-311++G(d,p)
GUI  =  2
JOB_TYPE  =  SP
METHOD  =  B3LYP
SOLVENT_METHOD = PCM
$end
$pcm
theory = CPCM
$end
$solvent
dielectric 37.219
opticaldielectric 1.43
$end

--------------------------------------------------------------

             Standard Nuclear Orientation (Angstroms)
    I     Atom           X                Y                Z
 ----------------------------------------------------------------
    1      C       5.9024280000    -5.2110920000     1.1205530000
    2      C       6.7903910000    -5.0839110000     0.0788610000
    3      C       6.5770690000    -4.0905330000    -0.9148510000
    4      C       4.7675890000    -4.3783030000     1.2427240000
    5      C       4.5492120000    -3.3611970000     0.2253580000
    6      C       5.4837970000    -3.2615140000    -0.8296050000
    7      C       3.8675640000    -4.5663820000     2.3706630000
    8      C       2.7764980000    -3.6576260000     2.3573070000
    9      C       2.5651150000    -2.6730530000     1.3725050000
   10      C       3.4135840000    -2.4517540000     0.2555530000
   11      O       4.0599510000    -5.4712170000     3.2775290000
   12      O       3.2170870000    -1.5456080000    -0.6491250000
   13      H       6.0410600000    -5.9606410000     1.8927420000
   14      H       5.2967590000    -2.4947300000    -1.5741640000
   15      Cl      7.7183690000    -3.9005840000    -2.2855860000
   16      Cl      8.2078600000    -6.1799290000    -0.0054100000
   17      H       2.0629170000    -3.7458710000     3.1777080000
   18      H       1.6929970000    -2.0228550000     1.4542890000
 ----------------------------------------------------------------

    9   -1454.7671610174      9.29e-06  Convergence criterion met
 Total energy in the final basis set =    -1454.7671610174

                    Orbital Energies (a.u.)
 --------------------------------------------------------------

 Alpha MOs
 -- Occupied --
********-101.5507 -19.0250 -19.0250 -10.2287 -10.2282 -10.1795 -10.1795
-10.1674 -10.1673 -10.1534 -10.1530 -10.1294 -10.1290  -9.4648  -9.4648
 -7.2293  -7.2293  -7.2197  -7.2197  -7.2195  -7.2194  -0.9399  -0.9363
 -0.8911  -0.8428  -0.8193  -0.7648  -0.7363  -0.7027  -0.6502  -0.6046
 -0.5843  -0.5401  -0.4847  -0.4794  -0.4571  -0.4275  -0.4220  -0.4035
 -0.4018  -0.3952  -0.3672  -0.3649  -0.3632  -0.3416  -0.3307  -0.3281
 -0.3245  -0.3201  -0.3047  -0.3020  -0.2420  -0.2316  -0.2222  -0.2076
 -0.2038  -0.1229

          Ground-State Mulliken Net Atomic Charges

     Atom                 Charge (a.u.)
  ----------------------------------------
      1 C                    -0.917556
      2 C                     0.720786
      3 C                     0.719017
      4 C                    -0.327354
      5 C                    -0.327990
      6 C                    -0.921219
      7 C                    -0.564233
      8 C                    -0.028371
      9 C                    -0.028756
     10 C                    -0.562488
     11 O                    -0.729922
     12 O                    -0.730211
     13 H                     0.201301
     14 H                     0.201534
     15 Cl                    0.500279
     16 Cl                    0.499941
     17 H                     0.147632
     18 H                     0.147611
  ----------------------------------------
  Sum of atomic charges =    -2.000000

                    Cartesian Multipole Moments
 -----------------------------------------------------------------
    Charge (ESU x 10^10)
                -9.6064
    Dipole Moment (Debye)
         X     -41.1460      Y      35.8987      Z      -9.1032
       Tot      55.3587
    Quadrupole Moments (Debye-Ang)
        XX    -304.7798     XY     168.2741     YY    -270.0011
        XZ     -31.9369     YZ      58.3729     ZZ    -149.1010

 Total job time:  37.45s(wall), 183.97s(cpu)
        *  Thank you very much for using Q-Chem.  Have a nice day.  *
