 Q-Chem 5.4, Q-Chem, Inc., Pleasanton, CA (2021)
 Q-Chem 5.4.0 for Intel X86 EM64T Linux

User input:
--------------------------------------------------------------
$molecule
-2 1
C                 -0.1245150000      1.8978820000      5.0405700000
C                  1.0520980000      1.3159870000      4.4587660000
C                  1.3776790000      1.3044810000      3.1006630000
C                  0.4836070000      1.9112730000      2.1294180000
C                 -0.6978950000      2.4754060000      2.6902670000
C                 -0.9914840000      2.4991810000      4.0621500000
O                 -0.3640840000      1.8525530000      6.3102790000
O                  0.7250010000      1.9425600000      0.8484750000
S                 -2.4775970000      3.3559230000      4.5977340000
C                 -3.3742560000      2.0386400000      5.5550920000
C                 -4.4908860000      2.6929430000      6.3673320000
C                 -3.9023850000      0.9290630000      4.6479050000
C                  2.6814650000      0.6539660000      2.5936620000
C                  3.5393490000      0.0412940000      3.7174650000
C                  3.5397710000      1.7220760000      1.8712000000
C                  2.3379240000     -0.4759260000      1.5913100000
H                  1.7126810000      0.8537220000      5.1868510000
H                 -1.3942800000      2.9292720000      1.9896510000
H                 -2.5999820000      1.6464570000      6.2215500000
H                 -4.0887010000      3.4337680000      7.0644490000
H                 -5.0412100000      1.9398390000      6.9494240000
H                 -5.2168260000      3.1964690000      5.7156270000
H                 -3.0974550000      0.5215460000      4.0322640000
H                 -4.6868910000      1.3042270000      3.9796310000
H                 -4.3268430000      0.1090580000      5.2488150000
H                  3.0013120000     -0.7468850000      4.2535400000
H                  3.8445120000      0.7945710000      4.4505610000
H                  4.4475980000     -0.4003870000      3.2845220000
H                  3.8490470000      2.4991510000      2.5799820000
H                  2.9407500000      2.1791100000      1.0802320000
H                  4.4469400000      1.2708250000      1.4383530000
H                  1.7855080000     -1.2749870000      2.0992970000
H                  3.2540370000     -0.9113090000      1.1608820000
H                  1.7151500000     -0.0630790000      0.7945190000
$end
$rem
MAX_SCF_CYCLES=200
BASIS  =  6-311++G(d,p)
GUI  =  2
JOB_TYPE  =  SP
METHOD  =  B3LYP
SOLVENT_METHOD = COSMO
$end
$solvent
dielectric 37.219
opticaldielectric 1.43
$end

--------------------------------------------------------------

             Standard Nuclear Orientation (Angstroms)
    I     Atom           X                Y                Z
 ----------------------------------------------------------------
    1      C       0.5253028921    -1.0715593177    -0.4290191467
    2      C      -0.8871012818    -1.1727279538    -0.1915424235
    3      C      -1.7768526521    -0.1043100726    -0.0596149269
    4      C      -1.2954473093     1.2634598529    -0.1508971770
    5      C       0.1076547578     1.3795445005    -0.3667062653
    6      C       0.9788113594     0.2907767169    -0.5232105981
    7      O       1.2879835788    -2.1113587095    -0.5225304482
    8      O      -2.0680166395     2.3082477010    -0.0431015772
    9      S       2.7024702047     0.6300451460    -0.9017420265
   10      C       3.5942315600    -0.2711779708     0.4577890631
   11      C       5.0746633992    -0.3731269711     0.0935957610
   12      C       3.3847430815     0.3905230240     1.8184271426
   13      C      -3.2818347749    -0.3390865853     0.1853065140
   14      C      -3.6653113898    -1.8291629792     0.2682712419
   15      C      -4.0942547112     0.2955122609    -0.9708758482
   16      C      -3.6979547714     0.3313952890     1.5182296501
   17      H      -1.2413861493    -2.1966810001    -0.1129995113
   18      H       0.5031367048     2.3901863296    -0.4300017349
   19      H       3.1307497384    -1.2623648296     0.4433942568
   20      H       5.2125093023    -0.9136974372    -0.8473232816
   21      H       5.6325515617    -0.9048646476     0.8777316407
   22      H       5.5291616545     0.6204101750    -0.0139309727
   23      H       2.3191987409     0.5096755104     2.0267878734
   24      H       3.8522498878     1.3820241416     1.8523498463
   25      H       3.8266093405    -0.2246377761     2.6184252808
   26      H      -3.1468082701    -2.3355437935     1.0885268977
   27      H      -3.4247042150    -2.3614827302    -0.6573227893
   28      H      -4.7465997789    -1.9192133781     0.4418924912
   29      H      -3.8624523878    -0.2098591115    -1.9157232338
   30      H      -3.8224151258     1.3502167604    -1.0547702526
   31      H      -5.1768172477     0.2029165721    -0.7880535900
   32      H      -3.1821237083    -0.1482103765     2.3582352637
   33      H      -4.7834315932     0.2380909213     1.6829233442
   34      H      -3.4185882021     1.3868416422     1.4842691767
 ----------------------------------------------------------------

   12   -1055.0432017880      8.75e-06  Convergence criterion met
 Total energy in the final basis set =    -1055.0432017880
    5   -1055.3206460056      9.32e-06  Convergence criterion met
 Total energy in the final basis set =    -1055.3206460056

                    Orbital Energies (a.u.)
 --------------------------------------------------------------

 Alpha MOs
 -- Occupied --
-88.8137 -19.0189 -19.0120 -10.1783 -10.1714 -10.1664 -10.1611 -10.1511
-10.1491 -10.1465 -10.1378 -10.1309 -10.1307 -10.1306 -10.1204 -10.1187
 -7.8999  -5.8635  -5.8602  -5.8542  -0.9341  -0.9248  -0.8028  -0.7968
 -0.7679  -0.7137  -0.6749  -0.6667  -0.6606  -0.6592  -0.6339  -0.5668
 -0.5481  -0.5287  -0.4906  -0.4471  -0.4413  -0.4355  -0.4264  -0.4148
 -0.4049  -0.4017  -0.3933  -0.3852  -0.3777  -0.3751  -0.3627  -0.3538
 -0.3503  -0.3444  -0.3370  -0.3353  -0.3219  -0.3187  -0.3099  -0.3041
 -0.3021  -0.2975  -0.2900  -0.2309  -0.2204  -0.1981  -0.1945  -0.1880
 -0.1191

          Ground-State Mulliken Net Atomic Charges

     Atom                 Charge (a.u.)
  ----------------------------------------
      1 C                    -0.709999
      2 C                    -0.500267
      3 C                     0.817089
      4 C                    -0.917017
      5 C                    -0.717984
      6 C                     1.746135
      7 O                    -0.715386
      8 O                    -0.724299
      9 S                    -0.576104
     10 C                     0.237396
     11 C                    -0.678319
     12 C                    -0.731246
     13 C                     0.651411
     14 C                    -0.556012
     15 C                    -0.710303
     16 C                    -0.698735
     17 H                     0.156506
     18 H                     0.155335
     19 H                     0.253505
     20 H                     0.158643
     21 H                     0.150626
     22 H                     0.144853
     23 H                     0.156089
     24 H                     0.156562
     25 H                     0.142108
     26 H                     0.131705
     27 H                     0.132369
     28 H                     0.166331
     29 H                     0.122814
     30 H                     0.177567
     31 H                     0.140042
     32 H                     0.123779
     33 H                     0.138471
     34 H                     0.176337
  ----------------------------------------
  Sum of atomic charges =    -2.000000

                    Cartesian Multipole Moments
 -----------------------------------------------------------------
    Charge (ESU x 10^10)
                -9.6064
    Dipole Moment (Debye)
         X       1.9318      Y      -2.5764      Z       4.7602
       Tot       5.7471
    Quadrupole Moments (Debye-Ang)
        XX    -148.8607     XY      23.2511     YY    -158.2677
        XZ       9.2841     YZ      -3.4690     ZZ    -122.1727

 Total job time:  90.93s(wall), 687.31s(cpu)
        *  Thank you very much for using Q-Chem.  Have a nice day.  *
