 Q-Chem 5.4, Q-Chem, Inc., Pleasanton, CA (2021)
 Q-Chem 5.4.0 for Intel X86 EM64T Linux

User input:
--------------------------------------------------------------
$molecule
-1 2
C                 -1.6033300000     -1.3928630000     -0.1354240000
C                 -0.2789120000     -0.6702350000     -0.0985750000
C                 -0.2091530000      0.6889790000      0.1351120000
C                 -1.4543420000      1.5105520000      0.3637250000
C                  1.0698610000      1.3965510000      0.1723600000
O                  1.1493830000      2.6438380000      0.3856570000
C                  2.2465710000      0.5881260000     -0.0493870000
C                  2.1774520000     -0.7584080000     -0.2809000000
C                  0.9225970000     -1.4732550000     -0.3210810000
O                  0.8740010000     -2.7217170000     -0.5368700000
H                 -1.4292080000     -2.4512210000     -0.3337140000
H                 -2.2639910000     -0.9926840000     -0.9154220000
H                 -2.1458060000     -1.2974080000      0.8141240000
H                 -2.0203710000      1.1581010000      1.2357410000
H                 -2.1375290000      1.4616550000     -0.4940980000
H                 -1.1723930000      2.5514700000      0.5272990000
H                  3.2006460000      1.1081210000     -0.0229710000
H                  3.0745230000     -1.3496040000     -0.4455740000
$end
$rem
MAX_SCF_CYCLES=200
BASIS  =  6-311++G(d,p)
GUI  =  2
JOB_TYPE  =  SP
METHOD  =  B3LYP
SOLVENT_METHOD = PCM
$end
$pcm
theory = CPCM
$end
$solvent
dielectric 37.219
opticaldielectric 1.43
$end

--------------------------------------------------------------

             Standard Nuclear Orientation (Angstroms)
    I     Atom           X                Y                Z
 ----------------------------------------------------------------
    1      C      -1.6033300000    -1.3928630000    -0.1354240000
    2      C      -0.2789120000    -0.6702350000    -0.0985750000
    3      C      -0.2091530000     0.6889790000     0.1351120000
    4      C      -1.4543420000     1.5105520000     0.3637250000
    5      C       1.0698610000     1.3965510000     0.1723600000
    6      O       1.1493830000     2.6438380000     0.3856570000
    7      C       2.2465710000     0.5881260000    -0.0493870000
    8      C       2.1774520000    -0.7584080000    -0.2809000000
    9      C       0.9225970000    -1.4732550000    -0.3210810000
   10      O       0.8740010000    -2.7217170000    -0.5368700000
   11      H      -1.4292080000    -2.4512210000    -0.3337140000
   12      H      -2.2639910000    -0.9926840000    -0.9154220000
   13      H      -2.1458060000    -1.2974080000     0.8141240000
   14      H      -2.0203710000     1.1581010000     1.2357410000
   15      H      -2.1375290000     1.4616550000    -0.4940980000
   16      H      -1.1723930000     2.5514700000     0.5272990000
   17      H       3.2006460000     1.1081210000    -0.0229710000
   18      H       3.0745230000    -1.3496040000    -0.4455740000
 ----------------------------------------------------------------

    8    -460.3800966743      6.88e-06  Convergence criterion met
 Total energy in the final basis set =     -460.3800966743

                    Orbital Energies (a.u.)
 --------------------------------------------------------------

 Alpha MOs
 -- Occupied --
-19.0751 -19.0751 -10.2157 -10.2157 -10.1657 -10.1651 -10.1585 -10.1578
-10.1501 -10.1501  -0.9964  -0.9940  -0.8244  -0.7678  -0.7204  -0.6604
 -0.6585  -0.5660  -0.5475  -0.4835  -0.4603  -0.4304  -0.4279  -0.3996
 -0.3962  -0.3922  -0.3850  -0.3842  -0.3804  -0.3644  -0.3465  -0.3378
 -0.2772  -0.2441  -0.2391  -0.2346  -0.1593

 Beta MOs
 -- Occupied --
-19.0684 -19.0683 -10.2141 -10.2140 -10.1649 -10.1643 -10.1572 -10.1566
-10.1502 -10.1501  -0.9845  -0.9819  -0.8190  -0.7648  -0.7174  -0.6568
 -0.6510  -0.5620  -0.5435  -0.4813  -0.4561  -0.4242  -0.4234  -0.3976
 -0.3910  -0.3874  -0.3836  -0.3798  -0.3676  -0.3442  -0.3383  -0.3358
 -0.2472  -0.2379  -0.2295  -0.2287

          Ground-State Mulliken Net Atomic Charges

     Atom                 Charge (a.u.)    Spin (a.u.)
  --------------------------------------------------------
      1 C                    -0.538823       0.005014
      2 C                     0.540979       0.059349
      3 C                     0.539909       0.059354
      4 C                    -0.539052       0.005023
      5 C                    -0.602779       0.121311
      6 O                    -0.538158       0.238005
      7 C                    -0.040733       0.080758
      8 C                    -0.043011       0.080813
      9 C                    -0.602443       0.121307
     10 O                    -0.538230       0.238077
     11 H                     0.175974      -0.001930
     12 H                     0.156875       0.002880
     13 H                     0.157140       0.002883
     14 H                     0.157062       0.002876
     15 H                     0.156928       0.002878
     16 H                     0.175893      -0.001930
     17 H                     0.191351      -0.008335
     18 H                     0.191119      -0.008334
  --------------------------------------------------------
  Sum of atomic charges =    -1.000000

                    Cartesian Multipole Moments
 -----------------------------------------------------------------
    Charge (ESU x 10^10)
                -4.8032
    Dipole Moment (Debye)
         X      -5.5973      Y       0.2130      Z       0.4199
       Tot       5.6171
    Quadrupole Moments (Debye-Ang)
        XX     -65.2217     XY      -2.0217     YY    -104.0203
        XZ      -0.2272     YZ      -6.9783     ZZ     -64.6389

 Total job time:  27.46s(wall), 107.29s(cpu)
        *  Thank you very much for using Q-Chem.  Have a nice day.  *
