 Q-Chem 5.4, Q-Chem, Inc., Pleasanton, CA (2021)
 Q-Chem 5.4.0 for Intel X86 EM64T Linux

User input:
--------------------------------------------------------------
$molecule
-2 1
O                  4.5735790000     -1.4211710000     -0.9022830000
C                  3.3964360000     -0.6844980000     -0.6142140000
C                  3.5007080000      0.6733540000     -0.2546130000
C                  2.3608970000      1.4040410000      0.1038930000
O                  2.4298060000      2.6581320000      0.4435500000
C                  1.0640590000      0.6986930000      0.0545380000
C                 -0.1122090000      1.4101300000      0.3961580000
O                 -0.0159380000      2.7158190000      0.7494680000
C                 -1.3864000000      0.7829350000      0.3729690000
C                 -2.6118350000      1.4397600000      0.7349750000
O                 -2.6024840000      2.7719080000      1.1750610000
C                 -3.8079860000      0.7681540000      0.6647810000
C                 -3.9014960000     -0.5756560000      0.2365260000
C                 -2.7625040000     -1.3021630000     -0.1245250000
O                 -2.8299840000     -2.5468520000     -0.5124240000
C                 -1.4661320000     -0.6023670000     -0.0478270000
C                 -0.2876450000     -1.3082540000     -0.4070610000
O                 -0.3900150000     -2.5941550000     -0.8233990000
C                  0.9863830000     -0.6927850000     -0.3461600000
C                  2.2154820000     -1.3780400000     -0.6528290000
O                  2.2602030000     -2.7444730000     -0.9227630000
H                  5.2508760000     -1.0945550000     -0.2981560000
H                  4.4547600000      1.1900010000     -0.3138530000
H                  0.9847080000      2.9174120000      0.6885060000
H                 -3.5287830000      3.0279870000      1.2195830000
H                 -4.7187590000      1.2960920000      0.9581740000
H                 -4.8634730000     -1.0774220000      0.1885640000
H                 -1.3955330000     -2.7947040000     -0.7662010000
H                  3.2032760000     -2.9373230000     -1.0004370000
$end
$rem
MAX_SCF_CYCLES=200
BASIS  =  6-311++G(d,p)
GUI  =  2
JOB_TYPE  =  SP
METHOD  =  B3LYP
SOLVENT_METHOD = PCM
$end
$pcm
theory = CPCM
$end
$solvent
dielectric 37.219
opticaldielectric 1.43
$end

--------------------------------------------------------------

             Standard Nuclear Orientation (Angstroms)
    I     Atom           X                Y                Z
 ----------------------------------------------------------------
    1      O       4.5735790000    -1.4211710000    -0.9022830000
    2      C       3.3964360000    -0.6844980000    -0.6142140000
    3      C       3.5007080000     0.6733540000    -0.2546130000
    4      C       2.3608970000     1.4040410000     0.1038930000
    5      O       2.4298060000     2.6581320000     0.4435500000
    6      C       1.0640590000     0.6986930000     0.0545380000
    7      C      -0.1122090000     1.4101300000     0.3961580000
    8      O      -0.0159380000     2.7158190000     0.7494680000
    9      C      -1.3864000000     0.7829350000     0.3729690000
   10      C      -2.6118350000     1.4397600000     0.7349750000
   11      O      -2.6024840000     2.7719080000     1.1750610000
   12      C      -3.8079860000     0.7681540000     0.6647810000
   13      C      -3.9014960000    -0.5756560000     0.2365260000
   14      C      -2.7625040000    -1.3021630000    -0.1245250000
   15      O      -2.8299840000    -2.5468520000    -0.5124240000
   16      C      -1.4661320000    -0.6023670000    -0.0478270000
   17      C      -0.2876450000    -1.3082540000    -0.4070610000
   18      O      -0.3900150000    -2.5941550000    -0.8233990000
   19      C       0.9863830000    -0.6927850000    -0.3461600000
   20      C       2.2154820000    -1.3780400000    -0.6528290000
   21      O       2.2602030000    -2.7444730000    -0.9227630000
   22      H       5.2508760000    -1.0945550000    -0.2981560000
   23      H       4.4547600000     1.1900010000    -0.3138530000
   24      H       0.9847080000     2.9174120000     0.6885060000
   25      H      -3.5287830000     3.0279870000     1.2195830000
   26      H      -4.7187590000     1.2960920000     0.9581740000
   27      H      -4.8634730000    -1.0774220000     0.1885640000
   28      H      -1.3955330000    -2.7947040000    -0.7662010000
   29      H       3.2032760000    -2.9373230000    -1.0004370000
 ----------------------------------------------------------------

    9   -1065.4683415733      2.02e-06  Convergence criterion met
 Total energy in the final basis set =    -1065.4683415733

                    Orbital Energies (a.u.)
 --------------------------------------------------------------

 Alpha MOs
 -- Occupied --
-19.1436 -19.1288 -19.1284 -19.1009 -19.0980 -19.0573 -19.0533 -10.2112
-10.2091 -10.2083 -10.2082 -10.2057 -10.2027 -10.2011 -10.1676 -10.1652
-10.1605 -10.1602 -10.1497 -10.1362 -10.1334  -1.0530  -1.0358  -1.0270
 -1.0244  -1.0199  -0.9679  -0.9626  -0.8401  -0.8108  -0.7674  -0.7297
 -0.7167  -0.6990  -0.6612  -0.6262  -0.6171  -0.5767  -0.5614  -0.5449
 -0.5345  -0.5234  -0.5113  -0.4849  -0.4670  -0.4563  -0.4452  -0.4367
 -0.4247  -0.4176  -0.4153  -0.4078  -0.4022  -0.3922  -0.3837  -0.3816
 -0.3782  -0.3656  -0.3614  -0.3593  -0.3493  -0.3449  -0.3388  -0.3322
 -0.3257  -0.3200  -0.2906  -0.2711  -0.2473  -0.2346  -0.2239  -0.2232
 -0.2052  -0.1729  -0.1274

          Ground-State Mulliken Net Atomic Charges

     Atom                 Charge (a.u.)
  ----------------------------------------
      1 O                    -0.391221
      2 C                    -0.503804
      3 C                     0.259839
      4 C                    -0.600054
      5 O                    -0.656797
      6 C                     0.535680
      7 C                    -0.104234
      8 O                    -0.540872
      9 C                     0.231797
     10 C                    -0.288930
     11 O                    -0.364366
     12 C                    -0.110798
     13 C                    -0.242742
     14 C                    -0.492683
     15 O                    -0.673208
     16 C                     0.536034
     17 C                    -0.135580
     18 O                    -0.552999
     19 C                     0.527850
     20 C                    -0.470245
     21 O                    -0.379327
     22 H                     0.310575
     23 H                     0.185564
     24 H                     0.481498
     25 H                     0.305689
     26 H                     0.167654
     27 H                     0.165034
     28 H                     0.483896
     29 H                     0.316749
  ----------------------------------------
  Sum of atomic charges =    -2.000000

                    Cartesian Multipole Moments
 -----------------------------------------------------------------
    Charge (ESU x 10^10)
                -9.6064
    Dipole Moment (Debye)
         X       2.2191      Y       1.4466      Z       1.6422
       Tot       3.1167
    Quadrupole Moments (Debye-Ang)
        XX    -155.5735     XY     -34.0672     YY    -189.4062
        XZ       0.0642     YZ     -16.0359     ZZ    -136.7791

 Total job time:  112.31s(wall), 443.01s(cpu)
        *  Thank you very much for using Q-Chem.  Have a nice day.  *
