 Gaussian 16, Revision A.03,
 Gaussian 16:  ES64L-G16RevA.03 25-Dec-2016

 ----------------------------------------------------------------
 #P UB3LYP/6-311++G(d,p) SCRF=(PCM,Solvent=n,n-DiMethylFormamide)
 ----------------------------------------------------------------

 -------
 Reduced
 -------
 Symbolic Z-matrix:
 Charge = -2 Multiplicity = 1

                         Standard orientation:
 ---------------------------------------------------------------------
 Center     Atomic      Atomic             Coordinates (Angstroms)
 Number     Number       Type             X           Y           Z
 ---------------------------------------------------------------------
      1          8           0        4.740956   -0.715984    0.017933
      2          6           0        3.438032   -0.158157   -0.032627
      3          6           0        3.285341    1.241858   -0.056938
      4          6           0        2.009384    1.818956   -0.034751
      5          8           0        1.840459    3.108916   -0.052810
      6          6           0        0.853275    0.899787   -0.017946
      7          6           0       -0.452974    1.447607   -0.010248
      8          8           0       -0.604819    2.795044   -0.026849
      9          6           0       -1.602405    0.613470    0.012082
     10          6           0       -2.951645    1.105723    0.049437
     11          8           0       -3.205248    2.484696    0.099440
     12          6           0       -4.011224    0.231625    0.047236
     13          6           0       -3.839932   -1.170762    0.003174
     14          6           0       -2.565020   -1.744699   -0.022692
     15          8           0       -2.388953   -3.037889   -0.053175
     16          6           0       -1.412590   -0.823848   -0.011886
     17          6           0       -0.102387   -1.370528   -0.037724
     18          8           0        0.049887   -2.716521   -0.087448
     19          6           0        1.043043   -0.537844   -0.020791
     20          6           0        2.391894   -1.042165    0.002993
     21          8           0        2.678273   -2.400001    0.130557
     22          1           0        5.265358   -0.126753    0.573081
     23          1           0        4.150338    1.891338   -0.159914
     24          1           0        0.352728    3.153659   -0.038914
     25          1           0       -4.155560    2.569718   -0.024122
     26          1           0       -5.023514    0.641478    0.087162
     27          1           0       -4.699021   -1.835155   -0.001178
     28          1           0       -0.912023   -3.076006   -0.079767
     29          1           0        3.640513   -2.430489    0.206558
 ---------------------------------------------------------------------

 SCF Done:  E(UB3LYP) =  -1065.45808047     A.U. after   16 cycles

 The electronic state is 1-A.
 Alpha  occ. eigenvalues --  -19.14561 -19.12898 -19.12716 -19.09748 -19.09438
 Alpha  occ. eigenvalues --  -19.05429 -19.05001 -10.20886 -10.20817 -10.20635
 Alpha  occ. eigenvalues --  -10.20584 -10.20456 -10.20126 -10.19911 -10.16553
 Alpha  occ. eigenvalues --  -10.16332 -10.15837 -10.15809 -10.14970 -10.13524
 Alpha  occ. eigenvalues --  -10.13212  -1.05369  -1.03539  -1.02574  -1.02176
 Alpha  occ. eigenvalues --   -1.01773  -0.96465  -0.95908  -0.83803  -0.80934
 Alpha  occ. eigenvalues --   -0.76615  -0.72779  -0.71503  -0.69747  -0.65989
 Alpha  occ. eigenvalues --   -0.62483  -0.61587  -0.57638  -0.55922  -0.54355
 Alpha  occ. eigenvalues --   -0.53320  -0.52218  -0.51063  -0.48344  -0.46590
 Alpha  occ. eigenvalues --   -0.45487  -0.44295  -0.43547  -0.42325  -0.41602
 Alpha  occ. eigenvalues --   -0.41272  -0.40571  -0.40027  -0.39017  -0.38207
 Alpha  occ. eigenvalues --   -0.37880  -0.37645  -0.36401  -0.36037  -0.35763
 Alpha  occ. eigenvalues --   -0.34744  -0.34225  -0.33602  -0.33123  -0.32288
 Alpha  occ. eigenvalues --   -0.31778  -0.28769  -0.26903  -0.24571  -0.23116
 Alpha  occ. eigenvalues --   -0.22219  -0.22019  -0.20232  -0.17067  -0.12533
 Alpha virt. eigenvalues --   -0.01570  -0.00856  -0.00158   0.00290   0.01378
 Alpha virt. eigenvalues --    0.02046   0.02223   0.04031   0.04178   0.04557
 Alpha virt. eigenvalues --    0.04641   0.05056   0.06130   0.06515   0.06668

  Beta  occ. eigenvalues --  -19.14561 -19.12898 -19.12716 -19.09748 -19.09438
  Beta  occ. eigenvalues --  -19.05429 -19.05001 -10.20886 -10.20817 -10.20635
  Beta  occ. eigenvalues --  -10.20584 -10.20456 -10.20126 -10.19911 -10.16553
  Beta  occ. eigenvalues --  -10.16332 -10.15837 -10.15809 -10.14970 -10.13524
  Beta  occ. eigenvalues --  -10.13212  -1.05369  -1.03539  -1.02574  -1.02176
  Beta  occ. eigenvalues --   -1.01773  -0.96465  -0.95908  -0.83803  -0.80934
  Beta  occ. eigenvalues --   -0.76615  -0.72779  -0.71503  -0.69747  -0.65989
  Beta  occ. eigenvalues --   -0.62483  -0.61587  -0.57638  -0.55922  -0.54355
  Beta  occ. eigenvalues --   -0.53320  -0.52218  -0.51063  -0.48344  -0.46590
  Beta  occ. eigenvalues --   -0.45487  -0.44295  -0.43547  -0.42325  -0.41602
  Beta  occ. eigenvalues --   -0.41272  -0.40571  -0.40027  -0.39017  -0.38207
  Beta  occ. eigenvalues --   -0.37880  -0.37645  -0.36401  -0.36037  -0.35763
  Beta  occ. eigenvalues --   -0.34744  -0.34225  -0.33602  -0.33123  -0.32288
  Beta  occ. eigenvalues --   -0.31778  -0.28769  -0.26903  -0.24571  -0.23116
  Beta  occ. eigenvalues --   -0.22219  -0.22019  -0.20232  -0.17067  -0.12533
  Beta virt. eigenvalues --   -0.01570  -0.00856  -0.00158   0.00290   0.01378
  Beta virt. eigenvalues --    0.02046   0.02223   0.04031   0.04178   0.04557
  Beta virt. eigenvalues --    0.04641   0.05056   0.06130   0.06515   0.06668

 Mulliken charges and spin densities:
               1          2
     1  O   -0.379898   0.000000
     2  C   -0.500745  -0.000000
     3  C    0.273525  -0.000000
     4  C   -0.638541   0.000000
     5  O   -0.641062   0.000000
     6  C    0.532080   0.000000
     7  C   -0.107657  -0.000000
     8  O   -0.531444  -0.000000
     9  C    0.250105  -0.000000
    10  C   -0.278901  -0.000000
    11  O   -0.342867   0.000000
    12  C   -0.118362   0.000000
    13  C   -0.216152   0.000000
    14  C   -0.525401  -0.000000
    15  O   -0.656405   0.000000
    16  C    0.538372   0.000000
    17  C   -0.134755  -0.000000
    18  O   -0.544372   0.000000
    19  C    0.550465   0.000000
    20  C   -0.471489   0.000000
    21  O   -0.363973  -0.000000
    22  H    0.293675  -0.000000
    23  H    0.168891   0.000000
    24  H    0.479824   0.000000
    25  H    0.285616  -0.000000
    26  H    0.141145   0.000000
    27  H    0.152006  -0.000000
    28  H    0.482160  -0.000000
    29  H    0.304159   0.000000
 Sum of Mulliken charges =  -2.00000   0.00000

 Dipole moment (field-independent basis, Debye):
    X=              2.4087    Y=              1.8090    Z=              1.1757  Tot=              3.2336
 Quadrupole moment (field-independent basis, Debye-Ang):
   XX=           -150.9444   YY=           -203.3498   ZZ=           -130.6153
   XY=            -23.3191   XZ=              7.0264   YZ=             -1.2553

 Normal termination of Gaussian 16 at Tue Jan 16 06:28:36 2024.
