 Q-Chem 5.4, Q-Chem, Inc., Pleasanton, CA (2021)
 Q-Chem 5.4.0 for Intel X86 EM64T Linux

User input:
--------------------------------------------------------------
$molecule
-2 1
C                 -2.5664980000     -0.6614920000     -0.2165140000
C                 -1.2106610000     -0.0270950000     -0.0366200000
C                 -1.0955330000      1.3357850000      0.2785570000
C                  0.1512760000      2.0158630000      0.4659640000
O                  0.2464610000      3.2840870000      0.7590060000
C                  1.2823020000      1.1531580000      0.2966410000
C                  1.1927480000     -0.2116590000     -0.0184580000
C                  2.4383670000     -1.0459060000     -0.1782800000
C                 -0.0654980000     -0.8727370000     -0.2014020000
O                 -0.1610410000     -2.1460750000     -0.4952450000
H                 -2.7235170000     -1.4906040000      0.4915540000
H                 -3.3691940000      0.0754670000     -0.0771370000
H                 -2.6720920000     -1.1131890000     -1.2154050000
H                 -2.0024180000      1.9351940000      0.3928050000
H                  2.2682430000      1.6071880000      0.4253470000
H                  3.3417560000     -0.4417730000     -0.0177480000
H                  2.4937410000     -1.5032680000     -1.1787550000
H                  2.4515590000     -1.8929410000      0.5256920000
$end
$rem
MAX_SCF_CYCLES=200
BASIS  =  6-311++G(d,p)
GUI  =  2
JOB_TYPE  =  SP
METHOD  =  B3LYP
SOLVENT_METHOD = PCM
$end
$pcm
theory = CPCM
$end
$solvent
dielectric 37.219
opticaldielectric 1.43
$end

--------------------------------------------------------------

             Standard Nuclear Orientation (Angstroms)
    I     Atom           X                Y                Z
 ----------------------------------------------------------------
    1      C      -2.5664980000    -0.6614920000    -0.2165140000
    2      C      -1.2106610000    -0.0270950000    -0.0366200000
    3      C      -1.0955330000     1.3357850000     0.2785570000
    4      C       0.1512760000     2.0158630000     0.4659640000
    5      O       0.2464610000     3.2840870000     0.7590060000
    6      C       1.2823020000     1.1531580000     0.2966410000
    7      C       1.1927480000    -0.2116590000    -0.0184580000
    8      C       2.4383670000    -1.0459060000    -0.1782800000
    9      C      -0.0654980000    -0.8727370000    -0.2014020000
   10      O      -0.1610410000    -2.1460750000    -0.4952450000
   11      H      -2.7235170000    -1.4906040000     0.4915540000
   12      H      -3.3691940000     0.0754670000    -0.0771370000
   13      H      -2.6720920000    -1.1131890000    -1.2154050000
   14      H      -2.0024180000     1.9351940000     0.3928050000
   15      H       2.2682430000     1.6071880000     0.4253470000
   16      H       3.3417560000    -0.4417730000    -0.0177480000
   17      H       2.4937410000    -1.5032680000    -1.1787550000
   18      H       2.4515590000    -1.8929410000     0.5256920000
 ----------------------------------------------------------------

   10    -460.4862981366      2.43e-06  Convergence criterion met
 Total energy in the final basis set =     -460.4862981366

                    Orbital Energies (a.u.)
 --------------------------------------------------------------

 Alpha MOs
 -- Occupied --
-19.0136 -19.0118 -10.1637 -10.1560 -10.1379 -10.1379 -10.1258 -10.1258
-10.1140 -10.1140  -0.9215  -0.9174  -0.7796  -0.7382  -0.6836  -0.6354
 -0.6205  -0.5283  -0.5102  -0.4397  -0.4190  -0.3951  -0.3872  -0.3813
 -0.3729  -0.3589  -0.3503  -0.3396  -0.3309  -0.3113  -0.3050  -0.2979
 -0.2195  -0.1992  -0.1944  -0.1899  -0.1149

          Ground-State Mulliken Net Atomic Charges

     Atom                 Charge (a.u.)
  ----------------------------------------
      1 C                    -0.437653
      2 C                     1.129075
      3 C                    -0.562314
      4 C                    -0.316378
      5 O                    -0.784223
      6 C                    -0.561460
      7 C                     1.131795
      8 C                    -0.437658
      9 C                    -1.428857
     10 O                    -0.763742
     11 H                     0.139529
     12 H                     0.134282
     13 H                     0.139511
     14 H                     0.102344
     15 H                     0.102665
     16 H                     0.134171
     17 H                     0.139433
     18 H                     0.139479
  ----------------------------------------
  Sum of atomic charges =    -2.000000

                    Cartesian Multipole Moments
 -----------------------------------------------------------------
    Charge (ESU x 10^10)
                -9.6064
    Dipole Moment (Debye)
         X      -0.4498      Y      -6.0086      Z      -1.3951
       Tot       6.1849
    Quadrupole Moments (Debye-Ang)
        XX     -71.0165     XY      -4.8269     YY    -134.9528
        XZ      -1.1423     YZ     -15.1425     ZZ     -72.9065

 Total job time:  32.55s(wall), 104.71s(cpu)
        *  Thank you very much for using Q-Chem.  Have a nice day.  *
