 Gaussian 16, Revision A.03,
 Gaussian 16:  ES64L-G16RevA.03 25-Dec-2016

 ----------------------------------------------------------------------
 #P UB3LYP/6-311++G(d,p) nosym opt freq SCRF=(PCM,Solvent=n,n-DiMethylF
 ormamide)
 ----------------------------------------------------------------------

 --------
 Oxidized
 --------
 Symbolic Z-matrix:
 Charge =  0 Multiplicity = 1

 SCF Done:  E(UB3LYP) =  -1069.12799662     A.U. after   16 cycles
 SCF Done:  E(UB3LYP) =  -1069.12815744     A.U. after   13 cycles
 SCF Done:  E(UB3LYP) =  -1069.12805336     A.U. after   13 cycles
 SCF Done:  E(UB3LYP) =  -1069.12819039     A.U. after   12 cycles
 SCF Done:  E(UB3LYP) =  -1069.12819674     A.U. after   11 cycles
 SCF Done:  E(UB3LYP) =  -1069.12819837     A.U. after   11 cycles
 SCF Done:  E(UB3LYP) =  -1069.12819934     A.U. after   11 cycles
 SCF Done:  E(UB3LYP) =  -1069.12820024     A.U. after   10 cycles
 SCF Done:  E(UB3LYP) =  -1069.12820075     A.U. after   11 cycles
 SCF Done:  E(UB3LYP) =  -1069.12820081     A.U. after   10 cycles
 Optimization completed.
    -- Stationary point found.
 Normal termination of Gaussian 16 at Sat Feb 10 11:14:51 2024.

 ----------------------------------------------------------------------
 #P Geom=AllCheck Guess=TCheck SCRF=Check GenChk UB3LYP/6-311++G(d,p) F
 req
 ----------------------------------------------------------------------

 Structure from the checkpoint file:  "115.chk"
 --------
 Oxidized
 --------
 Charge =  0 Multiplicity = 1

                          Input orientation:
 ---------------------------------------------------------------------
 Center     Atomic      Atomic             Coordinates (Angstroms)
 Number     Number       Type             X           Y           Z
 ---------------------------------------------------------------------
      1          6           0       -2.184046   -3.845306    1.236196
      2          6           0       -0.712576   -3.901481    1.381100
      3          6           0        0.023483   -2.798213    1.552882
      4          6           0       -0.599301   -1.458001    1.602433
      5          6           0       -2.081834   -1.370601    1.453502
      6          6           0       -2.816275   -2.481643    1.285940
      7          8           0       -2.850497   -4.850659    1.087857
      8          8           0        0.065477   -0.446722    1.760317
      9         17           0       -4.539957   -2.433271    1.115978
     10          6           0       -2.667660    0.017686    1.454664
     11          8           0       -2.780475    0.681692    0.452576
     12          8           0       -3.011776    0.394210    2.680294
     13          6           0       -3.573101    1.727121    2.822522
     14          1           0       -0.275721   -4.892108    1.340679
     15          1           0        1.100969   -2.829031    1.662141
     16          1           0       -3.779503    1.835290    3.883142
     17          1           0       -4.489568    1.805991    2.239178
     18          1           0       -2.849009    2.470005    2.490497
 ---------------------------------------------------------------------

 SCF Done:  E(UB3LYP) =  -1069.12820081     A.U. after    1 cycles

 Alpha  occ. eigenvalues -- -101.58841 -19.19879 -19.16253 -19.15991 -19.14613
 Alpha  occ. eigenvalues --  -10.34043 -10.31154 -10.30953 -10.28955 -10.24626
 Alpha  occ. eigenvalues --  -10.23605 -10.22777 -10.22679  -9.50284  -7.26761
 Alpha  occ. eigenvalues --   -7.25788  -7.25689  -1.14192  -1.09508  -1.09017
 Alpha  occ. eigenvalues --   -1.05542  -0.92600  -0.86681  -0.81380  -0.75568
 Alpha  occ. eigenvalues --   -0.72622  -0.67042  -0.63133  -0.59467  -0.56102
 Alpha  occ. eigenvalues --   -0.54931  -0.51894  -0.50991  -0.50238  -0.49348
 Alpha  occ. eigenvalues --   -0.47493  -0.47367  -0.45681  -0.44786  -0.44021
 Alpha  occ. eigenvalues --   -0.43319  -0.41534  -0.39155  -0.38451  -0.34866
 Alpha  occ. eigenvalues --   -0.33696  -0.32993  -0.32581  -0.31205  -0.30271
 Alpha  occ. eigenvalues --   -0.29531
 Alpha virt. eigenvalues --   -0.15398  -0.05102  -0.03200  -0.02084  -0.01091
 Alpha virt. eigenvalues --   -0.00093   0.00468   0.01859   0.02363   0.03022
 Alpha virt. eigenvalues --    0.03576   0.04712   0.05225   0.05625   0.06240

  Beta  occ. eigenvalues -- -101.58841 -19.19879 -19.16253 -19.15991 -19.14613
  Beta  occ. eigenvalues --  -10.34043 -10.31154 -10.30953 -10.28955 -10.24626
  Beta  occ. eigenvalues --  -10.23605 -10.22777 -10.22679  -9.50284  -7.26761
  Beta  occ. eigenvalues --   -7.25788  -7.25689  -1.14192  -1.09508  -1.09017
  Beta  occ. eigenvalues --   -1.05542  -0.92600  -0.86681  -0.81380  -0.75568
  Beta  occ. eigenvalues --   -0.72622  -0.67042  -0.63133  -0.59467  -0.56102
  Beta  occ. eigenvalues --   -0.54931  -0.51894  -0.50991  -0.50238  -0.49348
  Beta  occ. eigenvalues --   -0.47493  -0.47367  -0.45681  -0.44786  -0.44021
  Beta  occ. eigenvalues --   -0.43319  -0.41534  -0.39155  -0.38451  -0.34866
  Beta  occ. eigenvalues --   -0.33696  -0.32993  -0.32581  -0.31205  -0.30271
  Beta  occ. eigenvalues --   -0.29531
  Beta virt. eigenvalues --   -0.15398  -0.05102  -0.03200  -0.02084  -0.01091
  Beta virt. eigenvalues --   -0.00093   0.00468   0.01859   0.02363   0.03022
  Beta virt. eigenvalues --    0.03576   0.04712   0.05225   0.05625   0.06240

 Mulliken charges and spin densities:
               1          2
     1  C   -0.574874  -0.000000
     2  C    0.159175   0.000000
     3  C    0.244940  -0.000000
     4  C   -0.686751   0.000000
     5  C    0.483268  -0.000000
     6  C    0.293215  -0.000000
     7  O   -0.215986  -0.000000
     8  O   -0.217685  -0.000000
     9  Cl   0.555797   0.000000
    10  C   -0.710575  -0.000000
    11  O   -0.202270  -0.000000
    12  O    0.033502   0.000000
    13  C   -0.230810   0.000000
    14  H    0.257129  -0.000000
    15  H    0.254544  -0.000000
    16  H    0.181454  -0.000000
    17  H    0.188222   0.000000
    18  H    0.187706   0.000000
 Sum of Mulliken charges =   0.00000  -0.00000

 Dipole moment (field-independent basis, Debye):
    X=              1.0467    Y=             -0.3258    Z=              2.5716  Tot=              2.7955
 Quadrupole moment (field-independent basis, Debye-Ang):
   XX=            -81.2403   YY=            -81.3887   ZZ=            -74.1229
   XY=            -18.9820   XZ=             -8.1951   YZ=              2.2829

  Exact polarizability: 178.309  34.075 201.677   9.794  13.984 102.252
 Approx polarizability: 212.739  71.162 250.621  15.645  15.082 123.690

                      1                      2                      3
                      A                      A                      A
 Frequencies --     26.6606                60.4145                79.6336
 Red. masses --      5.9737                 9.6324                 7.2592
 Frc consts  --      0.0025                 0.0207                 0.0271
 IR Inten    --      4.3692                 0.6541                18.1548

                      4                      5                      6
                      A                      A                      A
 Frequencies --     95.9364               131.5280               132.2783
 Red. masses --      3.6132                 1.9651                 2.2106
 Frc consts  --      0.0196                 0.0200                 0.0228
 IR Inten    --      0.8098                 0.5907                 0.7611

                      7                      8                      9
                      A                      A                      A
 Frequencies --    198.5736               226.5683               257.9981
 Red. masses --      6.8993                 9.7524                 4.8213
 Frc consts  --      0.1603                 0.2950                 0.1891
 IR Inten    --      5.4013                 1.1359                 0.4083

                     10                     11                     12
                      A                      A                      A
 Frequencies --    280.5492               313.1330               347.5553
 Red. masses --      4.9620                 7.7254                18.1474
 Frc consts  --      0.2301                 0.4463                 1.2916
 IR Inten    --     19.7757                 8.1396                 6.1383

                     13                     14                     15
                      A                      A                      A
 Frequencies --    363.9635               452.8088               517.5052
 Red. masses --      7.2012                11.4835                 9.1011
 Frc consts  --      0.5620                 1.3873                 1.4361
 IR Inten    --     10.3786                13.1996                66.3198

                     16                     17                     18
                      A                      A                      A
 Frequencies --    565.1735               569.8584               630.0002
 Red. masses --      5.5874                 4.6416                 3.1211
 Frc consts  --      1.0515                 0.8881                 0.7299
 IR Inten    --      8.0924                 0.9173                 6.0209

                     19                     20                     21
                      A                      A                      A
 Frequencies --    674.9038               718.2227               790.8757
 Red. masses --      8.7571                 7.2666                 9.9080
 Frc consts  --      2.3501                 2.2085                 3.6513
 IR Inten    --      8.8871                 1.5900                 2.7227

                     22                     23                     24
                      A                      A                      A
 Frequencies --    800.7034               856.6867               903.2428
 Red. masses --      6.6134                 2.0933                 6.9081
 Frc consts  --      2.4982                 0.9051                 3.3206
 IR Inten    --     25.5454                63.0879                28.8602

                     25                     26                     27
                      A                      A                      A
 Frequencies --    914.1065               972.9170              1009.8117
 Red. masses --     10.7551                 7.9190                 1.2513
 Frc consts  --      5.2949                 4.4164                 0.7518
 IR Inten    --     84.0598                91.6603                 0.0159

                     28                     29                     30
                      A                      A                      A
 Frequencies --   1071.7608              1123.3624              1165.9739
 Red. masses --      5.0364                 1.5138                 1.2775
 Frc consts  --      3.4085                 1.1255                 1.0233
 IR Inten    --    271.9284                41.2234                 1.7487

                     31                     32                     33
                      A                      A                      A
 Frequencies --   1201.4933              1233.5396              1287.5198
 Red. masses --      1.6573                 3.8637                 2.9579
 Frc consts  --      1.4096                 3.4638                 2.8889
 IR Inten    --     23.6290               376.0822                79.1536

                     34                     35                     36
                      A                      A                      A
 Frequencies --   1309.5910              1387.3143              1467.6897
 Red. masses --      5.3018                 1.7824                 1.2201
 Frc consts  --      5.3573                 2.0212                 1.5485
 IR Inten    --    515.0924                16.8729                27.2272

                     37                     38                     39
                      A                      A                      A
 Frequencies --   1476.4842              1481.3871              1639.1346
 Red. masses --      1.0443                 1.0440                10.4172
 Frc consts  --      1.3413                 1.3498                16.4903
 IR Inten    --     16.9676                17.3678               133.1848

                     40                     41                     42
                      A                      A                      A
 Frequencies --   1680.1147              1701.2803              1724.8790
 Red. masses --      9.4081                10.7403                11.6399
 Frc consts  --     15.6469                18.3154                20.4040
 IR Inten    --     10.1476               709.3474               375.6063

                     43                     44                     45
                      A                      A                      A
 Frequencies --   1761.0922              3065.0535              3147.7952
 Red. masses --     11.8198                 1.0290                 1.1087
 Frc consts  --     21.5985                 5.6956                 6.4725
 IR Inten    --    556.2721                27.3171                16.9316

                     46                     47                     48
                      A                      A                      A
 Frequencies --   3180.4882              3192.2191              3207.1693
 Red. masses --      1.1072                 1.0881                 1.0999
 Frc consts  --      6.5987                 6.5326                 6.6656
 IR Inten    --     10.5282                 0.7691                 0.1741

 - Thermochemistry -
 -------------------
 Temperature   298.150 Kelvin.  Pressure   1.00000 Atm.
 Atom     1 has atomic number  6 and mass  12.00000

 Molecular mass:   199.98764 amu.
 Principal axes and moments of inertia in atomic units:
                           1         2         3
     Eigenvalues --  1806.789472918.180624315.54200
           X           -0.17902   0.98190  -0.06183
           Y            0.97054   0.16595  -0.17469
           Z            0.16127   0.09128   0.98268
 This molecule is an asymmetric top.
 Rotational symmetry number  1.
 Warning -- assumption of classical behavior for rotation
           may cause significant error
 Rotational temperatures (Kelvin)      0.04794     0.02968     0.02007
 Rotational constants (GHZ):           0.99887     0.61845     0.41820
 Zero-point vibrational energy     307422.0 (Joules/Mol)
                                   73.47563 (Kcal/Mol)
 Warning -- explicit consideration of  17 degrees of freedom as
           vibrations may cause significant error
 Vibrational temperatures:     38.36    86.92   114.57   138.03   189.24
          (Kelvin)            190.32   285.70   325.98   371.20   403.65
                              450.53   500.05   523.66   651.49   744.57
                              813.16   819.90   906.43   971.04  1033.36
                             1137.89  1152.03  1232.58  1299.56  1315.20
                             1399.81  1452.89  1542.02  1616.27  1677.58
                             1728.68  1774.79  1852.45  1884.21  1996.04
                             2111.68  2124.33  2131.39  2358.35  2417.31
                             2447.76  2481.72  2533.82  4409.93  4528.98
                             4576.01  4592.89  4614.40

 Zero-point correction=                           0.117091 (Hartree/Particle)
 Thermal correction to Energy=                    0.129372
 Thermal correction to Enthalpy=                  0.130316
 Thermal correction to Gibbs Free Energy=         0.076706
 Sum of electronic and zero-point Energies=          -1069.011110
 Sum of electronic and thermal Energies=             -1068.998829
 Sum of electronic and thermal Enthalpies=           -1068.997884
 Sum of electronic and thermal Free Energies=        -1069.051495

                     E (Thermal)             CV                S
                      KCal/Mol        Cal/Mol-Kelvin    Cal/Mol-Kelvin
 Total                   81.182             42.612            112.833
 Electronic               0.000              0.000              0.000
 Translational            0.889              2.981             41.784
 Rotational               0.889              2.981             31.498
 Vibrational             79.405             36.651             39.550
 Vibration     1          0.593              1.984              6.064
 Vibration     2          0.597              1.973              4.444
 Vibration     3          0.600              1.963              3.900
 Vibration     4          0.603              1.952              3.535
 Vibration     5          0.612              1.922              2.924
 Vibration     6          0.612              1.921              2.913
 Vibration     7          0.637              1.842              2.146
 Vibration     8          0.650              1.801              1.906
 Vibration     9          0.667              1.749              1.675
 Vibration    10          0.680              1.710              1.530
 Vibration    11          0.701              1.649              1.346
 Vibration    12          0.725              1.580              1.177
 Vibration    13          0.737              1.546              1.105
 Vibration    14          0.811              1.355              0.787
 Vibration    15          0.873              1.211              0.616
 Vibration    16          0.921              1.107              0.514
 Vibration    17          0.926              1.096              0.505

                           ! Non-Optimized Parameters !
 Normal termination of Gaussian 16 at Sat Feb 10 11:33:01 2024.
