 Q-Chem 5.4, Q-Chem, Inc., Pleasanton, CA (2021)
 Q-Chem 5.4.0 for Intel X86 EM64T Linux

User input:
--------------------------------------------------------------
$molecule
0 1
C                  1.7656180000      1.2968070000     -0.4885340000
C                  0.4688920000      1.6460580000      0.1840840000
C                 -0.4903510000      0.7202520000      0.3561470000
C                 -0.3190090000     -0.6826890000     -0.1678730000
C                  0.9798980000     -1.0521030000     -0.7793220000
C                  1.9619350000     -0.1250540000     -0.9469690000
O                  2.6377120000      2.1172600000     -0.6458460000
O                 -1.2302450000     -1.4843340000     -0.1067640000
O                  3.1561630000     -0.2691670000     -1.5197670000
C                  3.7548850000     -1.5538600000     -1.7593270000
Br                 0.3264140000      3.4373130000      0.7607510000
Br                -2.1372220000      1.0574730000      1.2123300000
H                  3.2210790000     -2.1005320000     -2.5338470000
H                  3.7834430000     -2.1406370000     -0.8383820000
H                  4.7688190000     -1.3234840000     -2.0811300000
O                  1.0872520000     -2.2964710000     -1.3191810000
C                  0.9817970000     -3.4298320000     -0.4351280000
H                  0.0063530000     -3.4613980000      0.0469630000
H                  1.7795200000     -3.3977170000      0.3146790000
H                  1.1108170000     -4.3047930000     -1.0702250000
$end
$rem
MAX_SCF_CYCLES=200
BASIS  =  6-311++G(d,p)
GUI  =  2
JOB_TYPE  =  SP
METHOD  =  B3LYP
SOLVENT_METHOD = COSMO
$end
$solvent
dielectric 37.219
opticaldielectric 1.43
$end

--------------------------------------------------------------

             Standard Nuclear Orientation (Angstroms)
    I     Atom           X                Y                Z
 ----------------------------------------------------------------
    1      C       0.5143429036    -1.5760437763     0.0698462631
    2      C      -0.6990602555    -0.6918229815     0.0286647907
    3      C      -0.5786835935     0.6466655440     0.0574308302
    4      C       0.7723096411     1.3026122626     0.1868513597
    5      C       1.9781651980     0.4406067848     0.1680123082
    6      C       1.8672252637    -0.9150901520     0.1267790602
    7      O       0.4212284734    -2.7797438390     0.0402828208
    8      O       0.8680521673     2.5064837686     0.3219321843
    9      O       2.8329362148    -1.8324172726     0.1577618673
   10      C       4.2107215695    -1.5218589218    -0.1097342232
   11      Br     -2.3474438572    -1.6039249688    -0.0824241407
   12      Br     -2.0404868187     1.8368089333    -0.0176788670
   13      H       4.6410678914    -0.9165326126     0.6852893326
   14      H       4.3078952202    -1.0062241377    -1.0678263645
   15      H       4.7010368522    -2.4921930404    -0.1620319311
   16      O       3.1820790964     1.0424123068     0.3676263851
   17      C       3.6337753107     1.9960315978    -0.6140855879
   18      H       2.9517421549     2.8416946630    -0.6817900662
   19      H       3.7402617380     1.5099007195    -1.5897603826
   20      H       4.6084259594     2.3319337952    -0.2636901852
 ----------------------------------------------------------------

    9   -5757.7372002394      5.03e-06  Convergence criterion met
 Total energy in the final basis set =    -5757.7372002394
    5   -5757.7539442238      4.05e-06  Convergence criterion met
 Total energy in the final basis set =    -5757.7539442238

                    Orbital Energies (a.u.)
 --------------------------------------------------------------

 Alpha MOs
 -- Occupied --
********-482.8571 -62.5103 -62.5098 -56.3310 -56.3305 -56.3271 -56.3266
-56.3266 -56.3261 -19.1877 -19.1679 -19.1582 -19.1509 -10.3117 -10.3060
-10.2813 -10.2765 -10.2750 -10.2653 -10.2279 -10.2214  -8.7191  -8.7186
 -6.5511  -6.5507  -6.5379  -6.5374  -6.5364  -6.5360  -2.6620  -2.6615
 -2.6584  -2.6580  -2.6574  -2.6569  -2.6468  -2.6467  -2.6462  -2.6462
 -1.1165  -1.0973  -1.0862  -1.0694  -0.9022  -0.8361  -0.8261  -0.7668
 -0.7523  -0.6985  -0.6938  -0.6225  -0.6155  -0.5728  -0.5429  -0.5264
 -0.5054  -0.4912  -0.4827  -0.4710  -0.4668  -0.4598  -0.4519  -0.4366
 -0.4320  -0.4252  -0.3870  -0.3743  -0.3669  -0.3612  -0.3310  -0.3288
 -0.3283  -0.3121  -0.2964  -0.2891  -0.2867  -0.2538

          Ground-State Mulliken Net Atomic Charges

     Atom                 Charge (a.u.)
  ----------------------------------------
      1 C                    -0.800397
      2 C                     0.380454
      3 C                     0.690207
      4 C                    -0.560212
      5 C                     0.429863
      6 C                     0.348040
      7 O                    -0.226904
      8 O                    -0.246138
      9 O                    -0.189808
     10 C                    -0.295063
     11 Br                   -0.069559
     12 Br                   -0.048758
     13 H                     0.204405
     14 H                     0.191638
     15 H                     0.207695
     16 O                    -0.218580
     17 C                    -0.322585
     18 H                     0.180590
     19 H                     0.161831
     20 H                     0.183280
  ----------------------------------------
  Sum of atomic charges =     0.000000

                    Cartesian Multipole Moments
 -----------------------------------------------------------------
    Charge (ESU x 10^10)
                 0.0000
    Dipole Moment (Debye)
         X       3.9041      Y       1.1955      Z      -2.1598
       Tot       4.6191
    Quadrupole Moments (Debye-Ang)
        XX     -79.8263     XY       0.1604     YY    -122.5670
        XZ      -6.6974     YZ      -3.0247     ZZ    -103.8860

 Total job time:  59.78s(wall), 263.52s(cpu)
        *  Thank you very much for using Q-Chem.  Have a nice day.  *
