 Q-Chem 5.4, Q-Chem, Inc., Pleasanton, CA (2021)
 Q-Chem 5.4.0 for Intel X86 EM64T Linux

User input:
--------------------------------------------------------------
$molecule
0 1
C                  5.2775950000     -2.3218270000      0.3674360000
C                  6.0335320000     -1.4894170000     -0.4498540000
C                  5.4029770000     -0.6014870000     -1.3261310000
C                  3.8803940000     -2.2753870000      0.3173540000
C                  3.2518290000     -1.3845140000     -0.5617640000
C                  4.0156340000     -0.5489610000     -1.3821420000
C                  3.0990850000     -3.1875470000      1.2129950000
C                  1.6013000000     -3.1354270000      1.1568990000
C                  0.9952660000     -2.2369950000      0.2708060000
C                  1.7710650000     -1.3258330000     -0.6240060000
C                  0.7733010000     -3.9769350000      1.9824850000
C                 -0.6542410000     -3.8645580000      1.8677400000
C                 -0.4122940000     -2.1461360000      0.1772930000
C                 -1.2129720000     -2.9364170000      0.9527820000
O                  3.7116600000     -3.9401540000      1.9562950000
O                  1.2003790000     -0.5568090000     -1.3827570000
H                  5.7483120000     -3.0156800000      1.0520970000
H                  7.1160440000     -1.5301220000     -0.4064050000
H                  5.9957680000      0.0461680000     -1.9620240000
H                 -2.2928450000     -2.8625790000      0.8770110000
H                  3.5015530000      0.1293880000     -2.0516850000
H                 -0.8272130000     -1.4344480000     -0.5243890000
C                 -1.5035640000     -4.6732500000      2.6609710000
C                 -0.9760940000     -5.5776830000      3.5523400000
C                  0.4252420000     -5.7018190000      3.6784690000
C                  1.2693570000     -4.9299820000      2.9215370000
O                 -1.7324640000     -6.3873190000      4.3467340000
H                 -2.5789960000     -4.5660770000      2.5523830000
H                  0.8182480000     -6.4209900000      4.3871090000
H                  2.3341780000     -5.0428840000      3.0356260000
H                 -2.6688450000     -6.2268850000      4.1861900000
$end
$rem
MAX_SCF_CYCLES=200
BASIS  =  6-311++G(d,p)
GUI  =  2
JOB_TYPE  =  SP
METHOD  =  B3LYP
SOLVENT_METHOD = PCM
$end
$pcm
theory = CPCM
$end
$solvent
dielectric 37.219
opticaldielectric 1.43
$end

--------------------------------------------------------------

             Standard Nuclear Orientation (Angstroms)
    I     Atom           X                Y                Z
 ----------------------------------------------------------------
    1      C       5.2775950000    -2.3218270000     0.3674360000
    2      C       6.0335320000    -1.4894170000    -0.4498540000
    3      C       5.4029770000    -0.6014870000    -1.3261310000
    4      C       3.8803940000    -2.2753870000     0.3173540000
    5      C       3.2518290000    -1.3845140000    -0.5617640000
    6      C       4.0156340000    -0.5489610000    -1.3821420000
    7      C       3.0990850000    -3.1875470000     1.2129950000
    8      C       1.6013000000    -3.1354270000     1.1568990000
    9      C       0.9952660000    -2.2369950000     0.2708060000
   10      C       1.7710650000    -1.3258330000    -0.6240060000
   11      C       0.7733010000    -3.9769350000     1.9824850000
   12      C      -0.6542410000    -3.8645580000     1.8677400000
   13      C      -0.4122940000    -2.1461360000     0.1772930000
   14      C      -1.2129720000    -2.9364170000     0.9527820000
   15      O       3.7116600000    -3.9401540000     1.9562950000
   16      O       1.2003790000    -0.5568090000    -1.3827570000
   17      H       5.7483120000    -3.0156800000     1.0520970000
   18      H       7.1160440000    -1.5301220000    -0.4064050000
   19      H       5.9957680000     0.0461680000    -1.9620240000
   20      H      -2.2928450000    -2.8625790000     0.8770110000
   21      H       3.5015530000     0.1293880000    -2.0516850000
   22      H      -0.8272130000    -1.4344480000    -0.5243890000
   23      C      -1.5035640000    -4.6732500000     2.6609710000
   24      C      -0.9760940000    -5.5776830000     3.5523400000
   25      C       0.4252420000    -5.7018190000     3.6784690000
   26      C       1.2693570000    -4.9299820000     2.9215370000
   27      O      -1.7324640000    -6.3873190000     4.3467340000
   28      H      -2.5789960000    -4.5660770000     2.5523830000
   29      H       0.8182480000    -6.4209900000     4.3871090000
   30      H       2.3341780000    -5.0428840000     3.0356260000
   31      H      -2.6688450000    -6.2268850000     4.1861900000
 ----------------------------------------------------------------

    8    -917.8931485557      9.19e-06  Convergence criterion met
 Total energy in the final basis set =     -917.8931485557

                    Orbital Energies (a.u.)
 --------------------------------------------------------------

 Alpha MOs
 -- Occupied --
-19.1676 -19.1305 -19.1301 -10.2856 -10.2816 -10.2531 -10.2165 -10.2084
-10.2079 -10.2074 -10.2063 -10.2048 -10.1957 -10.1954 -10.1949 -10.1946
-10.1943 -10.1902 -10.1876 -10.1862 -10.1842  -1.0790  -1.0673  -1.0651
 -0.8989  -0.8860  -0.8482  -0.8102  -0.7849  -0.7761  -0.7656  -0.7437
 -0.6927  -0.6633  -0.6567  -0.6336  -0.6201  -0.5878  -0.5766  -0.5583
 -0.5401  -0.5229  -0.5070  -0.4910  -0.4879  -0.4757  -0.4630  -0.4570
 -0.4564  -0.4492  -0.4457  -0.4316  -0.4312  -0.4290  -0.4199  -0.4127
 -0.3945  -0.3911  -0.3864  -0.3743  -0.3733  -0.3668  -0.3556  -0.3286
 -0.3050  -0.2862  -0.2824  -0.2767  -0.2717  -0.2570  -0.2347

          Ground-State Mulliken Net Atomic Charges

     Atom                 Charge (a.u.)
  ----------------------------------------
      1 C                     0.073269
      2 C                    -0.442308
      3 C                    -0.452554
      4 C                     0.156505
      5 C                     0.093314
      6 C                    -0.028214
      7 C                    -0.706718
      8 C                     0.785897
      9 C                     0.765721
     10 C                    -0.841136
     11 C                     0.926492
     12 C                     0.641889
     13 C                    -0.189216
     14 C                    -0.430062
     15 O                    -0.240992
     16 O                    -0.280452
     17 H                     0.191922
     18 H                     0.223348
     19 H                     0.222797
     20 H                     0.214277
     21 H                     0.192612
     22 H                     0.190530
     23 C                    -0.287829
     24 C                    -0.497364
     25 C                    -0.422105
     26 C                    -0.494247
     27 O                    -0.281771
     28 H                     0.180639
     29 H                     0.242354
     30 H                     0.163297
     31 H                     0.330104
  ----------------------------------------
  Sum of atomic charges =     0.000001

                    Cartesian Multipole Moments
 -----------------------------------------------------------------
    Charge (ESU x 10^10)
                -0.0000
    Dipole Moment (Debye)
         X      -1.8854      Y      -0.3312      Z       0.3190
       Tot       1.9407
    Quadrupole Moments (Debye-Ang)
        XX     -86.7555     XY      21.5708     YY    -123.1783
        XZ     -17.4786     YZ      -0.5393     ZZ    -124.5911

 Total job time:  63.94s(wall), 424.78s(cpu)
        *  Thank you very much for using Q-Chem.  Have a nice day.  *
