 Gaussian 16, Revision A.03,
 Gaussian 16:  ES64L-G16RevA.03 25-Dec-2016

 ----------------------------------------------------------------
 #P UB3LYP/6-311++G(d,p) SCRF=(PCM,Solvent=n,n-DiMethylFormamide)
 ----------------------------------------------------------------

 ------------------
 Quinone PCM in DMF
 ------------------
 Symbolic Z-matrix:
 Charge =  0 Multiplicity = 1

                         Standard orientation:
 ---------------------------------------------------------------------
 Center     Atomic      Atomic             Coordinates (Angstroms)
 Number     Number       Type             X           Y           Z
 ---------------------------------------------------------------------
      1          6           0       -3.189649   -1.912836   -0.000177
      2          6           0       -4.556541   -1.660018    0.000044
      3          6           0       -5.029187   -0.344538    0.000340
      4          6           0       -2.278806   -0.851140   -0.000104
      5          6           0       -2.755791    0.465706    0.000157
      6          6           0       -4.131291    0.715839    0.000392
      7          6           0       -0.813274   -1.162377   -0.000279
      8          6           0        0.160704   -0.021943   -0.000123
      9          6           0       -0.339236    1.285604   -0.000145
     10          6           0       -1.800041    1.599955    0.000128
     11          6           0        1.586066   -0.230879   -0.000032
     12          6           0        2.450688    0.916335   -0.000192
     13          6           0        0.533607    2.397526   -0.000299
     14          6           0        1.888149    2.217997   -0.000378
     15          8           0       -0.466066   -2.334387   -0.000766
     16          8           0       -2.192413    2.757032    0.000203
     17          1           0       -2.805220   -2.924756   -0.000395
     18          1           0       -5.257423   -2.487146   -0.000010
     19          1           0       -6.095882   -0.151199    0.000524
     20          1           0        2.553599    3.075024   -0.000523
     21          1           0       -4.470185    1.744369    0.000616
     22          1           0        0.092920    3.385863   -0.000339
     23          6           0        3.857236    0.754563   -0.000108
     24          6           0        4.416973   -0.501405    0.000192
     25          6           0        3.582251   -1.640835    0.000430
     26          6           0        2.216854   -1.510838    0.000316
     27          8           0        5.760709   -0.731712    0.000312
     28          1           0        4.485658    1.640519   -0.000238
     29          1           0        4.045419   -2.620277    0.000713
     30          1           0        1.601494   -2.394545    0.000522
     31          1           0        6.239511    0.104393    0.000153
 ---------------------------------------------------------------------

 SCF Done:  E(UB3LYP) =  -917.886999158     A.U. after   15 cycles

 The electronic state is 1-A.
 Alpha  occ. eigenvalues --  -19.17218 -19.13151 -19.13126 -10.28682 -10.28254
 Alpha  occ. eigenvalues --  -10.25652 -10.21861 -10.21057 -10.21050 -10.21015
 Alpha  occ. eigenvalues --  -10.20848 -10.20690 -10.19881 -10.19836 -10.19785
 Alpha  occ. eigenvalues --  -10.19783 -10.19706 -10.19309 -10.19079 -10.18891
 Alpha  occ. eigenvalues --  -10.18830  -1.08366  -1.06830  -1.06590  -0.90138
 Alpha  occ. eigenvalues --   -0.88842  -0.85089  -0.81281  -0.78767  -0.77851
 Alpha  occ. eigenvalues --   -0.76830  -0.74672  -0.69497  -0.66607  -0.65982
 Alpha  occ. eigenvalues --   -0.63648  -0.62322  -0.59045  -0.57984  -0.56096
 Alpha  occ. eigenvalues --   -0.54332  -0.52591  -0.50919  -0.49378  -0.49089
 Alpha  occ. eigenvalues --   -0.47884  -0.46399  -0.45988  -0.45791  -0.45201
 Alpha  occ. eigenvalues --   -0.44783  -0.43480  -0.43418  -0.43185  -0.42081
 Alpha  occ. eigenvalues --   -0.41598  -0.39700  -0.39446  -0.38959  -0.37723
 Alpha  occ. eigenvalues --   -0.37521  -0.36982  -0.35891  -0.33095  -0.30723
 Alpha  occ. eigenvalues --   -0.28704  -0.28454  -0.27888  -0.27289  -0.25932
 Alpha  occ. eigenvalues --   -0.23742
 Alpha virt. eigenvalues --   -0.12369  -0.07248  -0.05282  -0.03143  -0.01173
 Alpha virt. eigenvalues --   -0.00792  -0.00283   0.00648   0.00980   0.01772
 Alpha virt. eigenvalues --    0.02569   0.02602   0.03212   0.03411   0.03697

  Beta  occ. eigenvalues --  -19.17218 -19.13151 -19.13126 -10.28682 -10.28254
  Beta  occ. eigenvalues --  -10.25652 -10.21861 -10.21057 -10.21050 -10.21015
  Beta  occ. eigenvalues --  -10.20848 -10.20690 -10.19881 -10.19836 -10.19785
  Beta  occ. eigenvalues --  -10.19783 -10.19706 -10.19309 -10.19079 -10.18891
  Beta  occ. eigenvalues --  -10.18830  -1.08366  -1.06830  -1.06590  -0.90138
  Beta  occ. eigenvalues --   -0.88842  -0.85089  -0.81281  -0.78767  -0.77851
  Beta  occ. eigenvalues --   -0.76830  -0.74672  -0.69497  -0.66607  -0.65982
  Beta  occ. eigenvalues --   -0.63648  -0.62322  -0.59045  -0.57984  -0.56096
  Beta  occ. eigenvalues --   -0.54332  -0.52591  -0.50919  -0.49378  -0.49089
  Beta  occ. eigenvalues --   -0.47884  -0.46399  -0.45988  -0.45791  -0.45201
  Beta  occ. eigenvalues --   -0.44783  -0.43480  -0.43418  -0.43185  -0.42081
  Beta  occ. eigenvalues --   -0.41598  -0.39700  -0.39446  -0.38959  -0.37723
  Beta  occ. eigenvalues --   -0.37521  -0.36982  -0.35891  -0.33095  -0.30723
  Beta  occ. eigenvalues --   -0.28704  -0.28454  -0.27888  -0.27289  -0.25932
  Beta  occ. eigenvalues --   -0.23742
  Beta virt. eigenvalues --   -0.12369  -0.07248  -0.05282  -0.03143  -0.01173
  Beta virt. eigenvalues --   -0.00792  -0.00283   0.00648   0.00980   0.01772
  Beta virt. eigenvalues --    0.02569   0.02602   0.03212   0.03411   0.03697

 Mulliken charges and spin densities:
               1          2
     1  C    0.085018   0.000000
     2  C   -0.426083  -0.000000
     3  C   -0.458690  -0.000000
     4  C    0.150681  -0.000000
     5  C    0.098683   0.000000
     6  C    0.018893  -0.000000
     7  C   -0.733432  -0.000000
     8  C    0.792550   0.000000
     9  C    0.775298  -0.000000
    10  C   -0.884397   0.000000
    11  C    0.948570   0.000000
    12  C    0.662957  -0.000000
    13  C   -0.188851  -0.000000
    14  C   -0.420934  -0.000000
    15  O   -0.225684  -0.000000
    16  O   -0.264337  -0.000000
    17  H    0.181025   0.000000
    18  H    0.208304   0.000000
    19  H    0.207090  -0.000000
    20  H    0.194493   0.000000
    21  H    0.182271  -0.000000
    22  H    0.181649  -0.000000
    23  C   -0.293628   0.000000
    24  C   -0.488402   0.000000
    25  C   -0.408525   0.000000
    26  C   -0.481838  -0.000000
    27  O   -0.262421   0.000000
    28  H    0.154041  -0.000000
    29  H    0.227475   0.000000
    30  H    0.156780  -0.000000
    31  H    0.311444  -0.000000
 Sum of Mulliken charges =  -0.00000   0.00000

 Dipole moment (field-independent basis, Debye):
    X=              1.4721    Y=              0.9464    Z=              0.0010  Tot=              1.7501
 Quadrupole moment (field-independent basis, Debye-Ang):
   XX=            -83.9256   YY=           -124.8254   ZZ=           -124.3281
   XY=             22.8728   XZ=             -0.0029   YZ=             -0.0056

 Normal termination of Gaussian 16 at Tue Jan 16 05:19:20 2024.
