 Gaussian 16, Revision A.03,
 Gaussian 16:  ES64L-G16RevA.03 25-Dec-2016

 ----------------------------------------------------------------------
 #P UB3LYP/6-311++G(d,p) nosym opt freq SCRF=(PCM,Solvent=n,n-DiMethylF
 ormamide)
 ----------------------------------------------------------------------

 -------
 Reduced
 -------
 Symbolic Z-matrix:
 Charge = -2 Multiplicity = 1

 SCF Done:  E(UB3LYP) =  -460.477722885     A.U. after   15 cycles
 SCF Done:  E(UB3LYP) =  -460.478538020     A.U. after   12 cycles
 SCF Done:  E(UB3LYP) =  -460.478657504     A.U. after   12 cycles
 SCF Done:  E(UB3LYP) =  -460.478661281     A.U. after   10 cycles
 SCF Done:  E(UB3LYP) =  -460.478661567     A.U. after    9 cycles
 Optimization completed.
    -- Stationary point found.
 Normal termination of Gaussian 16 at Sat Feb 10 10:12:18 2024.

 ----------------------------------------------------------------------
 #P Geom=AllCheck Guess=TCheck SCRF=Check GenChk UB3LYP/6-311++G(d,p) F
 req
 ----------------------------------------------------------------------

 Structure from the checkpoint file:  "038-an.chk"
 -------
 Reduced
 -------
 Charge = -2 Multiplicity = 1

                          Input orientation:
 ---------------------------------------------------------------------
 Center     Atomic      Atomic             Coordinates (Angstroms)
 Number     Number       Type             X           Y           Z
 ---------------------------------------------------------------------
      1          6           0        2.909046    0.259792   -0.079617
      2          6           0        1.403629    0.143368   -0.048691
      3          6           0        0.792939   -0.957229    0.573313
      4          6           0       -0.611054   -1.163607    0.658804
      5          8           0       -1.141695   -2.218228    1.254615
      6          6           0       -1.403629   -0.143370    0.048688
      7          6           0       -0.792939    0.957228   -0.573317
      8          6           0        0.611054    1.163603   -0.658811
      9          8           0        1.141695    2.218229   -1.254611
     10          6           0       -2.909047   -0.259791    0.079618
     11          1           0        3.380972   -0.596672    0.411826
     12          1           0        3.261776    1.170613    0.421141
     13          1           0        3.295982    0.313753   -1.104996
     14          1           0        1.431781   -1.716643    1.026559
     15          1           0       -1.431782    1.716643   -1.026559
     16          1           0       -3.295983   -0.313732    1.104998
     17          1           0       -3.380972    0.596664   -0.411840
     18          1           0       -3.261777   -1.170621   -0.421122
 ---------------------------------------------------------------------

 SCF Done:  E(UB3LYP) =  -460.478661567     A.U. after    1 cycles

 Alpha  occ. eigenvalues --  -19.00511 -19.00511 -10.15507 -10.15506 -10.13724
 Alpha  occ. eigenvalues --  -10.13724 -10.12188 -10.12187 -10.11185 -10.11184
 Alpha  occ. eigenvalues --   -0.90816  -0.90397  -0.77732  -0.73656  -0.67933
 Alpha  occ. eigenvalues --   -0.64905  -0.60274  -0.54530  -0.49608  -0.43674
 Alpha  occ. eigenvalues --   -0.41071  -0.39260  -0.39186  -0.38465  -0.37068
 Alpha  occ. eigenvalues --   -0.35522  -0.34112  -0.33776  -0.32401  -0.30654
 Alpha  occ. eigenvalues --   -0.30042  -0.29225  -0.21134  -0.19662  -0.18524
 Alpha  occ. eigenvalues --   -0.18441  -0.11106
 Alpha virt. eigenvalues --    0.00163   0.01069   0.01935   0.02329   0.03389
 Alpha virt. eigenvalues --    0.04083   0.04832   0.04957   0.06181   0.06439
 Alpha virt. eigenvalues --    0.06868   0.07187   0.08443   0.08778   0.10168

  Beta  occ. eigenvalues --  -19.00511 -19.00511 -10.15507 -10.15506 -10.13724
  Beta  occ. eigenvalues --  -10.13724 -10.12188 -10.12187 -10.11185 -10.11184
  Beta  occ. eigenvalues --   -0.90816  -0.90397  -0.77732  -0.73656  -0.67933
  Beta  occ. eigenvalues --   -0.64905  -0.60274  -0.54530  -0.49608  -0.43674
  Beta  occ. eigenvalues --   -0.41071  -0.39260  -0.39186  -0.38465  -0.37068
  Beta  occ. eigenvalues --   -0.35522  -0.34112  -0.33776  -0.32401  -0.30654
  Beta  occ. eigenvalues --   -0.30042  -0.29225  -0.21134  -0.19662  -0.18524
  Beta  occ. eigenvalues --   -0.18441  -0.11106
  Beta virt. eigenvalues --    0.00163   0.01069   0.01935   0.02329   0.03389
  Beta virt. eigenvalues --    0.04083   0.04832   0.04957   0.06181   0.06439
  Beta virt. eigenvalues --    0.06868   0.07187   0.08443   0.08778   0.10168

 Mulliken charges and spin densities:
               1          2
     1  C   -0.449942   0.000000
     2  C    1.104440  -0.000000
     3  C   -0.540859  -0.000000
     4  C   -0.837762  -0.000000
     5  O   -0.767078   0.000000
     6  C    1.104442  -0.000000
     7  C   -0.540859   0.000000
     8  C   -0.837761   0.000000
     9  O   -0.767078   0.000000
    10  C   -0.449943  -0.000000
    11  H    0.129149   0.000000
    12  H    0.135290  -0.000000
    13  H    0.135064  -0.000000
    14  H    0.091698  -0.000000
    15  H    0.091698  -0.000000
    16  H    0.135064  -0.000000
    17  H    0.129149   0.000000
    18  H    0.135290  -0.000000
 Sum of Mulliken charges =  -2.00000   0.00000

 Dipole moment (field-independent basis, Debye):
    X=              0.0000    Y=              0.0000    Z=             -0.0000  Tot=              0.0000
 Quadrupole moment (field-independent basis, Debye-Ang):
   XX=            -82.1649   YY=           -111.3526   ZZ=            -82.8734
   XY=            -21.1172   XZ=             11.8917   YZ=             23.7148

  Exact polarizability: 215.960  16.869 189.290  -7.123 -43.468 138.434
 Approx polarizability: 224.105  17.005 205.030  -7.131 -48.658 148.215

                      1                      2                      3
                      A                      A                      A
 Frequencies --    113.6436               148.8830               148.9320
 Red. masses --      2.6156                 1.2590                 1.0346
 Frc consts  --      0.0199                 0.0164                 0.0135
 IR Inten    --     27.6226                 2.7852                 0.0432

                      4                      5                      6
                      A                      A                      A
 Frequencies --    175.6204               252.0323               277.6658
 Red. masses --      4.0260                 3.4130                 3.5873
 Frc consts  --      0.0732                 0.1277                 0.1630
 IR Inten    --      4.7300                 0.0000                 0.0000

                      7                      8                      9
                      A                      A                      A
 Frequencies --    278.9667               353.3843               362.6259
 Red. masses --      2.6237                 9.3962                 6.6676
 Frc consts  --      0.1203                 0.6914                 0.5166
 IR Inten    --     23.4907                12.7278                 0.0000

                     10                     11                     12
                      A                      A                      A
 Frequencies --    436.7649               455.5917               515.1443
 Red. masses --      5.5456                 2.8326                 8.4208
 Frc consts  --      0.6233                 0.3464                 1.3166
 IR Inten    --      0.0000                 4.9339                 0.0000

                     13                     14                     15
                      A                      A                      A
 Frequencies --    614.9660               664.9338               697.9420
 Red. masses --      3.6328                 3.4168                 5.3291
 Frc consts  --      0.8094                 0.8901                 1.5295
 IR Inten    --      0.0000                 0.0099               117.8294

                     16                     17                     18
                      A                      A                      A
 Frequencies --    719.4166               733.9385               823.2799
 Red. masses --      2.5981                 6.4198                 1.6223
 Frc consts  --      0.7923                 2.0375                 0.6478
 IR Inten    --      0.0000                 0.0000                 0.0000

                     19                     20                     21
                      A                      A                      A
 Frequencies --    842.4651               846.9256               980.0803
 Red. masses --      2.7557                 1.6627                 1.6586
 Frc consts  --      1.1524                 0.7027                 0.9387
 IR Inten    --     77.2510                86.3698               253.9694

                     22                     23                     24
                      A                      A                      A
 Frequencies --   1010.9571              1035.3118              1041.0761
 Red. masses --      1.4420                 1.4630                 1.4922
 Frc consts  --      0.8683                 0.9239                 0.9529
 IR Inten    --      0.0000                 0.0000                 2.6902

                     25                     26                     27
                      A                      A                      A
 Frequencies --   1115.6606              1158.5913              1197.5497
 Red. masses --      5.5240                 2.1203                 5.1959
 Frc consts  --      4.0510                 1.6769                 4.3903
 IR Inten    --      0.0000                98.1985               549.9602

                     28                     29                     30
                      A                      A                      A
 Frequencies --   1240.1126              1265.4695              1316.0361
 Red. masses --      1.3030                 4.4221                10.0017
 Frc consts  --      1.1807                 4.1724                10.2061
 IR Inten    --      0.0000               501.0531                 0.0000

                     31                     32                     33
                      A                      A                      A
 Frequencies --   1366.8034              1390.7029              1396.5384
 Red. masses --      2.6161                 1.2552                 1.7527
 Frc consts  --      2.8795                 1.4304                 2.0140
 IR Inten    --    660.3364                 0.0000               310.7226

                     34                     35                     36
                      A                      A                      A
 Frequencies --   1455.6575              1455.9186              1470.1148
 Red. masses --      1.0496                 1.0500                 2.7912
 Frc consts  --      1.3103                 1.3113                 3.5542
 IR Inten    --      0.0000                12.1113               572.7793

                     37                     38                     39
                      A                      A                      A
 Frequencies --   1474.8837              1489.5023              1509.7122
 Red. masses --      1.2091                 1.1653                 4.5063
 Frc consts  --      1.5496                 1.5233                 6.0514
 IR Inten    --      0.0000                11.2958                 0.0000

                     40                     41                     42
                      A                      A                      A
 Frequencies --   1609.0890              2985.6366              2987.4257
 Red. masses --      6.1913                 1.0369                 1.0370
 Frc consts  --      9.4447                 5.4457                 5.4528
 IR Inten    --      0.0000               348.4389                 0.0000

                     43                     44                     45
                      A                      A                      A
 Frequencies --   3015.6779              3016.0472              3061.5799
 Red. masses --      1.0990                 1.0987                 1.0985
 Frc consts  --      5.8887                 5.8883                 6.0667
 IR Inten    --      0.0004               175.1626                86.6013

                     46                     47                     48
                      A                      A                      A
 Frequencies --   3061.6862              3084.0781              3088.5891
 Red. masses --      1.0989                 1.0868                 1.0872
 Frc consts  --      6.0690                 6.0902                 6.1106
 IR Inten    --      0.0004               283.8968                 0.0000

 - Thermochemistry -
 -------------------
 Temperature   298.150 Kelvin.  Pressure   1.00000 Atm.
 Atom     1 has atomic number  6 and mass  12.00000

 Molecular mass:   136.05243 amu.
 Principal axes and moments of inertia in atomic units:
                           1         2         3
     Eigenvalues --   785.006091670.154182433.10183
           X            0.82818  -0.56006  -0.02106
           Y            0.49367   0.71119   0.50050
           Z           -0.26534  -0.42490   0.86548
 This molecule is an asymmetric top.
 Rotational symmetry number  1.
 Warning -- assumption of classical behavior for rotation
           may cause significant error
 Rotational temperatures (Kelvin)      0.11034     0.05186     0.03560
 Rotational constants (GHZ):           2.29902     1.08058     0.74175
 Zero-point vibrational energy     357346.2 (Joules/Mol)
                                   85.40778 (Kcal/Mol)
 Warning -- explicit consideration of  13 degrees of freedom as
           vibrations may cause significant error
 Vibrational temperatures:    163.51   214.21   214.28   252.68   362.62
          (Kelvin)            399.50   401.37   508.44   521.74   628.41
                              655.49   741.18   884.80   956.69  1004.18
                             1035.08  1055.97  1184.52  1212.12  1218.54
                             1410.12  1454.54  1489.58  1497.88  1605.19
                             1666.95  1723.01  1784.25  1820.73  1893.48
                             1966.53  2000.91  2009.31  2094.37  2094.74
                             2115.17  2122.03  2143.06  2172.14  2315.12
                             4295.67  4298.24  4338.89  4339.42  4404.93
                             4405.08  4437.30  4443.79

 Zero-point correction=                           0.136106 (Hartree/Particle)
 Thermal correction to Energy=                    0.145469
 Thermal correction to Enthalpy=                  0.146413
 Thermal correction to Gibbs Free Energy=         0.102061
 Sum of electronic and zero-point Energies=           -460.342556
 Sum of electronic and thermal Energies=              -460.333193
 Sum of electronic and thermal Enthalpies=            -460.332249
 Sum of electronic and thermal Free Energies=         -460.376601

                     E (Thermal)             CV                S
                      KCal/Mol        Cal/Mol-Kelvin    Cal/Mol-Kelvin
 Total                   91.283             35.411             93.347
 Electronic               0.000              0.000              0.000
 Translational            0.889              2.981             40.636
 Rotational               0.889              2.981             29.546
 Vibrational             89.505             29.449             23.165
 Vibration     1          0.607              1.938              3.206
 Vibration     2          0.618              1.904              2.686
 Vibration     3          0.618              1.904              2.686
 Vibration     4          0.628              1.872              2.374
 Vibration     5          0.664              1.759              1.716
 Vibration     6          0.679              1.715              1.548
 Vibration     7          0.679              1.712              1.540
 Vibration     8          0.730              1.568              1.151
 Vibration     9          0.736              1.549              1.111
 Vibration    10          0.797              1.390              0.837
 Vibration    11          0.814              1.349              0.779
 Vibration    12          0.870              1.216              0.621
 Vibration    13          0.974              1.000              0.425

                           ! Non-Optimized Parameters !
 Normal termination of Gaussian 16 at Sat Feb 10 10:27:02 2024.
