 Q-Chem 5.4, Q-Chem, Inc., Pleasanton, CA (2021)
 Q-Chem 5.4.0 for Intel X86 EM64T Linux

User input:
--------------------------------------------------------------
$molecule
-1 2
C                 -0.9955690000      3.9305460000      0.0208170000
C                 -2.1702460000      3.2147930000      0.1630670000
C                 -2.1456700000      1.8048850000      0.1481470000
C                  0.2421410000      3.2719470000     -0.1385120000
C                  0.2650240000      1.8492300000     -0.1496650000
C                 -0.9418750000      1.1393540000     -0.0079600000
C                  1.4654950000      4.0454350000     -0.2973060000
C                  2.7146590000      3.3079850000     -0.4675020000
C                  2.7278540000      1.9168750000     -0.4067230000
C                  1.5250490000      1.1269560000     -0.3029990000
O                  1.4827670000      5.3103140000     -0.3037600000
O                  1.5836670000     -0.1387620000     -0.3646230000
N                  3.8192900000      4.0845540000     -0.7367660000
H                 -0.9900030000      5.0144650000      0.0253140000
H                 -3.1138620000      3.7386470000      0.2853860000
H                 -3.0687560000      1.2438790000      0.2593140000
H                 -0.8919080000      0.0565720000     -0.0234750000
H                  3.6193240000      5.0635860000     -0.5626250000
H                  4.7038150000      3.7247310000     -0.3872240000
N                  3.8623110000      1.0805080000     -0.5905250000
C                  5.1611860000      1.2099420000     -0.2385360000
C                  6.0127840000     -0.0266290000     -0.4999260000
H                  3.5197820000      0.1340820000     -0.7617370000
H                  5.4363990000     -0.8930740000     -0.8303070000
H                  6.5507760000     -0.2770630000      0.4171520000
H                  6.7580580000      0.2146400000     -1.2628360000
O                  5.6849890000      2.2208430000      0.2413380000
$end

$rem
BASIS  =  6-311++G(d,p)
GUI  =  2
JOB_TYPE  =  SP
METHOD  =  B3LYP
SCF_CONVERGENCE  = 8
SOLVENT_METHOD = sm12
$end

$smx
solvent dimethylformamide
charges CM5
$end

--------------------------------------------------------------

             Standard Nuclear Orientation (Angstroms)
    I     Atom           X                Y                Z
 ----------------------------------------------------------------
    1      C      -0.9955690000     3.9305460000     0.0208170000
    2      C      -2.1702460000     3.2147930000     0.1630670000
    3      C      -2.1456700000     1.8048850000     0.1481470000
    4      C       0.2421410000     3.2719470000    -0.1385120000
    5      C       0.2650240000     1.8492300000    -0.1496650000
    6      C      -0.9418750000     1.1393540000    -0.0079600000
    7      C       1.4654950000     4.0454350000    -0.2973060000
    8      C       2.7146590000     3.3079850000    -0.4675020000
    9      C       2.7278540000     1.9168750000    -0.4067230000
   10      C       1.5250490000     1.1269560000    -0.3029990000
   11      O       1.4827670000     5.3103140000    -0.3037600000
   12      O       1.5836670000    -0.1387620000    -0.3646230000
   13      N       3.8192900000     4.0845540000    -0.7367660000
   14      H      -0.9900030000     5.0144650000     0.0253140000
   15      H      -3.1138620000     3.7386470000     0.2853860000
   16      H      -3.0687560000     1.2438790000     0.2593140000
   17      H      -0.8919080000     0.0565720000    -0.0234750000
   18      H       3.6193240000     5.0635860000    -0.5626250000
   19      H       4.7038150000     3.7247310000    -0.3872240000
   20      N       3.8623110000     1.0805080000    -0.5905250000
   21      C       5.1611860000     1.2099420000    -0.2385360000
   22      C       6.0127840000    -0.0266290000    -0.4999260000
   23      H       3.5197820000     0.1340820000    -0.7617370000
   24      H       5.4363990000    -0.8930740000    -0.8303070000
   25      H       6.5507760000    -0.2770630000     0.4171520000
   26      H       6.7580580000     0.2146400000    -1.2628360000
   27      O       5.6849890000     2.2208430000     0.2413380000
 ----------------------------------------------------------------

   18    -798.8060756979      5.31e-09  Convergence criterion met
 Total energy in the final basis set =     -798.8928998633

                    Orbital Energies (a.u.)
 --------------------------------------------------------------

 Alpha MOs
 -- Occupied --
-19.0972 -19.0818 -19.0808 -14.3512 -14.3116 -10.2827 -10.2292 -10.2248
-10.2151 -10.2049 -10.1816 -10.1807 -10.1805 -10.1801 -10.1789 -10.1783
-10.1733  -1.0457  -1.0094  -1.0061  -0.9383  -0.9089  -0.8645  -0.7992
 -0.7585  -0.7559  -0.7229  -0.6803  -0.6389  -0.6246  -0.5883  -0.5719
 -0.5424  -0.5203  -0.5107  -0.4891  -0.4794  -0.4586  -0.4577  -0.4462
 -0.4352  -0.4317  -0.4231  -0.4161  -0.4116  -0.4004  -0.3904  -0.3860
 -0.3795  -0.3652  -0.3581  -0.3459  -0.3284  -0.3019  -0.2719  -0.2694
 -0.2644  -0.2563  -0.2469  -0.2116  -0.1512

 Beta MOs
 -- Occupied --
-19.0971 -19.0758 -19.0749 -14.3512 -14.3108 -10.2827 -10.2277 -10.2227
-10.2138 -10.2049 -10.1813 -10.1800 -10.1799 -10.1793 -10.1788 -10.1780
-10.1733  -1.0454  -1.0010  -0.9950  -0.9369  -0.9063  -0.8623  -0.7953
 -0.7562  -0.7549  -0.7215  -0.6727  -0.6369  -0.6227  -0.5863  -0.5698
 -0.5405  -0.5194  -0.5090  -0.4883  -0.4763  -0.4578  -0.4566  -0.4443
 -0.4324  -0.4291  -0.4156  -0.4147  -0.4055  -0.3990  -0.3870  -0.3799
 -0.3671  -0.3597  -0.3528  -0.3443  -0.3135  -0.2974  -0.2710  -0.2567
 -0.2517  -0.2510  -0.2412  -0.2036

          Ground-State Mulliken Net Atomic Charges

     Atom                 Charge (a.u.)    Spin (a.u.)
  --------------------------------------------------------
      1 C                     0.022812       0.057071
      2 C                     1.037127       0.020525
      3 C                     0.838959       0.063046
      4 C                    -0.716316       0.020566
      5 C                    -0.550337       0.066212
      6 C                     0.218124       0.024582
      7 C                    -1.669250       0.132758
      8 C                    -0.264268       0.054995
      9 C                     0.330957       0.003933
     10 C                    -1.552034       0.083568
     11 O                    -0.345139       0.255891
     12 O                    -0.289884       0.186644
     13 N                    -0.378586       0.045767
     14 H                     0.155434      -0.003414
     15 H                     0.349917      -0.001697
     16 H                     0.351505      -0.004514
     17 H                     0.175086      -0.000471
     18 H                     0.291355      -0.003030
     19 H                     0.277132       0.000067
     20 N                     0.023755      -0.003413
     21 C                    -0.275712      -0.001539
     22 C                     0.359974       0.002033
     23 H                     0.337444      -0.002365
     24 H                     0.257148       0.000366
     25 H                     0.234122       0.000150
     26 H                     0.241325       0.000248
     27 O                    -0.460649       0.002020
  --------------------------------------------------------
  Sum of atomic charges =    -1.000000

                    Cartesian Multipole Moments
 -----------------------------------------------------------------
    Charge (ESU x 10^10)
                -4.8032
    Dipole Moment (Debye)
         X      -8.5057      Y     -14.7413      Z       0.8896
       Tot      17.0425
    Quadrupole Moments (Debye-Ang)
        XX    -130.5698     XY     -33.2023     YY    -168.1477
        XZ      -1.9985     YZ       4.6509     ZZ    -107.5322

 Total job time:  690.08s(wall), 5326.10s(cpu)
        *  Thank you very much for using Q-Chem.  Have a nice day.  *
