 Q-Chem 5.4, Q-Chem, Inc., Pleasanton, CA (2021)
 Q-Chem 5.4.0 for Intel X86 EM64T Linux

User input:
--------------------------------------------------------------
$molecule
0 1
Cl                 3.0042660000     -0.8768930000     -0.1896520000
C                  1.3718010000     -0.3098590000     -0.0839020000
C                  1.0746500000      0.9950780000     -0.0286450000
C                 -0.3295850000      1.4556890000      0.0615850000
O                 -0.5979970000      2.6438570000      0.1118130000
C                 -1.3974890000      0.4310240000      0.0889560000
C                 -1.1036080000     -0.8746800000      0.0338100000
Cl                -2.3315660000     -2.0948570000      0.0639220000
C                  0.3116570000     -1.3767940000     -0.0581600000
O                  0.5773270000     -2.5520730000     -0.1079180000
H                  1.8358650000      1.7649570000     -0.0469740000
H                 -2.4153210000      0.7945510000      0.1551650000
$end
$rem
MAX_SCF_CYCLES=200
BASIS  =  6-311++G(d,p)
GUI  =  2
JOB_TYPE  =  SP
METHOD  =  B3LYP
SOLVENT_METHOD = COSMO
$end
$solvent
dielectric 37.219
opticaldielectric 1.43
$end

--------------------------------------------------------------

             Standard Nuclear Orientation (Angstroms)
    I     Atom           X                Y                Z
 ----------------------------------------------------------------
    1      Cl      2.7396656953    -0.9962292586    -0.0000014878
    2      C       1.2709144352    -0.0794837479    -0.0000202140
    3      C       1.2689313135     1.2599970070    -0.0000555245
    4      C      -0.0004767129     2.0220883009     0.0000069648
    5      O      -0.0001853739     3.2412318384     0.0000071449
    6      C      -1.2694654514     1.2600029597     0.0000416305
    7      C      -1.2708425538    -0.0794999939     0.0000332252
    8      Cl     -2.7392793635    -0.9967310583    -0.0000302527
    9      C       0.0001657504    -0.8845402780     0.0000749560
   10      O       0.0000462862    -2.0904992809     0.0000092671
   11      H       2.1822013032     1.8417493840    -0.0000830128
   12      H      -2.1830169277     1.8413300540     0.0000050776
 ----------------------------------------------------------------

   10   -1300.7995670236      2.87e-06  Convergence criterion met
 Total energy in the final basis set =    -1300.7995670236
    5   -1300.8124545017      7.44e-06  Convergence criterion met
 Total energy in the final basis set =    -1300.8124545017

                    Orbital Energies (a.u.)
 --------------------------------------------------------------

 Alpha MOs
 -- Occupied --
********-101.5833 -19.1671 -19.1555 -10.3191 -10.3041 -10.2832 -10.2832
-10.2261 -10.2261  -9.4978  -9.4977  -7.2625  -7.2625  -7.2529  -7.2529
 -7.2518  -7.2517  -1.1050  -1.0864  -0.9238  -0.9104  -0.8428  -0.7809
 -0.7245  -0.6426  -0.6236  -0.5567  -0.5289  -0.5023  -0.4800  -0.4796
 -0.4711  -0.4573  -0.4404  -0.4336  -0.3983  -0.3786  -0.3484  -0.3419
 -0.3160  -0.3105  -0.3004  -0.2910

          Ground-State Mulliken Net Atomic Charges

     Atom                 Charge (a.u.)
  ----------------------------------------
      1 Cl                    0.322659
      2 C                     1.049866
      3 C                    -0.287017
      4 C                    -0.584826
      5 O                    -0.297570
      6 C                    -0.285731
      7 C                     1.050257
      8 Cl                    0.322536
      9 C                    -1.662583
     10 O                    -0.178639
     11 H                     0.275623
     12 H                     0.275424
  ----------------------------------------
  Sum of atomic charges =     0.000000

                    Cartesian Multipole Moments
 -----------------------------------------------------------------
    Charge (ESU x 10^10)
                 0.0000
    Dipole Moment (Debye)
         X      -0.0021      Y       1.1918      Z       0.0005
       Tot       1.1918
    Quadrupole Moments (Debye-Ang)
        XX     -65.1511     XY      -0.0025     YY     -89.1117
        XZ       0.0001     YZ      -0.0001     ZZ     -68.9772

 Total job time:  12.27s(wall), 84.00s(cpu)
        *  Thank you very much for using Q-Chem.  Have a nice day.  *
