 Q-Chem 5.4, Q-Chem, Inc., Pleasanton, CA (2021)
 Q-Chem 5.4.0 for Intel X86 EM64T Linux

User input:
--------------------------------------------------------------
$molecule
-2 1
Cl                 3.0198890000     -0.8316570000     -0.1891180000
C                  1.2666440000     -0.3598540000     -0.0796520000
C                  0.9936200000      1.0062100000     -0.0238690000
C                 -0.3425240000      1.5151640000      0.0640420000
O                 -0.6288020000      2.7810680000      0.1175610000
C                 -1.3286730000      0.4765080000      0.0865380000
C                 -0.9877510000     -0.8740660000      0.0275050000
Cl                -2.3666390000     -2.0597870000      0.0669860000
C                  0.3264510000     -1.4449650000     -0.0611510000
O                  0.6091710000     -2.6947430000     -0.1139420000
H                  1.8115410000      1.7198450000     -0.0469450000
H                 -2.3729260000      0.7662780000      0.1520460000
$end
$rem
MAX_SCF_CYCLES=200
BASIS  =  6-311++G(d,p)
GUI  =  2
JOB_TYPE  =  SP
METHOD  =  B3LYP
SOLVENT_METHOD = COSMO
$end
$solvent
dielectric 37.219
opticaldielectric 1.43
$end

--------------------------------------------------------------

             Standard Nuclear Orientation (Angstroms)
    I     Atom           X                Y                Z
 ----------------------------------------------------------------
    1      Cl      2.7653770526    -0.9694318487     0.0000279576
    2      C       1.1574674465    -0.1190933254     0.0000098759
    3      C       1.1922166331     1.2746703539    -0.0000045087
    4      C      -0.0002123331     2.0684943062    -0.0000094731
    5      O      -0.0005009408     3.3674678357    -0.0000061470
    6      C      -1.1922788142     1.2742778928    -0.0000041885
    7      C      -1.1573097081    -0.1194724421    -0.0000118336
    8      Cl     -2.7653169615    -0.9698475518     0.0000299243
    9      C       0.0000325563    -0.9688671258    -0.0000879885
   10      O       0.0004018487    -2.2513110422    -0.0000403043
   11      H       2.1483148908     1.7891393023     0.0000051379
   12      H      -2.1480383873     1.7892981994     0.0000311787
 ----------------------------------------------------------------

   11   -1300.8115051603      2.43e-06  Convergence criterion met
 Total energy in the final basis set =    -1300.8115051603
    5   -1301.1038919531      9.54e-06  Convergence criterion met
 Total energy in the final basis set =    -1301.1038919531

                    Orbital Energies (a.u.)
 --------------------------------------------------------------

 Alpha MOs
 -- Occupied --
********-101.5316 -19.0365 -19.0319 -10.2016 -10.2002 -10.2001 -10.1906
-10.1420 -10.1420  -9.4458  -9.4458  -7.2097  -7.2097  -7.2012  -7.2012
 -7.2007  -7.2006  -0.9575  -0.9429  -0.8442  -0.8342  -0.7744  -0.6946
 -0.6699  -0.5646  -0.5448  -0.4607  -0.4509  -0.4221  -0.3927  -0.3918
 -0.3817  -0.3581  -0.3457  -0.3364  -0.3358  -0.3053  -0.3018  -0.2952
 -0.2422  -0.2213  -0.2201  -0.2136  -0.1399

          Ground-State Mulliken Net Atomic Charges

     Atom                 Charge (a.u.)
  ----------------------------------------
      1 Cl                    0.125952
      2 C                     1.051779
      3 C                    -0.697406
      4 C                    -0.620535
      5 O                    -0.761732
      6 C                    -0.699229
      7 C                     1.052312
      8 Cl                    0.125894
      9 C                    -1.286687
     10 O                    -0.637249
     11 H                     0.173391
     12 H                     0.173512
  ----------------------------------------
  Sum of atomic charges =    -2.000000

                    Cartesian Multipole Moments
 -----------------------------------------------------------------
    Charge (ESU x 10^10)
                -9.6064
    Dipole Moment (Debye)
         X       0.0037      Y      -2.8056      Z      -0.0006
       Tot       2.8056
    Quadrupole Moments (Debye-Ang)
        XX     -93.9742     XY       0.0105     YY    -144.3006
        XZ      -0.0008     YZ      -0.0013     ZZ     -79.2556

 Total job time:  12.09s(wall), 86.52s(cpu)
        *  Thank you very much for using Q-Chem.  Have a nice day.  *
