 Gaussian 16, Revision A.03,
 Gaussian 16:  ES64L-G16RevA.03 25-Dec-2016

 ----------------------------------------------------------------
 #P UB3LYP/6-311++G(d,p) SCRF=(PCM,Solvent=n,n-DiMethylFormamide)
 ----------------------------------------------------------------

 ------------------
 Quinone PCM in DMF
 ------------------
 Symbolic Z-matrix:
 Charge =  0 Multiplicity = 1

                         Standard orientation:
 ---------------------------------------------------------------------
 Center     Atomic      Atomic             Coordinates (Angstroms)
 Number     Number       Type             X           Y           Z
 ---------------------------------------------------------------------
      1          6           0        1.092447   -1.068454   -0.000037
      2          6           0        2.266376   -0.305394    0.000017
      3          6           0        2.184710    1.093413    0.000104
      4          6           0        0.938453    1.716525    0.000069
      5          6           0       -0.236346    0.971588   -0.000019
      6          6           0       -0.143953   -0.434996   -0.000060
      7          6           0       -1.379307   -1.245374   -0.000058
      8          6           0       -2.691136   -0.521883    0.000042
      9          6           0       -2.768893    0.824258    0.000065
     10          6           0       -1.563132    1.660164   -0.000052
     11          8           0       -1.405137   -2.468562   -0.000077
     12          8           0       -1.643276    2.881648   -0.000129
     13          8           0       -3.762981   -1.322314    0.000115
     14          8           0        3.425210   -1.008958   -0.000042
     15          6           0        4.662942   -0.301999    0.000022
     16          1           0        1.153316   -2.149340   -0.000053
     17          1           0        3.079603    1.700863    0.000186
     18          1           0        0.864579    2.797278    0.000110
     19          1           0       -3.724573    1.334017    0.000091
     20          1           0       -3.423201   -2.237160    0.000090
     21          1           0        5.437435   -1.066232   -0.000321
     22          1           0        4.764824    0.319197    0.895503
     23          1           0        4.764531    0.319762   -0.895096
 ---------------------------------------------------------------------

 SCF Done:  E(UB3LYP) =  -725.088142900     A.U. after   15 cycles

 The electronic state is 1-A.
 Alpha  occ. eigenvalues --  -19.18589 -19.17681 -19.15629 -19.12799 -10.30007
 Alpha  occ. eigenvalues --  -10.28197 -10.27725 -10.26575 -10.23043 -10.21730
 Alpha  occ. eigenvalues --  -10.20550 -10.20377 -10.20333 -10.20152 -10.19960
 Alpha  occ. eigenvalues --   -1.11605  -1.09253  -1.07506  -1.06114  -0.89548
 Alpha  occ. eigenvalues --   -0.83847  -0.79065  -0.78077  -0.72649  -0.69974
 Alpha  occ. eigenvalues --   -0.66364  -0.63466  -0.61371  -0.58032  -0.55574
 Alpha  occ. eigenvalues --   -0.53125  -0.52140  -0.51095  -0.48633  -0.47656
 Alpha  occ. eigenvalues --   -0.47399  -0.46032  -0.45803  -0.45642  -0.43628
 Alpha  occ. eigenvalues --   -0.42645  -0.42013  -0.41429  -0.39660  -0.39275
 Alpha  occ. eigenvalues --   -0.39196  -0.35315  -0.34406  -0.30850  -0.29270
 Alpha  occ. eigenvalues --   -0.28136  -0.27528  -0.25187
 Alpha virt. eigenvalues --   -0.12870  -0.05848  -0.02402  -0.00840   0.00029
 Alpha virt. eigenvalues --    0.00958   0.01904   0.02091   0.02099   0.03319
 Alpha virt. eigenvalues --    0.03679   0.04267   0.04664   0.05264   0.05920

  Beta  occ. eigenvalues --  -19.18589 -19.17681 -19.15629 -19.12799 -10.30007
  Beta  occ. eigenvalues --  -10.28197 -10.27725 -10.26575 -10.23043 -10.21730
  Beta  occ. eigenvalues --  -10.20550 -10.20377 -10.20333 -10.20152 -10.19960
  Beta  occ. eigenvalues --   -1.11605  -1.09253  -1.07506  -1.06114  -0.89548
  Beta  occ. eigenvalues --   -0.83847  -0.79065  -0.78077  -0.72649  -0.69974
  Beta  occ. eigenvalues --   -0.66364  -0.63466  -0.61371  -0.58032  -0.55574
  Beta  occ. eigenvalues --   -0.53125  -0.52140  -0.51095  -0.48633  -0.47656
  Beta  occ. eigenvalues --   -0.47399  -0.46032  -0.45803  -0.45642  -0.43628
  Beta  occ. eigenvalues --   -0.42645  -0.42013  -0.41429  -0.39660  -0.39275
  Beta  occ. eigenvalues --   -0.39196  -0.35315  -0.34406  -0.30850  -0.29270
  Beta  occ. eigenvalues --   -0.28136  -0.27528  -0.25187
  Beta virt. eigenvalues --   -0.12870  -0.05848  -0.02402  -0.00840   0.00029
  Beta virt. eigenvalues --    0.00958   0.01904   0.02091   0.02099   0.03319
  Beta virt. eigenvalues --    0.03679   0.04267   0.04664   0.05264   0.05920

 Mulliken charges and spin densities:
               1          2
     1  C   -0.189375  -0.000000
     2  C   -0.533666  -0.000000
     3  C    0.196883  -0.000000
     4  C    0.160416  -0.000000
     5  C    0.377973   0.000000
     6  C    0.863357  -0.000000
     7  C   -0.790768   0.000000
     8  C   -0.392823   0.000000
     9  C    0.636266   0.000000
    10  C   -0.684735  -0.000000
    11  O   -0.292441   0.000000
    12  O   -0.323072   0.000000
    13  O   -0.225089   0.000000
    14  O   -0.183222  -0.000000
    15  C   -0.341750  -0.000000
    16  H    0.207112   0.000000
    17  H    0.246936   0.000000
    18  H    0.185786  -0.000000
    19  H    0.242774   0.000000
    20  H    0.303572  -0.000000
    21  H    0.194206  -0.000000
    22  H    0.170860   0.000000
    23  H    0.170800   0.000000
 Sum of Mulliken charges =  -0.00000   0.00000

 Dipole moment (field-independent basis, Debye):
    X=              5.5616    Y=             -0.9865    Z=              0.0005  Tot=              5.6484
 Quadrupole moment (field-independent basis, Debye-Ang):
   XX=            -68.7390   YY=           -100.6239   ZZ=            -86.8553
   XY=             10.9450   XZ=              0.0005   YZ=              0.0007

 Normal termination of Gaussian 16 at Thu Jan 25 05:45:21 2024.
