 Q-Chem 5.4, Q-Chem, Inc., Pleasanton, CA (2021)
 Q-Chem 5.4.0 for Intel X86 EM64T Linux

User input:
--------------------------------------------------------------
$molecule
-1 2
C                 -0.5680230000      2.0890170000     -0.0875010000
C                 -1.8041910000      1.3012570000     -0.0651660000
C                 -1.7498390000     -0.0784790000      0.0001810000
C                 -0.4650970000     -0.7708900000      0.0472800000
C                  0.7665360000      0.0131650000      0.0233930000
C                  0.7215360000      1.3933010000     -0.0408780000
O                 -0.6136530000      3.3567890000     -0.1471290000
O                 -0.4194350000     -2.0396400000      0.1078100000
C                  1.9319270000      2.3319590000     -0.0715790000
C                  2.7760300000      2.3283650000      1.2190170000
C                  2.7989090000      2.2130590000     -1.3413520000
C                  2.0814770000     -0.7663140000      0.0723850000
C                  2.2558610000     -1.5601870000      1.3839140000
C                  2.2804460000     -1.6781990000     -1.1563530000
C                 -3.0789510000      2.1492830000     -0.1204050000
C                 -3.9427270000      2.0865740000      1.1555710000
C                 -3.9127840000      1.9653000000     -1.4045080000
C                 -3.0053710000     -0.9513950000      0.0261790000
C                 -3.1151860000     -1.8745910000     -1.2052900000
C                 -3.1455970000     -1.7567890000      1.3348440000
H                  1.4755590000      3.3225980000     -0.1202980000
H                  3.5121650000      3.1417290000      1.1898750000
H                  3.3229700000      1.3955970000      1.3803580000
H                  2.1351780000      2.4907740000      2.0903500000
H                  3.3443830000      1.2680960000     -1.4102660000
H                  3.5379490000      3.0237990000     -1.3704740000
H                  2.1742370000      2.3001310000     -2.2349320000
H                  2.8917930000     -0.0401530000      0.0462450000
H                  2.1757660000     -0.8977220000      2.2517210000
H                  3.2453300000     -2.0345940000      1.4122290000
H                  1.4905010000     -2.3318190000      1.4669100000
H                  1.5163040000     -2.4550380000     -1.1824200000
H                  3.2699150000     -2.1521610000     -1.1213690000
H                  2.2178070000     -1.0990990000     -2.0832400000
H                 -2.6949900000      3.1703870000     -0.1642700000
H                 -4.7373520000      2.8421070000      1.1102750000
H                 -3.3309500000      2.2996320000      2.0368320000
H                 -4.4204810000      1.1156980000      1.3118280000
H                 -4.7062210000      2.7220710000     -1.4501880000
H                 -4.3895270000      0.9842560000     -1.4785260000
H                 -3.2801700000      2.0929420000     -2.2875630000
H                 -3.8656440000     -0.2859340000     -0.0148210000
H                 -4.0685100000     -2.4184660000     -1.1887020000
H                 -2.2967480000     -2.5943980000     -1.2159540000
H                 -3.0765450000     -1.2920250000     -2.1313060000
H                 -4.0986360000     -2.3013320000      1.3454170000
H                 -3.1293430000     -1.0910350000      2.2036880000
H                 -2.3282720000     -2.4713370000      1.4321870000
$end

$rem
BASIS  =  6-311++G(d,p)
GUI  =  2
JOB_TYPE  =  SP
METHOD  =  B3LYP
SCF_CONVERGENCE  = 8
SOLVENT_METHOD = sm12
$end

$smx
solvent dimethylformamide
charges CM5
$end

--------------------------------------------------------------

             Standard Nuclear Orientation (Angstroms)
    I     Atom           X                Y                Z
 ----------------------------------------------------------------
    1      C      -0.5680230000     2.0890170000    -0.0875010000
    2      C      -1.8041910000     1.3012570000    -0.0651660000
    3      C      -1.7498390000    -0.0784790000     0.0001810000
    4      C      -0.4650970000    -0.7708900000     0.0472800000
    5      C       0.7665360000     0.0131650000     0.0233930000
    6      C       0.7215360000     1.3933010000    -0.0408780000
    7      O      -0.6136530000     3.3567890000    -0.1471290000
    8      O      -0.4194350000    -2.0396400000     0.1078100000
    9      C       1.9319270000     2.3319590000    -0.0715790000
   10      C       2.7760300000     2.3283650000     1.2190170000
   11      C       2.7989090000     2.2130590000    -1.3413520000
   12      C       2.0814770000    -0.7663140000     0.0723850000
   13      C       2.2558610000    -1.5601870000     1.3839140000
   14      C       2.2804460000    -1.6781990000    -1.1563530000
   15      C      -3.0789510000     2.1492830000    -0.1204050000
   16      C      -3.9427270000     2.0865740000     1.1555710000
   17      C      -3.9127840000     1.9653000000    -1.4045080000
   18      C      -3.0053710000    -0.9513950000     0.0261790000
   19      C      -3.1151860000    -1.8745910000    -1.2052900000
   20      C      -3.1455970000    -1.7567890000     1.3348440000
   21      H       1.4755590000     3.3225980000    -0.1202980000
   22      H       3.5121650000     3.1417290000     1.1898750000
   23      H       3.3229700000     1.3955970000     1.3803580000
   24      H       2.1351780000     2.4907740000     2.0903500000
   25      H       3.3443830000     1.2680960000    -1.4102660000
   26      H       3.5379490000     3.0237990000    -1.3704740000
   27      H       2.1742370000     2.3001310000    -2.2349320000
   28      H       2.8917930000    -0.0401530000     0.0462450000
   29      H       2.1757660000    -0.8977220000     2.2517210000
   30      H       3.2453300000    -2.0345940000     1.4122290000
   31      H       1.4905010000    -2.3318190000     1.4669100000
   32      H       1.5163040000    -2.4550380000    -1.1824200000
   33      H       3.2699150000    -2.1521610000    -1.1213690000
   34      H       2.2178070000    -1.0990990000    -2.0832400000
   35      H      -2.6949900000     3.1703870000    -0.1642700000
   36      H      -4.7373520000     2.8421070000     1.1102750000
   37      H      -3.3309500000     2.2996320000     2.0368320000
   38      H      -4.4204810000     1.1156980000     1.3118280000
   39      H      -4.7062210000     2.7220710000    -1.4501880000
   40      H      -4.3895270000     0.9842560000    -1.4785260000
   41      H      -3.2801700000     2.0929420000    -2.2875630000
   42      H      -3.8656440000    -0.2859340000    -0.0148210000
   43      H      -4.0685100000    -2.4184660000    -1.1887020000
   44      H      -2.2967480000    -2.5943980000    -1.2159540000
   45      H      -3.0765450000    -1.2920250000    -2.1313060000
   46      H      -4.0986360000    -2.3013320000     1.3454170000
   47      H      -3.1293430000    -1.0910350000     2.2036880000
   48      H      -2.3282720000    -2.4713370000     1.4321870000
 ----------------------------------------------------------------

   15    -853.5198752126      6.73e-09  Convergence criterion met
 Total energy in the final basis set =     -853.5935003759

                    Orbital Energies (a.u.)
 --------------------------------------------------------------

 Alpha MOs
 -- Occupied --
-19.0671 -19.0626 -10.2110 -10.2099 -10.1756 -10.1756 -10.1683 -10.1682
-10.1647 -10.1646 -10.1641 -10.1640 -10.1612 -10.1612 -10.1611 -10.1611
-10.1560 -10.1560 -10.1559 -10.1559  -0.9909  -0.9873  -0.8332  -0.8195
 -0.7883  -0.7855  -0.7649  -0.7130  -0.6877  -0.6876  -0.6818  -0.6814
 -0.6687  -0.6334  -0.6052  -0.5782  -0.5642  -0.5395  -0.5264  -0.4893
 -0.4696  -0.4568  -0.4451  -0.4403  -0.4347  -0.4325  -0.4296  -0.4245
 -0.4138  -0.4125  -0.4115  -0.4089  -0.3990  -0.3977  -0.3955  -0.3865
 -0.3842  -0.3812  -0.3732  -0.3551  -0.3511  -0.3482  -0.3455  -0.3413
 -0.3411  -0.3409  -0.3397  -0.3356  -0.3328  -0.3224  -0.3095  -0.3088
 -0.2640  -0.2359  -0.2333  -0.2183  -0.1514

 Beta MOs
 -- Occupied --
-19.0601 -19.0558 -10.2096 -10.2084 -10.1757 -10.1756 -10.1684 -10.1683
-10.1636 -10.1636 -10.1630 -10.1630 -10.1611 -10.1611 -10.1611 -10.1611
-10.1559 -10.1559 -10.1559 -10.1558  -0.9788  -0.9752  -0.8292  -0.8185
 -0.7879  -0.7846  -0.7624  -0.7113  -0.6876  -0.6874  -0.6816  -0.6812
 -0.6601  -0.6315  -0.6035  -0.5760  -0.5638  -0.5379  -0.5230  -0.4878
 -0.4687  -0.4544  -0.4449  -0.4396  -0.4346  -0.4324  -0.4238  -0.4233
 -0.4128  -0.4117  -0.4101  -0.4086  -0.3943  -0.3943  -0.3888  -0.3864
 -0.3835  -0.3811  -0.3630  -0.3498  -0.3477  -0.3450  -0.3444  -0.3406
 -0.3400  -0.3392  -0.3356  -0.3320  -0.3217  -0.3210  -0.3084  -0.3078
 -0.2328  -0.2288  -0.2270  -0.2127

          Ground-State Mulliken Net Atomic Charges

     Atom                 Charge (a.u.)    Spin (a.u.)
  --------------------------------------------------------
      1 C                    -2.594150       0.088581
      2 C                    -0.428434       0.071113
      3 C                    -0.806975       0.079212
      4 C                    -1.806265       0.103880
      5 C                    -0.804027       0.079183
      6 C                    -0.420835       0.071012
      7 O                    -0.228524       0.261320
      8 O                    -0.210833       0.253778
      9 C                     0.899311      -0.004657
     10 C                    -0.297770       0.004328
     11 C                    -0.297355       0.004406
     12 C                     1.522483      -0.026604
     13 C                    -0.428984       0.011967
     14 C                    -0.428988       0.011898
     15 C                     0.896604      -0.004684
     16 C                    -0.298289       0.004362
     17 C                    -0.297344       0.004358
     18 C                     1.522257      -0.026587
     19 C                    -0.429965       0.011881
     20 C                    -0.429238       0.011961
     21 H                     0.110262      -0.003663
     22 H                     0.254193       0.000117
     23 H                     0.209313       0.000201
     24 H                     0.116886       0.000075
     25 H                     0.209579       0.000179
     26 H                     0.253615       0.000117
     27 H                     0.116881       0.000063
     28 H                     0.014774      -0.001349
     29 H                     0.098625      -0.000002
     30 H                     0.252282       0.000306
     31 H                     0.098532      -0.000868
     32 H                     0.098324      -0.000871
     33 H                     0.252350       0.000326
     34 H                     0.098387       0.000002
     35 H                     0.110398      -0.003664
     36 H                     0.253876       0.000121
     37 H                     0.117051       0.000069
     38 H                     0.209005       0.000207
     39 H                     0.253892       0.000107
     40 H                     0.209312       0.000185
     41 H                     0.116853       0.000060
     42 H                     0.014238      -0.001345
     43 H                     0.252441       0.000328
     44 H                     0.098208      -0.000871
     45 H                     0.098426       0.000010
     46 H                     0.252401       0.000316
     47 H                     0.098599       0.000007
     48 H                     0.098615      -0.000873
  --------------------------------------------------------
  Sum of atomic charges =    -1.000000

                    Cartesian Multipole Moments
 -----------------------------------------------------------------
    Charge (ESU x 10^10)
                -4.8032
    Dipole Moment (Debye)
         X       2.4587      Y      -2.4377      Z       0.0616
       Tot       3.4629
    Quadrupole Moments (Debye-Ang)
        XX    -145.5199     XY       2.0882     YY    -168.8321
        XZ      -0.1562     YZ       1.4992     ZZ    -136.5053

 Total job time:  2633.08s(wall), 18710.12s(cpu)
        *  Thank you very much for using Q-Chem.  Have a nice day.  *
