 Gaussian 16, Revision A.03,
 Gaussian 16:  ES64L-G16RevA.03 25-Dec-2016

 ----------------------------------------------------------------
 #P UB3LYP/6-311++G(d,p) SCRF=(PCM,Solvent=n,n-DiMethylFormamide)
 ----------------------------------------------------------------

 -------
 Reduced
 -------
 Symbolic Z-matrix:
 Charge = -2 Multiplicity = 1

                         Standard orientation:
 ---------------------------------------------------------------------
 Center     Atomic      Atomic             Coordinates (Angstroms)
 Number     Number       Type             X           Y           Z
 ---------------------------------------------------------------------
      1          8           0       -0.000019    2.630121    0.356017
      2          6           0       -0.000005    1.358818    0.254994
      3          6           0       -1.259659    0.635645    0.098294
      4          6           0       -2.461039    1.379945   -0.091711
      5          6           0       -3.689870    0.761475   -0.272182
      6          6           0       -3.791173   -0.634518   -0.322146
      7          6           0       -2.616519   -1.394950   -0.187385
      8          6           0       -1.391159   -0.778945    0.041423
      9         16           0        0.000012   -1.828959    0.419449
     10          6           0        1.391189   -0.778906    0.041610
     11          6           0        2.616544   -1.394943   -0.187170
     12          6           0        3.791178   -0.634509   -0.322007
     13          6           0        3.689839    0.761489   -0.272348
     14          6           0        2.460992    1.379977   -0.092026
     15          6           0        1.259684    0.635686    0.098366
     16          1           0       -2.366419    2.459264   -0.074315
     17          1           0       -4.588337    1.367423   -0.380253
     18          1           0       -4.752549   -1.124031   -0.457380
     19          1           0       -2.666927   -2.480280   -0.230712
     20          1           0        2.666935   -2.480279   -0.230443
     21          1           0        4.752565   -1.124014   -0.457138
     22          1           0        4.588324    1.367410   -0.380441
     23          1           0        2.366344    2.459301   -0.074910
 ---------------------------------------------------------------------

 SCF Done:  E(UB3LYP) =  -973.971035016     A.U. after   25 cycles

 The electronic state is 1-A.
 Alpha  occ. eigenvalues --  -88.83106 -19.00160 -10.17069 -10.17068 -10.14821
 Alpha  occ. eigenvalues --  -10.14403 -10.14403 -10.14334 -10.14334 -10.13534
 Alpha  occ. eigenvalues --  -10.13533 -10.12952 -10.12952 -10.12420 -10.12420
 Alpha  occ. eigenvalues --   -7.91756  -5.88109  -5.87755  -5.87207  -0.92600
 Alpha  occ. eigenvalues --   -0.83673  -0.81801  -0.76649  -0.72044  -0.71663
 Alpha  occ. eigenvalues --   -0.70587  -0.66532  -0.60601  -0.57720  -0.56006
 Alpha  occ. eigenvalues --   -0.54502  -0.50712  -0.48990  -0.44678  -0.42776
 Alpha  occ. eigenvalues --   -0.42607  -0.42146  -0.39782  -0.39075  -0.37427
 Alpha  occ. eigenvalues --   -0.37342  -0.35804  -0.35164  -0.33761  -0.32713
 Alpha  occ. eigenvalues --   -0.31920  -0.30265  -0.29996  -0.29167  -0.27452
 Alpha  occ. eigenvalues --   -0.23240  -0.21770  -0.21280  -0.18594  -0.18522
 Alpha  occ. eigenvalues --   -0.07104
 Alpha virt. eigenvalues --    0.00119   0.00238   0.00700   0.01150   0.01460
 Alpha virt. eigenvalues --    0.01541   0.02389   0.02576   0.03865   0.04412
 Alpha virt. eigenvalues --    0.04645   0.04912   0.05899   0.06184   0.06203

  Beta  occ. eigenvalues --  -88.83106 -19.00160 -10.17069 -10.17068 -10.14821
  Beta  occ. eigenvalues --  -10.14403 -10.14403 -10.14334 -10.14334 -10.13534
  Beta  occ. eigenvalues --  -10.13533 -10.12952 -10.12952 -10.12420 -10.12420
  Beta  occ. eigenvalues --   -7.91756  -5.88109  -5.87755  -5.87207  -0.92600
  Beta  occ. eigenvalues --   -0.83673  -0.81801  -0.76649  -0.72044  -0.71663
  Beta  occ. eigenvalues --   -0.70587  -0.66532  -0.60601  -0.57720  -0.56006
  Beta  occ. eigenvalues --   -0.54502  -0.50712  -0.48990  -0.44678  -0.42776
  Beta  occ. eigenvalues --   -0.42607  -0.42146  -0.39782  -0.39075  -0.37427
  Beta  occ. eigenvalues --   -0.37342  -0.35804  -0.35164  -0.33761  -0.32713
  Beta  occ. eigenvalues --   -0.31920  -0.30265  -0.29996  -0.29167  -0.27452
  Beta  occ. eigenvalues --   -0.23240  -0.21770  -0.21280  -0.18594  -0.18522
  Beta  occ. eigenvalues --   -0.07104
  Beta virt. eigenvalues --    0.00119   0.00238   0.00700   0.01150   0.01460
  Beta virt. eigenvalues --    0.01541   0.02389   0.02576   0.03865   0.04412
  Beta virt. eigenvalues --    0.04645   0.04912   0.05899   0.06184   0.06203

 Mulliken charges and spin densities:
               1          2
     1  O   -0.690946  -0.000000
     2  C   -0.992629   0.000000
     3  C    1.607403  -0.000000
     4  C   -0.136679   0.000000
     5  C   -0.517371  -0.000000
     6  C   -0.374566   0.000000
     7  C   -0.337985   0.000000
     8  C   -0.500521   0.000000
     9  S   -0.933233  -0.000000
    10  C   -0.500405   0.000000
    11  C   -0.338399  -0.000000
    12  C   -0.374576   0.000000
    13  C   -0.517458   0.000000
    14  C   -0.137041   0.000000
    15  C    1.608031  -0.000000
    16  H    0.135343   0.000000
    17  H    0.148772  -0.000000
    18  H    0.137688  -0.000000
    19  H    0.146386  -0.000000
    20  H    0.146384  -0.000000
    21  H    0.137700  -0.000000
    22  H    0.148761  -0.000000
    23  H    0.135341   0.000000
 Sum of Mulliken charges =  -2.00000  -0.00000

 Dipole moment (field-independent basis, Debye):
    X=              0.0008    Y=             -8.4074    Z=             -1.4574  Tot=              8.5328
 Quadrupole moment (field-independent basis, Debye-Ang):
   XX=           -140.5936   YY=           -136.8028   ZZ=           -113.6006
   XY=             -0.0002   XZ=             -0.0001   YZ=             -2.5562

 Normal termination of Gaussian 16 at Sat Jan 13 19:22:05 2024.
