 Gaussian 16, Revision A.03,
 Gaussian 16:  ES64L-G16RevA.03 25-Dec-2016

 ----------------------------------------------------------------------
 #P UB3LYP/6-311++G(d,p) nosym opt freq SCRF=(PCM,Solvent=n,n-DiMethylF
 ormamide)
 ----------------------------------------------------------------------

 -------
 Radical
 -------
 Symbolic Z-matrix:
 Charge = -1 Multiplicity = 2

 SCF Done:  E(UB3LYP) =  -846.618622499     A.U. after   20 cycles
 SCF Done:  E(UB3LYP) =  -846.618895534     A.U. after   16 cycles
 SCF Done:  E(UB3LYP) =  -846.618923179     A.U. after   15 cycles
 SCF Done:  E(UB3LYP) =  -846.618950244     A.U. after   13 cycles
 SCF Done:  E(UB3LYP) =  -846.618954926     A.U. after   13 cycles
 SCF Done:  E(UB3LYP) =  -846.618956200     A.U. after   12 cycles
 SCF Done:  E(UB3LYP) =  -846.618956530     A.U. after   11 cycles
 SCF Done:  E(UB3LYP) =  -846.618956631     A.U. after   10 cycles
 Optimization completed.
    -- Stationary point found.
 Normal termination of Gaussian 16 at Sun Feb 11 02:39:15 2024.

 ----------------------------------------------------------------------
 #P Geom=AllCheck Guess=TCheck SCRF=Check GenChk UB3LYP/6-311++G(d,p) F
 req
 ----------------------------------------------------------------------

 Structure from the checkpoint file:  "284-rad.chk"
 -------
 Radical
 -------
 Charge = -1 Multiplicity = 2

                          Input orientation:
 ---------------------------------------------------------------------
 Center     Atomic      Atomic             Coordinates (Angstroms)
 Number     Number       Type             X           Y           Z
 ---------------------------------------------------------------------
      1          6           0       -0.155971    3.865565   -0.063658
      2          6           0       -1.396871    3.258327   -0.135268
      3          6           0       -1.490696    1.878528   -0.398931
      4          6           0        1.027683    3.119383   -0.252136
      5          6           0        0.935538    1.723796   -0.518967
      6          6           0       -0.339036    1.131090   -0.586505
      7          6           0        2.328352    3.752826   -0.176214
      8          6           0        3.479199    2.908846   -0.379277
      9          6           0        3.427830    1.552335   -0.634701
     10          6           0        2.143649    0.898612   -0.723055
     11          8           0        2.523072    4.994588    0.057091
     12          8           0        2.041005   -0.340077   -0.961326
     13          1           0       -0.070428    4.926529    0.139881
     14          1           0       -2.297832    3.844272    0.011813
     15          1           0       -2.463601    1.402380   -0.454878
     16          1           0       -0.396250    0.068482   -0.789892
     17          8           0        4.672884    3.565191   -0.293215
     18          6           0        4.687306    0.749455   -0.842601
     19          6           0        5.150752    0.698019   -2.312714
     20          6           0        6.419218   -0.138272   -2.513337
     21          6           0        6.892285   -0.196465   -3.970148
     22          6           0        8.159930   -1.034464   -4.173286
     23          6           0        8.624558   -1.086606   -5.631930
     24          1           0        4.407317    4.488466   -0.099692
     25          1           0        4.508780   -0.272283   -0.496092
     26          1           0        5.493614    1.169474   -0.233338
     27          1           0        5.326447    1.719312   -2.670636
     28          1           0        4.341019    0.287429   -2.926605
     29          1           0        6.239526   -1.158958   -2.150833
     30          1           0        7.224268    0.270448   -1.888403
     31          1           0        7.073676    0.823852   -4.332946
     32          1           0        6.087531   -0.604259   -4.595932
     33          1           0        7.979019   -2.054114   -3.811562
     34          1           0        8.964530   -0.627360   -3.548652
     35          1           0        7.853338   -1.521057   -6.276271
     36          1           0        9.529355   -1.691315   -5.742360
     37          1           0        8.846202   -0.083828   -6.011432
 ---------------------------------------------------------------------

 SCF Done:  E(UB3LYP) =  -846.618956631     A.U. after    1 cycles

 Alpha  occ. eigenvalues --  -19.14336 -19.08421 -19.07225 -10.22215 -10.22084
 Alpha  occ. eigenvalues --  -10.21997 -10.17453 -10.17250 -10.17232 -10.17116
 Alpha  occ. eigenvalues --  -10.17083 -10.16940 -10.16219 -10.15996 -10.15764
 Alpha  occ. eigenvalues --  -10.15725 -10.15675 -10.15653 -10.15386  -1.06225
 Alpha  occ. eigenvalues --   -0.99491  -0.99299  -0.85803  -0.81354  -0.79773
 Alpha  occ. eigenvalues --   -0.76938  -0.75027  -0.74010  -0.70269  -0.67102
 Alpha  occ. eigenvalues --   -0.64141  -0.61748  -0.59830  -0.57560  -0.57230
 Alpha  occ. eigenvalues --   -0.56856  -0.53581  -0.50459  -0.48364  -0.47451
 Alpha  occ. eigenvalues --   -0.45977  -0.45244  -0.43868  -0.43599  -0.42812
 Alpha  occ. eigenvalues --   -0.42442  -0.41671  -0.41182  -0.40315  -0.38805
 Alpha  occ. eigenvalues --   -0.38700  -0.38416  -0.38188  -0.37427  -0.36129
 Alpha  occ. eigenvalues --   -0.35286  -0.34590  -0.34171  -0.33973  -0.33465
 Alpha  occ. eigenvalues --   -0.32341  -0.32281  -0.31720  -0.31154  -0.26634
 Alpha  occ. eigenvalues --   -0.25765  -0.25703  -0.23815  -0.22727  -0.15083
 Alpha virt. eigenvalues --   -0.03270  -0.00838  -0.00446   0.00059   0.00687
 Alpha virt. eigenvalues --    0.01093   0.01398   0.02005   0.02387   0.03107
 Alpha virt. eigenvalues --    0.03247   0.04088   0.04612   0.04759   0.04901

  Beta  occ. eigenvalues --  -19.14287 -19.07785 -19.06682 -10.22081 -10.21981
  Beta  occ. eigenvalues --  -10.21713 -10.17438 -10.17227 -10.17141 -10.17040
  Beta  occ. eigenvalues --  -10.17032 -10.16960 -10.16140 -10.15995 -10.15771
  Beta  occ. eigenvalues --  -10.15725 -10.15670 -10.15648 -10.15386  -1.06018
  Beta  occ. eigenvalues --   -0.98539  -0.98213  -0.85570  -0.81148  -0.79617
  Beta  occ. eigenvalues --   -0.76784  -0.74812  -0.73905  -0.70100  -0.66371
  Beta  occ. eigenvalues --   -0.63971  -0.61570  -0.59642  -0.57474  -0.57220
  Beta  occ. eigenvalues --   -0.56621  -0.53408  -0.50232  -0.48163  -0.47335
  Beta  occ. eigenvalues --   -0.45853  -0.45146  -0.43806  -0.42903  -0.42660
  Beta  occ. eigenvalues --   -0.42259  -0.41247  -0.40674  -0.40092  -0.38589
  Beta  occ. eigenvalues --   -0.38325  -0.38003  -0.37681  -0.37243  -0.35212
  Beta  occ. eigenvalues --   -0.34783  -0.34441  -0.33839  -0.33287  -0.32726
  Beta  occ. eigenvalues --   -0.32311  -0.32186  -0.31674  -0.31040  -0.25203
  Beta  occ. eigenvalues --   -0.25003  -0.24643  -0.23302  -0.21792
  Beta virt. eigenvalues --   -0.08525  -0.02521  -0.00473   0.00057   0.00284
  Beta virt. eigenvalues --    0.00712   0.01109   0.01405   0.02011   0.02397
  Beta virt. eigenvalues --    0.03124   0.03260   0.04116   0.04635   0.04814

 Mulliken charges and spin densities:
               1          2
     1  C    0.064739   0.072449
     2  C   -0.376279  -0.000634
     3  C   -0.428698   0.069202
     4  C    0.444938  -0.003394
     5  C   -0.026488   0.058141
     6  C    0.087709   0.003386
     7  C   -0.892948   0.163117
     8  C   -0.620011   0.062357
     9  C    1.987708   0.054742
    10  C   -0.757463   0.074836
    11  O   -0.528279   0.232428
    12  O   -0.463997   0.201088
    13  H    0.166382  -0.004075
    14  H    0.182396  -0.000609
    15  H    0.177964  -0.004960
    16  H    0.166777  -0.000421
    17  O   -0.278262   0.016332
    18  C   -0.354158   0.009394
    19  C   -0.531001  -0.003275
    20  C   -0.102298   0.003017
    21  C   -0.215182  -0.002100
    22  C   -0.202063  -0.000014
    23  C   -0.678975   0.000019
    24  H    0.289557  -0.003578
    25  H    0.200165   0.001952
    26  H    0.208415  -0.000353
    27  H    0.162269   0.002350
    28  H    0.168767  -0.001473
    29  H    0.110677   0.000458
    30  H    0.111788  -0.000321
    31  H    0.120198  -0.000024
    32  H    0.118962  -0.000030
    33  H    0.132120  -0.000009
    34  H    0.131498   0.000001
    35  H    0.140433   0.000003
    36  H    0.142371  -0.000003
    37  H    0.140269  -0.000000
 Sum of Mulliken charges =  -1.00000   1.00000

 Dipole moment (field-independent basis, Debye):
    X=            -11.7089    Y=            -10.4536    Z=              2.3692  Tot=             15.8742
 Quadrupole moment (field-independent basis, Debye-Ang):
   XX=           -149.2695   YY=           -171.5047   ZZ=           -124.7038
   XY=            -27.9127   XZ=              5.8802   YZ=             -0.1934

  Exact polarizability: 381.419  -6.549 361.960 -17.373  38.961 202.073
 Approx polarizability: 397.792  10.369 421.824  -5.462  41.531 216.828

                      1                      2                      3
                      A                      A                      A
 Frequencies --     18.5521                32.4770                49.5525
 Red. masses --      4.9572                 5.2148                 1.5518
 Frc consts  --      0.0010                 0.0032                 0.0022
 IR Inten    --      1.0344                 1.7178                 0.1117

                      4                      5                      6
                      A                      A                      A
 Frequencies --     71.1205                84.1779               106.3928
 Red. masses --      3.1840                 5.5339                 5.0276
 Frc consts  --      0.0095                 0.0231                 0.0335
 IR Inten    --      1.4193                10.3658                 0.8427

                      7                      8                      9
                      A                      A                      A
 Frequencies --    131.2427               137.4236               146.0938
 Red. masses --      1.6861                 4.3134                 2.2389
 Frc consts  --      0.0171                 0.0480                 0.0282
 IR Inten    --      0.0239                 1.1729                 0.2919

                     10                     11                     12
                      A                      A                      A
 Frequencies --    159.1382               188.7593               234.3806
 Red. masses --      6.5212                 6.7959                 3.6742
 Frc consts  --      0.0973                 0.1427                 0.1189
 IR Inten    --      1.2531                 1.6889                 0.0902

                     13                     14                     15
                      A                      A                      A
 Frequencies --    244.3834               255.3645               299.9332
 Red. masses --      1.1248                 4.0815                 2.9183
 Frc consts  --      0.0396                 0.1568                 0.1547
 IR Inten    --      0.1791                 6.3896                 4.3744

                     16                     17                     18
                      A                      A                      A
 Frequencies --    317.2436               335.2368               377.6372
 Red. masses --      4.5366                 5.5733                10.3525
 Frc consts  --      0.2690                 0.3690                 0.8698
 IR Inten    --      1.2012                28.1143                30.0245

                     19                     20                     21
                      A                      A                      A
 Frequencies --    395.3469               412.6860               430.5870
 Red. masses --      4.2941                 4.1778                 8.7863
 Frc consts  --      0.3954                 0.4192                 0.9598
 IR Inten    --      0.3459                 6.4184                 3.8433

                     22                     23                     24
                      A                      A                      A
 Frequencies --    441.2925               459.0528               489.3752
 Red. masses --      4.4362                 3.3348                 6.2140
 Frc consts  --      0.5090                 0.4140                 0.8768
 IR Inten    --      1.8489                 3.0036                 5.1455

                     25                     26                     27
                      A                      A                      A
 Frequencies --    533.0376               573.4389               643.7641
 Red. masses --      6.5541                 5.4301                 6.1133
 Frc consts  --      1.0972                 1.0520                 1.4927
 IR Inten    --      1.3676                 3.5969                33.6955

                     28                     29                     30
                      A                      A                      A
 Frequencies --    656.3371               674.8566               697.8625
 Red. masses --      1.1163                 5.7264                 3.2320
 Frc consts  --      0.2833                 1.5366                 0.9274
 IR Inten    --    134.8138                10.1612                 3.0926

                     31                     32                     33
                      A                      A                      A
 Frequencies --    706.2059               713.1179               729.9037
 Red. masses --      3.4956                 5.0121                 1.0920
 Frc consts  --      1.0271                 1.5017                 0.3428
 IR Inten    --     67.6765                27.3104                11.7389

                     34                     35                     36
                      A                      A                      A
 Frequencies --    742.5857               761.5329               786.0092
 Red. masses --      1.2300                 3.5065                 1.7331
 Frc consts  --      0.3996                 1.1981                 0.6309
 IR Inten    --      0.0827                27.5603                17.7699

                     37                     38                     39
                      A                      A                      A
 Frequencies --    787.8439               854.0006               879.2447
 Red. masses --      1.5496                 1.9631                 1.3836
 Frc consts  --      0.5667                 0.8436                 0.6302
 IR Inten    --      9.4769                33.0986                 0.0768

                     40                     41                     42
                      A                      A                      A
 Frequencies --    892.8163               907.8769               941.2237
 Red. masses --      1.9835                 1.7505                 5.5552
 Frc consts  --      0.9316                 0.8501                 2.8996
 IR Inten    --      1.2200                22.9170                46.9049

                     43                     44                     45
                      A                      A                      A
 Frequencies --    979.9890               994.3796               995.5930
 Red. masses --      1.3691                 1.5927                 1.2833
 Frc consts  --      0.7747                 0.9279                 0.7495
 IR Inten    --      2.5001                 1.1635                 0.0341

                     46                     47                     48
                      A                      A                      A
 Frequencies --   1003.9879              1020.9967              1039.6889
 Red. masses --      2.9019                 3.2415                 2.3074
 Frc consts  --      1.7234                 1.9909                 1.4696
 IR Inten    --     18.3718                 2.0845                51.6600

                     49                     50                     51
                      A                      A                      A
 Frequencies --   1046.5668              1054.7613              1063.5700
 Red. masses --      2.5157                 2.6223                 2.2769
 Frc consts  --      1.6235                 1.7189                 1.5175
 IR Inten    --      7.1574                78.7802                 0.5741

                     52                     53                     54
                      A                      A                      A
 Frequencies --   1109.2439              1124.3126              1128.9743
 Red. masses --      2.1544                 1.7868                 2.3514
 Frc consts  --      1.5618                 1.3308                 1.7658
 IR Inten    --      6.7220               130.1247                24.7762

                     55                     56                     57
                      A                      A                      A
 Frequencies --   1154.6970              1193.5910              1203.0296
 Red. masses --      1.3220                 2.5874                 2.1184
 Frc consts  --      1.0386                 2.1718                 1.8064
 IR Inten    --      2.7770                37.6295                18.9094

                     58                     59                     60
                      A                      A                      A
 Frequencies --   1218.5699              1248.8523              1251.8878
 Red. masses --      1.7103                 1.2971                 2.3714
 Frc consts  --      1.4963                 1.1919                 2.1897
 IR Inten    --     34.0724                 5.0926                67.8021

                     61                     62                     63
                      A                      A                      A
 Frequencies --   1276.2185              1291.1085              1310.3554
 Red. masses --      1.5988                 1.8636                 1.4179
 Frc consts  --      1.5342                 1.8304                 1.4345
 IR Inten    --    120.5619                15.8105                45.4261

                     64                     65                     66
                      A                      A                      A
 Frequencies --   1318.3497              1325.8791              1326.4363
 Red. masses --      1.3131                 1.0558                 1.4894
 Frc consts  --      1.3446                 1.0935                 1.5440
 IR Inten    --    101.3753                 5.8704               121.5076

                     67                     68                     69
                      A                      A                      A
 Frequencies --   1331.7150              1350.0998              1357.1017
 Red. masses --      1.1552                 8.5933                 1.4711
 Frc consts  --      1.2071                 9.2287                 1.5964
 IR Inten    --      0.7100                47.2426                 5.0458

                     70                     71                     72
                      A                      A                      A
 Frequencies --   1379.1378              1392.8458              1403.3318
 Red. masses --      1.5060                 1.6086                 1.2502
 Frc consts  --      1.6876                 1.8387                 1.4506
 IR Inten    --      2.8674                 1.4222                 2.5008

                     73                     74                     75
                      A                      A                      A
 Frequencies --   1422.8308              1454.4758              1459.1546
 Red. masses --      2.7955                 1.8303                 2.2862
 Frc consts  --      3.3344                 2.2813                 2.8680
 IR Inten    --    744.5002               373.2851                51.3681

                     76                     77                     78
                      A                      A                      A
 Frequencies --   1471.3376              1476.1191              1478.5456
 Red. masses --      1.0686                 1.4043                 1.4758
 Frc consts  --      1.3630                 1.8029                 1.9008
 IR Inten    --      1.5874                73.9483                74.8101

                     79                     80                     81
                      A                      A                      A
 Frequencies --   1487.5487              1487.9143              1497.8481
 Red. masses --      1.0897                 1.0414                 1.1603
 Frc consts  --      1.4207                 1.3584                 1.5337
 IR Inten    --      4.0076                 8.7494                71.7155

                     82                     83                     84
                      A                      A                      A
 Frequencies --   1499.3875              1506.1459              1529.0734
 Red. masses --      3.4346                 1.0979                 5.1786
 Frc consts  --      4.5493                 1.4674                 7.1337
 IR Inten    --    901.0610                16.7590                16.5446

                     85                     86                     87
                      A                      A                      A
 Frequencies --   1571.8137              1622.9453              1631.3082
 Red. masses --      5.3469                 5.8926                 6.5531
 Frc consts  --      7.7831                 9.1445                10.2747
 IR Inten    --     17.3303                 8.1722                 6.3624

                     88                     89                     90
                      A                      A                      A
 Frequencies --   2988.1918              2991.2325              3002.1947
 Red. masses --      1.0573                 1.0582                 1.0594
 Frc consts  --      5.5624                 5.5783                 5.6261
 IR Inten    --      1.3071                45.2767               115.8409

                     91                     92                     93
                      A                      A                      A
 Frequencies --   3005.2988              3009.6815              3012.8835
 Red. masses --      1.0986                 1.0588                 1.0358
 Frc consts  --      5.8459                 5.6508                 5.5395
 IR Inten    --      0.6064                53.1036                65.7779

                     94                     95                     96
                      A                      A                      A
 Frequencies --   3018.4725              3028.9650              3035.6039
 Red. masses --      1.1017                 1.0604                 1.1033
 Frc consts  --      5.9140                 5.7322                 5.9902
 IR Inten    --      4.7454               114.6164                43.8916

                     97                     98                     99
                      A                      A                      A
 Frequencies --   3045.9370              3071.5665              3074.1623
 Red. masses --      1.1037                 1.1026                 1.1047
 Frc consts  --      6.0330                 6.1291                 6.1510
 IR Inten    --    125.3098               109.3248                77.7392

                    100                    101                    102
                      A                      A                      A
 Frequencies --   3076.1994              3158.3345              3171.7267
 Red. masses --      1.1011                 1.0858                 1.0897
 Frc consts  --      6.1393                 6.3812                 6.4585
 IR Inten    --     74.3252                 8.4710                18.5167

                    103                    104                    105
                      A                      A                      A
 Frequencies --   3184.4866              3190.7045              3533.5439
 Red. masses --      1.0932                 1.0941                 1.0639
 Frc consts  --      6.5319                 6.5626                 7.8268
 IR Inten    --     26.0768                33.0609               196.6357

 - Thermochemistry -
 -------------------
 Temperature   298.150 Kelvin.  Pressure   1.00000 Atm.
 Atom     1 has atomic number  6 and mass  12.00000

 Molecular mass:   258.12559 amu.
 Principal axes and moments of inertia in atomic units:
                           1         2         3
     Eigenvalues --  2303.38446********************
           X            0.81691   0.51901   0.25156
           Y           -0.38873   0.81766  -0.42464
           Z           -0.42608   0.24910   0.86971
 This molecule is an asymmetric top.
 Rotational symmetry number  1.
 Warning -- assumption of classical behavior for rotation
           may cause significant error
 Rotational temperatures (Kelvin)      0.03760     0.00722     0.00642
 Rotational constants (GHZ):           0.78352     0.15041     0.13369
 Zero-point vibrational energy     797849.5 (Joules/Mol)
                                  190.69060 (Kcal/Mol)
 Warning -- explicit consideration of  26 degrees of freedom as
           vibrations may cause significant error
 Vibrational temperatures:     26.69    46.73    71.30   102.33   121.11
          (Kelvin)            153.08   188.83   197.72   210.20   228.96
                              271.58   337.22   351.61   367.41   431.54
                              456.44   482.33   543.34   568.82   593.76
                              619.52   634.92   660.47   704.10   766.92
                              825.05   926.23   944.32   970.97  1004.07
                             1016.07  1026.02  1050.17  1068.42  1095.68
                             1130.89  1133.53  1228.72  1265.04  1284.56
                             1306.23  1354.21  1409.99  1430.69  1432.44
                             1444.51  1468.99  1495.88  1505.78  1517.57
                             1530.24  1595.95  1617.64  1624.34  1661.35
                             1717.31  1730.89  1753.25  1796.82  1801.19
                             1836.19  1857.62  1885.31  1896.81  1907.64
                             1908.45  1916.04  1942.49  1952.57  1984.27
                             2003.99  2019.08  2047.14  2092.67  2099.40
                             2116.93  2123.81  2127.30  2140.25  2140.78
                             2155.07  2157.28  2167.01  2200.00  2261.49
                             2335.06  2347.09  4299.34  4303.72  4319.49
                             4323.95  4330.26  4334.87  4342.91  4358.01
                             4367.56  4382.42  4419.30  4423.03  4425.96
                             4544.14  4563.41  4581.77  4590.71  5083.98

 Zero-point correction=                           0.303885 (Hartree/Particle)
 Thermal correction to Energy=                    0.321958
 Thermal correction to Enthalpy=                  0.322902
 Thermal correction to Gibbs Free Energy=         0.255425
 Sum of electronic and zero-point Energies=           -846.315072
 Sum of electronic and thermal Energies=              -846.296999
 Sum of electronic and thermal Enthalpies=            -846.296054
 Sum of electronic and thermal Free Energies=         -846.363532

                     E (Thermal)             CV                S
                      KCal/Mol        Cal/Mol-Kelvin    Cal/Mol-Kelvin
 Total                  202.032             68.789            142.018
 Electronic               0.000              0.000              1.377
 Translational            0.889              2.981             42.545
 Rotational               0.889              2.981             34.278
 Vibrational            200.254             62.827             63.818
 Vibration     1          0.593              1.986              6.783
 Vibration     2          0.594              1.983              5.672
 Vibration     3          0.595              1.978              4.835
 Vibration     4          0.598              1.968              4.122
 Vibration     5          0.601              1.960              3.791
 Vibration     6          0.605              1.944              3.334
 Vibration     7          0.612              1.922              2.928
 Vibration     8          0.614              1.916              2.839
 Vibration     9          0.617              1.907              2.722
 Vibration    10          0.621              1.892              2.560
 Vibration    11          0.633              1.855              2.240
 Vibration    12          0.654              1.788              1.845
 Vibration    13          0.660              1.772              1.771
 Vibration    14          0.666              1.754              1.693
 Vibration    15          0.692              1.674              1.417
 Vibration    16          0.704              1.641              1.324
 Vibration    17          0.716              1.605              1.235
 Vibration    18          0.748              1.518              1.049
 Vibration    19          0.762              1.480              0.980
 Vibration    20          0.776              1.443              0.917
 Vibration    21          0.792              1.404              0.857
 Vibration    22          0.801              1.380              0.823
 Vibration    23          0.817              1.341              0.769
 Vibration    24          0.845              1.274              0.685
 Vibration    25          0.888              1.177              0.580
 Vibration    26          0.930              1.089              0.498

 Optimization completed.
    -- Stationary point found.
 Normal termination of Gaussian 16 at Sun Feb 11 04:47:23 2024.
