 Q-Chem 5.4, Q-Chem, Inc., Pleasanton, CA (2021)
 Q-Chem 5.4.0 for Intel X86 EM64T Linux

User input:
--------------------------------------------------------------
$molecule
-1 2
C                  0.6439000000      1.4196060000     -0.5095210000
C                 -0.4767000000      0.5420660000     -0.2626090000
C                 -0.3388120000     -0.7511990000      0.1684740000
C                  0.9830050000     -1.3182800000      0.4003600000
C                  2.1258600000     -0.4447050000      0.1587720000
C                  1.9695220000      0.8566600000     -0.2737070000
C                  3.1568630000      1.7535960000     -0.5220460000
C                  3.4966090000     -1.0282910000      0.4028500000
O                  0.4750000000      2.6106680000     -0.9091460000
O                  1.1230640000     -2.5169290000      0.7921150000
C                 -1.5230880000     -1.6744790000      0.4002720000
C                 -2.8041820000     -0.9796410000      0.7579730000
C                 -3.9837630000     -0.9990750000      0.1224110000
C                 -4.2562110000     -1.7442150000     -1.1609310000
C                 -5.1705390000     -0.2345850000      0.6603890000
H                 -1.4605550000      0.9665880000     -0.4417180000
H                  3.7599510000      1.8918440000      0.3847590000
H                  2.8047200000      2.7292460000     -0.8593750000
H                  3.8285620000      1.3388510000     -1.2848080000
H                  3.3950040000     -2.0585760000      0.7452740000
H                  4.0516370000     -0.4583800000      1.1590600000
H                  4.1095480000     -1.0199920000     -0.5077910000
H                 -1.2371080000     -2.3548570000      1.2114260000
H                 -1.6508360000     -2.3246160000     -0.4728290000
H                 -2.7436490000     -0.3751790000      1.6630620000
H                 -3.3726700000     -2.2483930000     -1.5511840000
H                 -4.6207870000     -1.0567040000     -1.9349170000
H                 -5.0418510000     -2.4982480000     -1.0174370000
H                 -4.9241660000      0.2906390000      1.5860600000
H                 -6.0180710000     -0.9036210000      0.8628950000
H                 -5.5259150000      0.5077330000     -0.0663830000
$end

$rem
BASIS  =  6-311++G(d,p)
GUI  =  2
JOB_TYPE  =  SP
METHOD  =  B3LYP
SCF_CONVERGENCE  = 8
SOLVENT_METHOD = sm12
$end

$smx
solvent dimethylformamide
charges CM5
$end

--------------------------------------------------------------

             Standard Nuclear Orientation (Angstroms)
    I     Atom           X                Y                Z
 ----------------------------------------------------------------
    1      C       0.6439000000     1.4196060000    -0.5095210000
    2      C      -0.4767000000     0.5420660000    -0.2626090000
    3      C      -0.3388120000    -0.7511990000     0.1684740000
    4      C       0.9830050000    -1.3182800000     0.4003600000
    5      C       2.1258600000    -0.4447050000     0.1587720000
    6      C       1.9695220000     0.8566600000    -0.2737070000
    7      C       3.1568630000     1.7535960000    -0.5220460000
    8      C       3.4966090000    -1.0282910000     0.4028500000
    9      O       0.4750000000     2.6106680000    -0.9091460000
   10      O       1.1230640000    -2.5169290000     0.7921150000
   11      C      -1.5230880000    -1.6744790000     0.4002720000
   12      C      -2.8041820000    -0.9796410000     0.7579730000
   13      C      -3.9837630000    -0.9990750000     0.1224110000
   14      C      -4.2562110000    -1.7442150000    -1.1609310000
   15      C      -5.1705390000    -0.2345850000     0.6603890000
   16      H      -1.4605550000     0.9665880000    -0.4417180000
   17      H       3.7599510000     1.8918440000     0.3847590000
   18      H       2.8047200000     2.7292460000    -0.8593750000
   19      H       3.8285620000     1.3388510000    -1.2848080000
   20      H       3.3950040000    -2.0585760000     0.7452740000
   21      H       4.0516370000    -0.4583800000     1.1590600000
   22      H       4.1095480000    -1.0199920000    -0.5077910000
   23      H      -1.2371080000    -2.3548570000     1.2114260000
   24      H      -1.6508360000    -2.3246160000    -0.4728290000
   25      H      -2.7436490000    -0.3751790000     1.6630620000
   26      H      -3.3726700000    -2.2483930000    -1.5511840000
   27      H      -4.6207870000    -1.0567040000    -1.9349170000
   28      H      -5.0418510000    -2.4982480000    -1.0174370000
   29      H      -4.9241660000     0.2906390000     1.5860600000
   30      H      -6.0180710000    -0.9036210000     0.8628950000
   31      H      -5.5259150000     0.5077330000    -0.0663830000
 ----------------------------------------------------------------

   17    -655.6882672023      6.66e-09  Convergence criterion met
 Total energy in the final basis set =     -655.7752826970

                    Orbital Energies (a.u.)
 --------------------------------------------------------------

 Alpha MOs
 -- Occupied --
-19.0726 -19.0713 -10.2150 -10.2148 -10.1799 -10.1724 -10.1716 -10.1705
-10.1695 -10.1666 -10.1659 -10.1652 -10.1644 -10.1636 -10.1589  -0.9938
 -0.9907  -0.8337  -0.8188  -0.7875  -0.7330  -0.7296  -0.6954  -0.6711
 -0.6660  -0.6282  -0.5657  -0.5455  -0.5204  -0.4945  -0.4698  -0.4561
 -0.4400  -0.4369  -0.4341  -0.4218  -0.4078  -0.4013  -0.3976  -0.3942
 -0.3914  -0.3889  -0.3863  -0.3775  -0.3725  -0.3659  -0.3598  -0.3502
 -0.3423  -0.3317  -0.2733  -0.2498  -0.2428  -0.2379  -0.2280  -0.1573

 Beta MOs
 -- Occupied --
-19.0654 -19.0641 -10.2138 -10.2134 -10.1800 -10.1718 -10.1711 -10.1696
-10.1683 -10.1666 -10.1659 -10.1652 -10.1645 -10.1636 -10.1579  -0.9814
 -0.9780  -0.8296  -0.8173  -0.7858  -0.7313  -0.7271  -0.6954  -0.6685
 -0.6614  -0.6244  -0.5624  -0.5417  -0.5200  -0.4928  -0.4690  -0.4530
 -0.4365  -0.4348  -0.4333  -0.4182  -0.4047  -0.3987  -0.3956  -0.3908
 -0.3892  -0.3864  -0.3856  -0.3734  -0.3661  -0.3607  -0.3473  -0.3426
 -0.3335  -0.3292  -0.2498  -0.2400  -0.2337  -0.2319  -0.2224

          Ground-State Mulliken Net Atomic Charges

     Atom                 Charge (a.u.)    Spin (a.u.)
  --------------------------------------------------------
      1 C                    -1.732886       0.073571
      2 C                    -1.528102       0.034466
      3 C                     0.559392       0.070882
      4 C                    -1.808068       0.095772
      5 C                    -0.699933       0.044489
      6 C                     0.497487       0.123042
      7 C                     0.331380       0.010166
      8 C                     0.410721      -0.004687
      9 O                    -0.359297       0.259238
     10 O                    -0.300704       0.264757
     11 C                    -0.473891       0.022443
     12 C                    -0.014841      -0.005812
     13 C                     0.812474       0.000729
     14 C                     0.162489      -0.000486
     15 C                     0.275192       0.000348
     16 H                     0.016389      -0.008403
     17 H                     0.208963       0.003830
     18 H                     0.175307      -0.002228
     19 H                     0.211206       0.003768
     20 H                     0.192943      -0.001976
     21 H                     0.203981       0.002880
     22 H                     0.203569       0.002961
     23 H                     0.192086       0.000854
     24 H                     0.054197       0.010249
     25 H                     0.115464       0.000027
     26 H                     0.230465      -0.000659
     27 H                     0.181969      -0.000079
     28 H                     0.214391      -0.000027
     29 H                     0.260762      -0.000071
     30 H                     0.212353      -0.000030
     31 H                     0.194543      -0.000016
  --------------------------------------------------------
  Sum of atomic charges =    -1.000000

                    Cartesian Multipole Moments
 -----------------------------------------------------------------
    Charge (ESU x 10^10)
                -4.8032
    Dipole Moment (Debye)
         X      -3.7898      Y      -0.6914      Z       0.1351
       Tot       3.8547
    Quadrupole Moments (Debye-Ang)
        XX    -100.2123     XY       3.1980     YY    -129.3863
        XZ       0.3134     YZ      12.0896     ZZ     -99.3841

 Total job time:  748.20s(wall), 5761.65s(cpu)
        *  Thank you very much for using Q-Chem.  Have a nice day.  *
