 Q-Chem 5.4, Q-Chem, Inc., Pleasanton, CA (2021)
 Q-Chem 5.4.0 for Intel X86 EM64T Linux

User input:
--------------------------------------------------------------
$molecule
-2 1
C                 -1.6023750000      3.4042230000     -0.3784800000
C                 -2.6045690000      3.4804420000      0.5683820000
C                 -2.6284230000      2.5643940000      1.6497970000
C                 -0.5808840000      2.4228170000     -0.2996140000
C                 -0.6030430000      1.4904650000      0.8007000000
C                 -1.6397350000      1.5970340000      1.7467650000
C                  0.4536610000      2.3516610000     -1.2854810000
C                  1.4279350000      1.3217240000     -1.0989580000
C                  1.4467410000      0.3983790000     -0.0541460000
C                  0.4169040000      0.4452610000      0.9575950000
O                  0.5840770000      3.1301940000     -2.3180680000
O                  0.3797710000     -0.3679910000      1.9400640000
O                  2.3859940000      1.3233010000     -2.0887990000
C                  2.5226660000     -0.6616990000      0.0702010000
C                  2.5364890000     -1.6681630000     -1.1172290000
C                  3.9438450000     -0.0991640000      0.2746510000
C                  4.9474470000     -1.2118640000      0.6551810000
C                  4.6642920000     -2.5811890000     -0.0292660000
C                  3.9178230000     -2.3229580000     -1.3502630000
C                  5.9538350000     -3.4305380000     -0.1812480000
C                  5.7064860000     -4.8133870000     -0.8216630000
C                  6.6843680000     -3.6257730000      1.1656800000
C                  7.9710780000     -4.4547720000      1.0357090000
C                  7.7093870000     -5.8162430000      0.3851490000
C                  6.9890450000     -5.6490240000     -0.9556990000
H                 -1.5640600000      4.0946470000     -1.2151250000
H                 -3.3763470000      4.2432070000      0.4849300000
H                 -3.4160990000      2.6215960000      2.3974660000
H                 -1.6295810000      0.8814180000      2.5627630000
H                  2.0612450000      2.0840540000     -2.6339140000
H                  2.2601760000     -1.2110760000      0.9799730000
H                  2.2303070000     -1.1589070000     -2.0333840000
H                  1.7909660000     -2.4474530000     -0.9180520000
H                  3.9239880000      0.6602160000      1.0625800000
H                  4.2630560000      0.4118690000     -0.6381620000
H                  4.9424910000     -1.3470270000      1.7421880000
H                  5.9631610000     -0.8850330000      0.3909730000
H                  3.9829160000     -3.1498590000      0.6209560000
H                  3.7827480000     -3.2482450000     -1.9189950000
H                  4.5367980000     -1.6665270000     -1.9768090000
H                  6.6335060000     -2.8743250000     -0.8477400000
H                  5.2485110000     -4.6994180000     -1.8081740000
H                  4.9797610000     -5.3613310000     -0.2048910000
H                  5.9996910000     -4.1285790000      1.8637250000
H                  6.9203760000     -2.6559420000      1.6121640000
H                  8.4380210000     -4.5872910000      2.0205100000
H                  8.6978940000     -3.8998660000      0.4264010000
H                  7.0829170000     -6.4202770000      1.0564230000
H                  8.6454280000     -6.3751530000      0.2579230000
H                  6.7585210000     -6.6310680000     -1.3889830000
H                  7.6668830000     -5.1553700000     -1.6659480000
$end

$rem
BASIS  =  6-311++G(d,p)
GUI  =  2
JOB_TYPE  =  SP
METHOD  =  B3LYP
SCF_CONVERGENCE  = 8
SOLVENT_METHOD = sm12
$end

$smx
solvent dimethylformamide
charges CM5
$end

--------------------------------------------------------------

             Standard Nuclear Orientation (Angstroms)
    I     Atom           X                Y                Z
 ----------------------------------------------------------------
    1      C      -1.6023750000     3.4042230000    -0.3784800000
    2      C      -2.6045690000     3.4804420000     0.5683820000
    3      C      -2.6284230000     2.5643940000     1.6497970000
    4      C      -0.5808840000     2.4228170000    -0.2996140000
    5      C      -0.6030430000     1.4904650000     0.8007000000
    6      C      -1.6397350000     1.5970340000     1.7467650000
    7      C       0.4536610000     2.3516610000    -1.2854810000
    8      C       1.4279350000     1.3217240000    -1.0989580000
    9      C       1.4467410000     0.3983790000    -0.0541460000
   10      C       0.4169040000     0.4452610000     0.9575950000
   11      O       0.5840770000     3.1301940000    -2.3180680000
   12      O       0.3797710000    -0.3679910000     1.9400640000
   13      O       2.3859940000     1.3233010000    -2.0887990000
   14      C       2.5226660000    -0.6616990000     0.0702010000
   15      C       2.5364890000    -1.6681630000    -1.1172290000
   16      C       3.9438450000    -0.0991640000     0.2746510000
   17      C       4.9474470000    -1.2118640000     0.6551810000
   18      C       4.6642920000    -2.5811890000    -0.0292660000
   19      C       3.9178230000    -2.3229580000    -1.3502630000
   20      C       5.9538350000    -3.4305380000    -0.1812480000
   21      C       5.7064860000    -4.8133870000    -0.8216630000
   22      C       6.6843680000    -3.6257730000     1.1656800000
   23      C       7.9710780000    -4.4547720000     1.0357090000
   24      C       7.7093870000    -5.8162430000     0.3851490000
   25      C       6.9890450000    -5.6490240000    -0.9556990000
   26      H      -1.5640600000     4.0946470000    -1.2151250000
   27      H      -3.3763470000     4.2432070000     0.4849300000
   28      H      -3.4160990000     2.6215960000     2.3974660000
   29      H      -1.6295810000     0.8814180000     2.5627630000
   30      H       2.0612450000     2.0840540000    -2.6339140000
   31      H       2.2601760000    -1.2110760000     0.9799730000
   32      H       2.2303070000    -1.1589070000    -2.0333840000
   33      H       1.7909660000    -2.4474530000    -0.9180520000
   34      H       3.9239880000     0.6602160000     1.0625800000
   35      H       4.2630560000     0.4118690000    -0.6381620000
   36      H       4.9424910000    -1.3470270000     1.7421880000
   37      H       5.9631610000    -0.8850330000     0.3909730000
   38      H       3.9829160000    -3.1498590000     0.6209560000
   39      H       3.7827480000    -3.2482450000    -1.9189950000
   40      H       4.5367980000    -1.6665270000    -1.9768090000
   41      H       6.6335060000    -2.8743250000    -0.8477400000
   42      H       5.2485110000    -4.6994180000    -1.8081740000
   43      H       4.9797610000    -5.3613310000    -0.2048910000
   44      H       5.9996910000    -4.1285790000     1.8637250000
   45      H       6.9203760000    -2.6559420000     1.6121640000
   46      H       8.4380210000    -4.5872910000     2.0205100000
   47      H       8.6978940000    -3.8998660000     0.4264010000
   48      H       7.0829170000    -6.4202770000     1.0564230000
   49      H       8.6454280000    -6.3751530000     0.2579230000
   50      H       6.7585210000    -6.6310680000    -1.3889830000
   51      H       7.6668830000    -5.1553700000    -1.6659480000
 ----------------------------------------------------------------

   18   -1079.9542868646      5.80e-09  Convergence criterion met
 Total energy in the final basis set =    -1080.2375014030

                    Orbital Energies (a.u.)
 --------------------------------------------------------------

 Alpha MOs
 -- Occupied --
-19.1153 -19.0278 -19.0210 -10.1854 -10.1822 -10.1712 -10.1702 -10.1700
-10.1684 -10.1646 -10.1643 -10.1642 -10.1640 -10.1637 -10.1637 -10.1632
-10.1627 -10.1617 -10.1610 -10.1573 -10.1564 -10.1562 -10.1461 -10.1434
-10.1325  -1.0293  -0.9436  -0.9325  -0.8446  -0.8387  -0.8209  -0.7808
 -0.7592  -0.7427  -0.7377  -0.7330  -0.7261  -0.6932  -0.6457  -0.6254
 -0.6200  -0.5993  -0.5975  -0.5901  -0.5708  -0.5541  -0.5476  -0.5296
 -0.5101  -0.4886  -0.4821  -0.4781  -0.4536  -0.4474  -0.4438  -0.4371
 -0.4354  -0.4336  -0.4217  -0.4180  -0.4153  -0.4025  -0.3940  -0.3872
 -0.3810  -0.3789  -0.3705  -0.3675  -0.3624  -0.3617  -0.3598  -0.3572
 -0.3474  -0.3448  -0.3408  -0.3354  -0.3311  -0.3237  -0.3187  -0.3168
 -0.3089  -0.3058  -0.3011  -0.2920  -0.2872  -0.2825  -0.2445  -0.2320
 -0.2143  -0.1985  -0.1969  -0.1119

          Ground-State Mulliken Net Atomic Charges

     Atom                 Charge (a.u.)
  ----------------------------------------
      1 C                    -0.336950
      2 C                     0.817513
      3 C                     0.659326
      4 C                    -2.388875
      5 C                    -1.526500
      6 C                    -0.612496
      7 C                    -1.457133
      8 C                    -0.397244
      9 C                     0.852143
     10 C                    -3.100443
     11 O                    -0.429047
     12 O                    -0.282068
     13 O                     0.048137
     14 C                     0.339947
     15 C                    -0.860740
     16 C                    -3.361942
     17 C                     1.102148
     18 C                     1.768353
     19 C                    -0.315559
     20 C                     0.271243
     21 C                     0.451643
     22 C                     0.875653
     23 C                     0.940723
     24 C                     0.136048
     25 C                     0.524565
     26 H                     0.105903
     27 H                     0.369413
     28 H                     0.336426
     29 H                     0.084178
     30 H                     0.332951
     31 H                     0.035289
     32 H                    -0.052977
     33 H                     0.113767
     34 H                     0.033882
     35 H                     0.007537
     36 H                     0.137510
     37 H                     0.314657
     38 H                    -0.003666
     39 H                     0.335737
     40 H                     0.165996
     41 H                     0.093888
     42 H                     0.154077
     43 H                     0.100682
     44 H                     0.078988
     45 H                     0.250344
     46 H                     0.266799
     47 H                     0.178298
     48 H                     0.126945
     49 H                     0.292788
     50 H                     0.272096
     51 H                     0.150050
  ----------------------------------------
  Sum of atomic charges =    -2.000000

                    Cartesian Multipole Moments
 -----------------------------------------------------------------
    Charge (ESU x 10^10)
                -9.6064
    Dipole Moment (Debye)
         X      -2.2282      Y     -14.2047      Z       0.4422
       Tot      14.3852
    Quadrupole Moments (Debye-Ang)
        XX    -195.2947     XY      12.0839     YY    -217.4011
        XZ       9.6076     YZ      17.7930     ZZ    -197.8705

 Total job time:  3603.69s(wall), 24671.91s(cpu)
        *  Thank you very much for using Q-Chem.  Have a nice day.  *
