 Gaussian 16, Revision A.03,
 Gaussian 16:  ES64L-G16RevA.03 25-Dec-2016

 ----------------------------------------------------------------------
 #P UB3LYP/6-311++G(d,p) nosym opt freq SCRF=(PCM,Solvent=n,n-DiMethylF
 ormamide)
 ----------------------------------------------------------------------

 -------
 Reduced
 -------
 Symbolic Z-matrix:
 Charge = -2 Multiplicity = 1

 SCF Done:  E(UB3LYP) =  -1451.60296531     A.U. after   16 cycles
 SCF Done:  E(UB3LYP) =  -1451.60359504     A.U. after   12 cycles
 SCF Done:  E(UB3LYP) =  -1451.60374488     A.U. after   13 cycles
 SCF Done:  E(UB3LYP) =  -1451.60375986     A.U. after   11 cycles
 SCF Done:  E(UB3LYP) =  -1451.60376122     A.U. after   10 cycles
 SCF Done:  E(UB3LYP) =  -1451.60376167     A.U. after   10 cycles
 Optimization completed.
    -- Stationary point found.
 Normal termination of Gaussian 16 at Sat Feb 10 12:54:02 2024.

 ----------------------------------------------------------------------
 #P Geom=AllCheck Guess=TCheck SCRF=Check GenChk UB3LYP/6-311++G(d,p) F
 req
 ----------------------------------------------------------------------

 Structure from the checkpoint file:  "112-an.chk"
 -------
 Reduced
 -------
 Charge = -2 Multiplicity = 1

                          Input orientation:
 ---------------------------------------------------------------------
 Center     Atomic      Atomic             Coordinates (Angstroms)
 Number     Number       Type             X           Y           Z
 ---------------------------------------------------------------------
      1          8           0        2.553478   -1.010813   -0.255061
      2          6           0        1.289907   -0.473987   -0.125946
      3          6           0        1.057052    0.893794   -0.002423
      4         17           0        2.444623    2.007906   -0.009957
      5          6           0       -0.243247    1.436798    0.129498
      6          8           0       -0.573608    2.701666    0.251203
      7          6           0       -1.289926    0.473975    0.125937
      8          6           0       -1.057065   -0.893792    0.002431
      9         17           0       -2.444625   -2.007920    0.010018
     10          6           0        0.243250   -1.436802   -0.129523
     11          8           0        0.573583   -2.701681   -0.251132
     12          8           0       -2.553471    1.010831    0.255049
     13          1           0        2.334879   -1.969635   -0.314450
     14          1           0       -2.334829    1.969661    0.314354
 ---------------------------------------------------------------------

 SCF Done:  E(UB3LYP) =  -1451.60376167     A.U. after    2 cycles

 Alpha  occ. eigenvalues -- -101.53397-101.53397 -19.12153 -19.12153 -19.03609
 Alpha  occ. eigenvalues --  -19.03608 -10.19308 -10.19306 -10.19119 -10.19117
 Alpha  occ. eigenvalues --  -10.18629 -10.18628  -9.44833  -9.44832  -7.21242
 Alpha  occ. eigenvalues --   -7.21242  -7.20357  -7.20357  -7.20309  -7.20309
 Alpha  occ. eigenvalues --   -1.03539  -1.03350  -0.93836  -0.93756  -0.84835
 Alpha  occ. eigenvalues --   -0.83815  -0.77541  -0.68514  -0.66065  -0.57644
 Alpha  occ. eigenvalues --   -0.55673  -0.52402  -0.47594  -0.46574  -0.43080
 Alpha  occ. eigenvalues --   -0.41622  -0.41493  -0.37743  -0.37556  -0.37271
 Alpha  occ. eigenvalues --   -0.35657  -0.34959  -0.33078  -0.32742  -0.30244
 Alpha  occ. eigenvalues --   -0.29959  -0.29718  -0.29587  -0.22884  -0.22773
 Alpha  occ. eigenvalues --   -0.22226  -0.19282  -0.12932
 Alpha virt. eigenvalues --   -0.00608   0.01669   0.01882   0.03193   0.03212
 Alpha virt. eigenvalues --    0.04994   0.05294   0.05575   0.05941   0.06985
 Alpha virt. eigenvalues --    0.07028   0.07431   0.08569   0.08836   0.09744

  Beta  occ. eigenvalues -- -101.53397-101.53397 -19.12153 -19.12153 -19.03609
  Beta  occ. eigenvalues --  -19.03608 -10.19308 -10.19306 -10.19119 -10.19117
  Beta  occ. eigenvalues --  -10.18629 -10.18628  -9.44833  -9.44832  -7.21242
  Beta  occ. eigenvalues --   -7.21242  -7.20357  -7.20357  -7.20309  -7.20309
  Beta  occ. eigenvalues --   -1.03539  -1.03350  -0.93836  -0.93756  -0.84835
  Beta  occ. eigenvalues --   -0.83815  -0.77541  -0.68514  -0.66065  -0.57644
  Beta  occ. eigenvalues --   -0.55673  -0.52402  -0.47594  -0.46574  -0.43080
  Beta  occ. eigenvalues --   -0.41622  -0.41493  -0.37743  -0.37556  -0.37271
  Beta  occ. eigenvalues --   -0.35657  -0.34959  -0.33078  -0.32742  -0.30244
  Beta  occ. eigenvalues --   -0.29959  -0.29718  -0.29587  -0.22884  -0.22773
  Beta  occ. eigenvalues --   -0.22226  -0.19282  -0.12932
  Beta virt. eigenvalues --   -0.00608   0.01669   0.01882   0.03193   0.03212
  Beta virt. eigenvalues --    0.04994   0.05294   0.05575   0.05941   0.06985
  Beta virt. eigenvalues --    0.07028   0.07431   0.08569   0.08836   0.09744

 Mulliken charges and spin densities:
               1          2
     1  O   -0.303422   0.000000
     2  C   -1.495050  -0.000000
     3  C    2.185599   0.000000
     4  Cl   0.071813  -0.000000
     5  C   -1.053808  -0.000000
     6  O   -0.683185  -0.000000
     7  C   -1.495067   0.000000
     8  C    2.185570  -0.000000
     9  Cl   0.071817   0.000000
    10  C   -1.053701  -0.000000
    11  O   -0.683190  -0.000000
    12  O   -0.303420  -0.000000
    13  H    0.278021   0.000000
    14  H    0.278023   0.000000
 Sum of Mulliken charges =  -2.00000  -0.00000

 Dipole moment (field-independent basis, Debye):
    X=              0.0001    Y=              0.0001    Z=             -0.0004  Tot=              0.0004
 Quadrupole moment (field-independent basis, Debye-Ang):
   XX=           -118.1310   YY=           -142.3711   ZZ=            -89.9704
   XY=             -1.7732   XZ=              1.8302   YZ=             -4.0278

  Exact polarizability: 212.242  10.290 228.434  -7.060   9.562  98.678
 Approx polarizability: 236.496   1.387 258.033  -8.826  11.804 107.932

                      1                      2                      3
                      A                      A                      A
 Frequencies --     86.3975               146.4896               156.2610
 Red. masses --     20.5348                14.0940                15.5966
 Frc consts  --      0.0903                 0.1782                 0.2244
 IR Inten    --      4.1774                 6.9884                 0.0000

                      4                      5                      6
                      A                      A                      A
 Frequencies --    188.2692               198.9177               215.5931
 Red. masses --      8.7514                20.3604                13.6597
 Frc consts  --      0.1828                 0.4747                 0.3741
 IR Inten    --      1.7165                 4.8284                 0.0000

                      7                      8                      9
                      A                      A                      A
 Frequencies --    286.1769               288.7379               299.6942
 Red. masses --     11.6883                 8.9311                 5.9131
 Frc consts  --      0.5640                 0.4387                 0.3129
 IR Inten    --      0.0000                 0.0000                46.6591

                     10                     11                     12
                      A                      A                      A
 Frequencies --    330.9372               344.7713               358.8137
 Red. masses --     13.2950                10.3998                11.9609
 Frc consts  --      0.8579                 0.7283                 0.9073
 IR Inten    --     33.5889                 0.0000                 0.0000

                     13                     14                     15
                      A                      A                      A
 Frequencies --    466.5660               508.9447               528.2205
 Red. masses --     12.2203                16.2688                12.0277
 Frc consts  --      1.5673                 2.4828                 1.9773
 IR Inten    --      0.0000                 2.8921                 0.0000

                     16                     17                     18
                      A                      A                      A
 Frequencies --    552.7508               666.9415               674.7997
 Red. masses --      5.3682                 1.0949                 1.3565
 Frc consts  --      0.9664                 0.2870                 0.3639
 IR Inten    --     16.8992                 0.0148               231.7308

                     19                     20                     21
                      A                      A                      A
 Frequencies --    696.1157               729.8783               767.9944
 Red. masses --      5.8494                12.0610                 8.1287
 Frc consts  --      1.6700                 3.7856                 2.8248
 IR Inten    --     47.7310                 0.0000                 0.0000

                     22                     23                     24
                      A                      A                      A
 Frequencies --    788.0933               894.4850               984.6371
 Red. masses --     10.3570                12.8432                11.6200
 Frc consts  --      3.7900                 6.0544                 6.6376
 IR Inten    --    431.8513                 0.0000               911.6250

                     25                     26                     27
                      A                      A                      A
 Frequencies --   1137.8105              1158.1360              1192.8640
 Red. masses --     10.8562                 4.5276                 8.9891
 Frc consts  --      8.2807                 3.5779                 7.5361
 IR Inten    --      0.0000               241.3444               371.8633

                     28                     29                     30
                      A                      A                      A
 Frequencies --   1297.3483              1370.0503              1420.8701
 Red. masses --      1.7149                 2.2314                 9.1449
 Frc consts  --      1.7006                 2.4677                10.8778
 IR Inten    --      0.0001               598.6905              1653.1767

                     31                     32                     33
                      A                      A                      A
 Frequencies --   1427.1385              1515.5753              1527.0229
 Red. masses --      7.1143                 3.4459                 4.5294
 Frc consts  --      8.5372                 4.6635                 6.2227
 IR Inten    --      0.0028                86.4943                 0.0002

                     34                     35                     36
                      A                      A                      A
 Frequencies --   1634.9338              3429.7169              3432.4927
 Red. masses --      7.4350                 1.0639                 1.0639
 Frc consts  --     11.7093                 7.3735                 7.3856
 IR Inten    --      0.0000               572.6088                 0.6007

 - Thermochemistry -
 -------------------
 Temperature   298.150 Kelvin.  Pressure   1.00000 Atm.
 Atom     1 has atomic number  8 and mass  15.99491

 Molecular mass:   207.93301 amu.
 Principal axes and moments of inertia in atomic units:
                           1         2         3
     Eigenvalues --  1686.178603139.736744825.91525
           X            0.77780  -0.62479   0.06828
           Y            0.62849   0.77388  -0.07811
           Z           -0.00404   0.10367   0.99460
 This molecule is an asymmetric top.
 Rotational symmetry number  1.
 Warning -- assumption of classical behavior for rotation
           may cause significant error
 Rotational temperatures (Kelvin)      0.05137     0.02759     0.01795
 Rotational constants (GHZ):           1.07031     0.57481     0.37397
 Zero-point vibrational energy     189634.7 (Joules/Mol)
                                   45.32378 (Kcal/Mol)
 Warning -- explicit consideration of  16 degrees of freedom as
           vibrations may cause significant error
 Vibrational temperatures:    124.31   210.77   224.82   270.88   286.20
          (Kelvin)            310.19   411.74   415.43   431.19   476.14
                              496.05   516.25   671.28   732.26   759.99
                              795.29   959.58   970.89  1001.56  1050.13
                             1104.97  1133.89  1286.96  1416.67  1637.06
                             1666.30  1716.27  1866.59  1971.20  2044.32
                             2053.33  2180.57  2197.05  2352.31  4934.60
                             4938.59

 Zero-point correction=                           0.072228 (Hartree/Particle)
 Thermal correction to Energy=                    0.082869
 Thermal correction to Enthalpy=                  0.083813
 Thermal correction to Gibbs Free Energy=         0.035517
 Sum of electronic and zero-point Energies=          -1451.531534
 Sum of electronic and thermal Energies=             -1451.520893
 Sum of electronic and thermal Enthalpies=           -1451.519948
 Sum of electronic and thermal Free Energies=        -1451.568245

                     E (Thermal)             CV                S
                      KCal/Mol        Cal/Mol-Kelvin    Cal/Mol-Kelvin
 Total                   52.001             38.937            101.648
 Electronic               0.000              0.000              0.000
 Translational            0.889              2.981             41.900
 Rotational               0.889              2.981             31.613
 Vibrational             50.224             32.975             28.134
 Vibration     1          0.601              1.959              3.740
 Vibration     2          0.617              1.906              2.717
 Vibration     3          0.620              1.896              2.595
 Vibration     4          0.633              1.856              2.245
 Vibration     5          0.637              1.841              2.143
 Vibration     6          0.645              1.817              1.996
 Vibration     7          0.684              1.699              1.496
 Vibration     8          0.685              1.695              1.481
 Vibration     9          0.692              1.674              1.419
 Vibration    10          0.713              1.614              1.256
 Vibration    11          0.723              1.586              1.190
 Vibration    12          0.734              1.557              1.127
 Vibration    13          0.824              1.324              0.747
 Vibration    14          0.864              1.230              0.636
 Vibration    15          0.883              1.188              0.591
 Vibration    16          0.908              1.134              0.539

 Optimization completed.
    -- Stationary point found.
 Normal termination of Gaussian 16 at Sat Feb 10 13:02:27 2024.
