 Q-Chem 5.4, Q-Chem, Inc., Pleasanton, CA (2021)
 Q-Chem 5.4.0 for Intel X86 EM64T Linux

User input:
--------------------------------------------------------------
$molecule
-2 1
N                 -3.3657440000     -0.8787750000      0.0743180000
C                 -2.0651630000     -0.2862540000      0.0913590000
C                 -1.8956470000      1.0726470000      0.3957700000
C                 -0.6334460000      1.7274930000      0.4231190000
O                 -0.4822920000      2.9763120000      0.6961430000
C                  0.4992480000      0.8548800000      0.0934020000
C                  1.8070960000      1.3799570000      0.0742830000
C                  2.9173020000      0.5990400000     -0.2101490000
C                  2.7413680000     -0.7817540000     -0.4847870000
C                  1.4717210000     -1.3281960000     -0.4813990000
C                  0.3143070000     -0.5491780000     -0.2168690000
C                 -0.9895670000     -1.1676500000     -0.2191860000
O                 -1.2002670000     -2.4335660000     -0.4513690000
H                 -3.8823630000     -0.6695110000      0.9274650000
H                 -3.2016850000     -1.8863900000      0.0048550000
H                 -2.7751060000      1.6855900000      0.5951000000
H                  1.9052630000      2.4386860000      0.2976060000
H                  3.9152910000      1.0351770000     -0.2177280000
H                  3.6074680000     -1.4061300000     -0.7040190000
H                  1.3122180000     -2.3823790000     -0.6879140000
$end
$rem
MAX_SCF_CYCLES=200
BASIS  =  6-311++G(d,p)
GUI  =  2
JOB_TYPE  =  SP
METHOD  =  B3LYP
SOLVENT_METHOD = COSMO
$end
$solvent
dielectric 37.219
opticaldielectric 1.43
$end

--------------------------------------------------------------

             Standard Nuclear Orientation (Angstroms)
    I     Atom           X                Y                Z
 ----------------------------------------------------------------
    1      N       3.3653617320    -0.2905689702     0.0595875002
    2      C       1.9751790008     0.0405341143     0.0341869148
    3      C       1.5525727865     1.3781019097     0.0160199272
    4      C       0.1878918898     1.7781663894    -0.0017867597
    5      O      -0.1963662819     3.0066575500    -0.0114644058
    6      C      -0.7623246446     0.6600705285     0.0088259215
    7      C      -2.1481445499     0.9169910385     0.0030966200
    8      C      -3.0922079240    -0.0988400708    -0.0079391854
    9      C      -2.6570697455    -1.4491758011    -0.0227396880
   10      C      -1.3052138199    -1.7371823659    -0.0104263706
   11      C      -0.3158450434    -0.7191540150     0.0245026077
   12      C       1.0837183186    -1.0709904307     0.0303270041
   13      O       1.5321354613    -2.2953350549     0.0029580110
   14      H       3.8799886494     0.2034352580    -0.6681936311
   15      H       3.4050933437    -1.2990109614    -0.1092159401
   16      H       2.2999809189     2.1713167280     0.0487466518
   17      H      -2.4451114507     1.9620840748     0.0059641613
   18      H      -4.1564577478     0.1327095488    -0.0114111191
   19      H      -3.3903204041    -2.2555075808    -0.0372242299
   20      H      -0.9481964794    -2.7627520185    -0.0221291851
 ----------------------------------------------------------------

   13    -590.6098820386      7.26e-06  Convergence criterion met
 Total energy in the final basis set =     -590.6098820386
    6    -590.9046492680      3.31e-06  Convergence criterion met
 Total energy in the final basis set =     -590.9046492680

                    Orbital Energies (a.u.)
 --------------------------------------------------------------

 Alpha MOs
 -- Occupied --
-19.0258 -19.0231 -14.2829 -10.1786 -10.1655 -10.1593 -10.1502 -10.1470
-10.1464 -10.1450 -10.1403 -10.1375 -10.1199  -0.9429  -0.9375  -0.8669
 -0.8248  -0.7558  -0.7229  -0.6950  -0.6387  -0.5864  -0.5739  -0.5284
 -0.4959  -0.4754  -0.4483  -0.4371  -0.4095  -0.4022  -0.3922  -0.3791
 -0.3732  -0.3672  -0.3485  -0.3330  -0.3236  -0.3207  -0.3052  -0.2797
 -0.2314  -0.2272  -0.2096  -0.2032  -0.1948  -0.1143

          Ground-State Mulliken Net Atomic Charges

     Atom                 Charge (a.u.)
  ----------------------------------------
      1 N                    -0.488912
      2 C                     0.048153
      3 C                     0.266173
      4 C                    -0.491141
      5 O                    -0.742724
      6 C                     0.192273
      7 C                     0.078984
      8 C                    -0.466266
      9 C                    -0.432026
     10 C                    -0.017027
     11 C                     0.184105
     12 C                    -0.706519
     13 O                    -0.778341
     14 H                     0.258629
     15 H                     0.276512
     16 H                     0.152704
     17 H                     0.152527
     18 H                     0.177512
     19 H                     0.181487
     20 H                     0.153896
  ----------------------------------------
  Sum of atomic charges =    -2.000000

                    Cartesian Multipole Moments
 -----------------------------------------------------------------
    Charge (ESU x 10^10)
                -9.6064
    Dipole Moment (Debye)
         X      -4.1378      Y      -2.8990      Z      -1.6851
       Tot       5.3259
    Quadrupole Moments (Debye-Ang)
        XX     -99.3913     XY      13.1498     YY    -138.3483
        XZ      -6.8263     YZ       0.2433     ZZ     -87.4579

 Total job time:  35.98s(wall), 257.58s(cpu)
        *  Thank you very much for using Q-Chem.  Have a nice day.  *
