 Gaussian 16, Revision A.03,
 Gaussian 16:  ES64L-G16RevA.03 25-Dec-2016

 ----------------------------------------------------------------
 #P UB3LYP/6-311++G(d,p) SCRF=(PCM,Solvent=n,n-DiMethylFormamide)
 ----------------------------------------------------------------

 ------------------
 Radical PCM in DMF
 ------------------
 Symbolic Z-matrix:
 Charge = -1 Multiplicity = 2

                         Standard orientation:
 ---------------------------------------------------------------------
 Center     Atomic      Atomic             Coordinates (Angstroms)
 Number     Number       Type             X           Y           Z
 ---------------------------------------------------------------------
      1         17           0        2.726768   -2.411899   -0.138635
      2          6           0        2.526986   -0.654315   -0.032657
      3          6           0        3.700460    0.069287   -0.132894
      4          6           0        3.663532    1.475091   -0.124445
      5          6           0        2.452045    2.123590   -0.048083
      6          6           0        1.245011    1.399161    0.038784
      7          6           0        0.000029    2.162569    0.080285
      8          8           0       -0.000081    3.419827    0.108549
      9          6           0       -1.244953    1.399164    0.038404
     10          6           0       -2.451890    2.123676   -0.049112
     11          6           0       -3.663372    1.475161   -0.125432
     12          6           0       -3.700389    0.069379   -0.133100
     13          6           0       -2.526987   -0.654319   -0.032322
     14         17           0       -2.726926   -2.411828   -0.137580
     15          6           0       -1.255010   -0.032528    0.079364
     16          6           0       -0.000002   -0.783751    0.285300
     17          8           0        0.000007   -1.969023    0.656697
     18          6           0        1.255008   -0.032610    0.079239
     19          1           0        4.640349   -0.459804   -0.228831
     20          1           0        4.590347    2.035518   -0.194759
     21          1           0        2.377958    3.203982   -0.058057
     22          1           0       -2.377712    3.204064   -0.059492
     23          1           0       -4.590182    2.035546   -0.196272
     24          1           0       -4.640302   -0.459703   -0.228888
 ---------------------------------------------------------------------

 SCF Done:  E(UB3LYP) =  -1608.32075337     A.U. after   21 cycles

 The electronic state is 2-A.
 Alpha  occ. eigenvalues -- -101.54813-101.54813 -19.08156 -19.07899 -10.24013
 Alpha  occ. eigenvalues --  -10.24013 -10.24001 -10.22797 -10.19245 -10.19244
 Alpha  occ. eigenvalues --  -10.18330 -10.18330 -10.18261 -10.18260 -10.18074
 Alpha  occ. eigenvalues --  -10.18073 -10.17473 -10.17473  -9.46295  -9.46295
 Alpha  occ. eigenvalues --   -7.22747  -7.22747  -7.21814  -7.21813  -7.21713
 Alpha  occ. eigenvalues --   -7.21712  -1.01791  -1.00632  -0.89003  -0.88836
 Alpha  occ. eigenvalues --   -0.84242  -0.83330  -0.79324  -0.75180  -0.74336
 Alpha  occ. eigenvalues --   -0.73746  -0.67424  -0.64536  -0.63134  -0.58452
 Alpha  occ. eigenvalues --   -0.55995  -0.54186  -0.53169  -0.48230  -0.47744
 Alpha  occ. eigenvalues --   -0.47163  -0.46958  -0.43566  -0.43460  -0.43447
 Alpha  occ. eigenvalues --   -0.42732  -0.41987  -0.41291  -0.39509  -0.39147
 Alpha  occ. eigenvalues --   -0.38701  -0.36765  -0.36581  -0.35935  -0.34997
 Alpha  occ. eigenvalues --   -0.33507  -0.32750  -0.32203  -0.30910  -0.27536
 Alpha  occ. eigenvalues --   -0.25919  -0.25313  -0.25308  -0.24863  -0.23371
 Alpha  occ. eigenvalues --   -0.14539
 Alpha virt. eigenvalues --   -0.06244  -0.03167  -0.01414  -0.00207   0.00510
 Alpha virt. eigenvalues --    0.00512   0.01409   0.01790   0.02873   0.03030
 Alpha virt. eigenvalues --    0.03891   0.04401   0.04613   0.04805   0.05274

  Beta  occ. eigenvalues -- -101.54812-101.54812 -19.07606 -19.07330 -10.24024
  Beta  occ. eigenvalues --  -10.24024 -10.23879 -10.22608 -10.19149 -10.19148
  Beta  occ. eigenvalues --  -10.18267 -10.18267 -10.18185 -10.18184 -10.18030
  Beta  occ. eigenvalues --  -10.18029 -10.17462 -10.17462  -9.46295  -9.46294
  Beta  occ. eigenvalues --   -7.22747  -7.22746  -7.21810  -7.21810  -7.21713
  Beta  occ. eigenvalues --   -7.21712  -1.00852  -0.99627  -0.88844  -0.88766
  Beta  occ. eigenvalues --   -0.84060  -0.83257  -0.78959  -0.74979  -0.74039
  Beta  occ. eigenvalues --   -0.73623  -0.66736  -0.64345  -0.62873  -0.58371
  Beta  occ. eigenvalues --   -0.55771  -0.53905  -0.53049  -0.48015  -0.47566
  Beta  occ. eigenvalues --   -0.46994  -0.46884  -0.43461  -0.43404  -0.42596
  Beta  occ. eigenvalues --   -0.42462  -0.41458  -0.40937  -0.39277  -0.38742
  Beta  occ. eigenvalues --   -0.37036  -0.36538  -0.35797  -0.35771  -0.34620
  Beta  occ. eigenvalues --   -0.33330  -0.32134  -0.32007  -0.30832  -0.25553
  Beta  occ. eigenvalues --   -0.25361  -0.24959  -0.24408  -0.24350  -0.22905
  Beta virt. eigenvalues --   -0.08686  -0.05276  -0.02060  -0.01185  -0.00192
  Beta virt. eigenvalues --    0.00511   0.00530   0.01414   0.01800   0.02872
  Beta virt. eigenvalues --    0.03089   0.04270   0.04451   0.05036   0.05274

 Mulliken charges and spin densities:
               1          2
     1  Cl   0.394113  -0.001125
     2  C    0.660156   0.005455
     3  C   -0.310641   0.044579
     4  C   -0.771082   0.032952
     5  C    0.316471   0.035510
     6  C    0.307753   0.022365
     7  C   -0.875095   0.097722
     8  O   -0.436726   0.213220
     9  C    0.307903   0.022368
    10  C    0.317478   0.035529
    11  C   -0.771448   0.032917
    12  C   -0.310344   0.044551
    13  C    0.660697   0.005432
    14  Cl   0.394143  -0.001122
    15  C    0.425204   0.086456
    16  C   -2.610449   0.055887
    17  O   -0.262895   0.197788
    18  C    0.426410   0.086500
    19  H    0.201596  -0.003839
    20  H    0.186780  -0.002733
    21  H    0.180794  -0.001921
    22  H    0.180813  -0.001922
    23  H    0.186766  -0.002731
    24  H    0.201604  -0.003837
 Sum of Mulliken charges =  -1.00000   1.00000

 Dipole moment (field-independent basis, Debye):
    X=             -0.0003    Y=              0.5830    Z=             -1.5530  Tot=              1.6589
 Quadrupole moment (field-independent basis, Debye-Ang):
   XX=           -114.7211   YY=           -159.0765   ZZ=           -124.3199
   XY=              0.0025   XZ=              0.0044   YZ=              1.6752

 Normal termination of Gaussian 16 at Sun Jan 14 01:10:53 2024.
