 Q-Chem 5.4, Q-Chem, Inc., Pleasanton, CA (2021)
 Q-Chem 5.4.0 for Intel X86 EM64T Linux

User input:
--------------------------------------------------------------
$molecule
-2 1
C                  5.9179770000     -5.2148140000      1.1094220000
C                  6.8205270000     -5.0827280000      0.0699430000
C                  6.6072130000     -4.0904430000     -0.9186540000
C                  4.7767520000     -4.3868180000      1.2237560000
C                  4.5604390000     -3.3805000000      0.2212260000
C                  5.4993450000     -3.2673490000     -0.8307720000
C                  3.8735510000     -4.5976940000      2.3585850000
C                  2.7784700000     -3.6967770000      2.3395940000
C                  2.5638050000     -2.6983100000      1.3448460000
C                  3.4152580000     -2.4659180000      0.2347750000
O                  4.0905620000     -5.5032290000      3.2389430000
O                  3.2465000000     -1.5769210000     -0.6725930000
H                  6.0467940000     -5.9626800000      1.8856770000
H                  5.3015210000     -2.4957420000     -1.5683050000
Br                 1.5301690000     -3.9192950000      3.8245980000
Br                 1.0129250000     -1.5147870000      1.4285710000
H                  7.6893950000     -5.7366660000      0.0112410000
H                  7.3111350000     -3.9770190000     -1.7418440000
$end

$rem
BASIS  =  6-311++G(d,p)
GUI  =  2
JOB_TYPE  =  SP
METHOD  =  B3LYP
SCF_CONVERGENCE  = 8
SOLVENT_METHOD = sm12
$end

$smx
solvent dimethylformamide
charges CM5
$end

--------------------------------------------------------------

             Standard Nuclear Orientation (Angstroms)
    I     Atom           X                Y                Z
 ----------------------------------------------------------------
    1      C       5.9179770000    -5.2148140000     1.1094220000
    2      C       6.8205270000    -5.0827280000     0.0699430000
    3      C       6.6072130000    -4.0904430000    -0.9186540000
    4      C       4.7767520000    -4.3868180000     1.2237560000
    5      C       4.5604390000    -3.3805000000     0.2212260000
    6      C       5.4993450000    -3.2673490000    -0.8307720000
    7      C       3.8735510000    -4.5976940000     2.3585850000
    8      C       2.7784700000    -3.6967770000     2.3395940000
    9      C       2.5638050000    -2.6983100000     1.3448460000
   10      C       3.4152580000    -2.4659180000     0.2347750000
   11      O       4.0905620000    -5.5032290000     3.2389430000
   12      O       3.2465000000    -1.5769210000    -0.6725930000
   13      H       6.0467940000    -5.9626800000     1.8856770000
   14      H       5.3015210000    -2.4957420000    -1.5683050000
   15      Br      1.5301690000    -3.9192950000     3.8245980000
   16      Br      1.0129250000    -1.5147870000     1.4285710000
   17      H       7.6893950000    -5.7366660000     0.0112410000
   18      H       7.3111350000    -3.9770190000    -1.7418440000
 ----------------------------------------------------------------

   17   -5682.3365325675      3.61e-09  Convergence criterion met
 Total energy in the final basis set =    -5682.6046003566

                    Orbital Energies (a.u.)
 --------------------------------------------------------------

 Alpha MOs
 -- Occupied --
********-482.8009 -62.4531 -62.4531 -56.2735 -56.2735 -56.2700 -56.2700
-56.2697 -56.2697 -19.0236 -19.0236 -10.1921 -10.1921 -10.1904 -10.1899
-10.1777 -10.1772 -10.1715 -10.1715 -10.1619 -10.1615  -8.6614  -8.6614
 -6.4921  -6.4921  -6.4806  -6.4806  -6.4795  -6.4795  -2.6031  -2.6030
 -2.5999  -2.5999  -2.5993  -2.5993  -2.5900  -2.5900  -2.5899  -2.5899
 -0.9464  -0.9426  -0.8489  -0.8145  -0.7599  -0.7598  -0.7462  -0.6967
 -0.6554  -0.5996  -0.5901  -0.5460  -0.4987  -0.4808  -0.4527  -0.4355
 -0.4241  -0.3957  -0.3888  -0.3854  -0.3645  -0.3613  -0.3471  -0.3342
 -0.3330  -0.3256  -0.2901  -0.2745  -0.2715  -0.2490  -0.2454  -0.2382
 -0.2150  -0.2047  -0.1990  -0.1249

          Ground-State Mulliken Net Atomic Charges

     Atom                 Charge (a.u.)
  ----------------------------------------
      1 C                    -0.150574
      2 C                     1.305337
      3 C                     1.305190
      4 C                    -1.737631
      5 C                    -1.738606
      6 C                    -0.153689
      7 C                    -2.224360
      8 C                     1.359214
      9 C                     1.352334
     10 C                    -2.216090
     11 O                    -0.295804
     12 O                    -0.296236
     13 H                     0.076430
     14 H                     0.076316
     15 Br                    0.277492
     16 Br                    0.278003
     17 H                     0.391330
     18 H                     0.391346
  ----------------------------------------
  Sum of atomic charges =    -2.000000

                    Cartesian Multipole Moments
 -----------------------------------------------------------------
    Charge (ESU x 10^10)
                -9.6064
    Dipole Moment (Debye)
         X     -33.5320      Y      33.4199      Z     -13.2827
       Tot      49.1703
    Quadrupole Moments (Debye-Ang)
        XX    -256.5255     XY     129.1398     YY    -262.7057
        XZ     -40.6142     YZ      68.1486     ZZ    -168.5507

 Total job time:  368.41s(wall), 2217.58s(cpu)
        *  Thank you very much for using Q-Chem.  Have a nice day.  *
