 Gaussian 16, Revision A.03,
 Gaussian 16:  ES64L-G16RevA.03 25-Dec-2016

 --------------------------------------
 #P UB3LYP/6-311++G(d,p) nosym opt freq
 --------------------------------------

 --------
 Oxidized
 --------
 Symbolic Z-matrix:
 Charge =  0 Multiplicity = 1

 SCF Done:  E(UB3LYP) =  -3414.71472612     A.U. after   18 cycles
 SCF Done:  E(UB3LYP) =  -3414.71915240     A.U. after   14 cycles
 SCF Done:  E(UB3LYP) =  -3414.71951346     A.U. after   13 cycles
 SCF Done:  E(UB3LYP) =  -3414.71954339     A.U. after   11 cycles
 SCF Done:  E(UB3LYP) =  -3414.71954345     A.U. after   10 cycles
 SCF Done:  E(UB3LYP) =  -3414.71954385     A.U. after   10 cycles
 Optimization completed.
    -- Stationary point found.
 Normal termination of Gaussian 16 at Sun Dec 17 21:00:00 2023.

 ----------------------------------------------------------------------
 #P Geom=AllCheck Guess=TCheck SCRF=Check GenChk UB3LYP/6-311++G(d,p) F
 req
 ----------------------------------------------------------------------

 Structure from the checkpoint file:  "008.chk"
 --------
 Oxidized
 --------
 Charge =  0 Multiplicity = 1

                          Input orientation:
 ---------------------------------------------------------------------
 Center     Atomic      Atomic             Coordinates (Angstroms)
 Number     Number       Type             X           Y           Z
 ---------------------------------------------------------------------
      1          6           0       -1.301024    2.039191    0.558125
      2          6           0       -2.616394    1.396354    0.217504
      3          6           0       -2.696549    0.163076   -0.298513
      4          6           0       -1.477511   -0.638211   -0.562066
      5          6           0       -0.166204   -0.034941   -0.237499
      6          6           0       -0.083302    1.198300    0.278544
      7          8           0       -1.555359   -1.760474   -1.031686
      8          1           0       -3.639920   -0.306857   -0.546555
      9          8           0       -1.219612    3.148992    1.023094
     10         17           0        1.437703    1.928948    0.667715
     11         35           0       -4.160430    2.438043    0.562796
     12          1           0        0.708912   -0.640050   -0.438788
 ---------------------------------------------------------------------

 SCF Done:  E(UB3LYP) =  -3414.71954385     A.U. after    1 cycles

 Alpha  occ. eigenvalues -- -482.86297-101.59008 -62.51564 -56.33617 -56.33221
 Alpha  occ. eigenvalues --  -56.33178 -19.17002 -19.15891 -10.32307 -10.30864
 Alpha  occ. eigenvalues --  -10.29353 -10.28653 -10.23858 -10.23770  -9.50452
 Alpha  occ. eigenvalues --   -8.72530  -7.26940  -7.25955  -7.25848  -6.55724
 Alpha  occ. eigenvalues --   -6.54397  -6.54272  -2.66810  -2.66451  -2.66356
 Alpha  occ. eigenvalues --   -2.65300  -2.65298  -1.10706  -1.08945  -0.92834
 Alpha  occ. eigenvalues --   -0.89191  -0.83200  -0.78316  -0.73159  -0.64971
 Alpha  occ. eigenvalues --   -0.63092  -0.56238  -0.53458  -0.50146  -0.48571
 Alpha  occ. eigenvalues --   -0.48251  -0.47328  -0.45618  -0.44466  -0.43242
 Alpha  occ. eigenvalues --   -0.39957  -0.36929  -0.35041  -0.32257  -0.31774
 Alpha  occ. eigenvalues --   -0.31372  -0.30086  -0.29584
 Alpha virt. eigenvalues --   -0.15910  -0.06149  -0.04510  -0.02518  -0.01191
 Alpha virt. eigenvalues --   -0.00434   0.00530   0.01843   0.03006   0.03099
 Alpha virt. eigenvalues --    0.05043   0.05509   0.05815   0.06924   0.06975

  Beta  occ. eigenvalues -- -482.86297-101.59008 -62.51564 -56.33617 -56.33221
  Beta  occ. eigenvalues --  -56.33178 -19.17002 -19.15891 -10.32307 -10.30864
  Beta  occ. eigenvalues --  -10.29353 -10.28653 -10.23858 -10.23770  -9.50452
  Beta  occ. eigenvalues --   -8.72530  -7.26940  -7.25955  -7.25848  -6.55724
  Beta  occ. eigenvalues --   -6.54397  -6.54272  -2.66810  -2.66451  -2.66356
  Beta  occ. eigenvalues --   -2.65300  -2.65298  -1.10706  -1.08945  -0.92834
  Beta  occ. eigenvalues --   -0.89191  -0.83200  -0.78316  -0.73159  -0.64971
  Beta  occ. eigenvalues --   -0.63092  -0.56238  -0.53458  -0.50146  -0.48571
  Beta  occ. eigenvalues --   -0.48251  -0.47328  -0.45618  -0.44466  -0.43242
  Beta  occ. eigenvalues --   -0.39957  -0.36929  -0.35041  -0.32257  -0.31774
  Beta  occ. eigenvalues --   -0.31372  -0.30086  -0.29584
  Beta virt. eigenvalues --   -0.15910  -0.06149  -0.04510  -0.02518  -0.01191
  Beta virt. eigenvalues --   -0.00434   0.00530   0.01843   0.03006   0.03099
  Beta virt. eigenvalues --    0.05043   0.05509   0.05815   0.06924   0.06975

 Mulliken charges and spin densities:
               1          2
     1  C   -1.463413   0.000000
     2  C    0.704455  -0.000000
     3  C    0.036559   0.000000
     4  C   -0.583942  -0.000000
     5  C   -0.328984   0.000000
     6  C    1.139432  -0.000000
     7  O   -0.219503  -0.000000
     8  H    0.270760  -0.000000
     9  O   -0.098808  -0.000000
    10  Cl   0.348161  -0.000000
    11  Br  -0.038773   0.000000
    12  H    0.234056  -0.000000
 Sum of Mulliken charges =  -0.00000   0.00000

 Dipole moment (field-independent basis, Debye):
    X=             -0.1669    Y=             -0.4831    Z=             -0.2099  Tot=              0.5525
 Quadrupole moment (field-independent basis, Debye-Ang):
   XX=            -70.1453   YY=            -89.2720   ZZ=            -77.4385
   XY=             -1.4977   XZ=             -0.3098   YZ=             -5.8898

  Exact polarizability: 124.764  -4.509 134.822   1.997  32.330  69.780
 Approx polarizability: 165.814   0.764 277.346   4.787  79.154 119.696

                      1                      2                      3
                      A                      A                      A
 Frequencies --     54.1746               126.6364               155.5751
 Red. masses --     17.4392                 9.9552                23.2867
 Frc consts  --      0.0302                 0.0941                 0.3321
 IR Inten    --      2.5051                 7.7353                 0.0340

                      4                      5                      6
                      A                      A                      A
 Frequencies --    167.9365               245.0392               273.1978
 Red. masses --      4.9379                17.0272                16.9704
 Frc consts  --      0.0821                 0.6024                 0.7463
 IR Inten    --      0.1522                 0.1134                 0.5985

                      7                      8                      9
                      A                      A                      A
 Frequencies --    300.1446               351.8976               441.2993
 Red. masses --      5.7794                18.3710                 8.3930
 Frc consts  --      0.3068                 1.3403                 0.9630
 IR Inten    --      0.2813                 1.4454                30.9535

                     10                     11                     12
                      A                      A                      A
 Frequencies --    442.3279               476.4823               624.8544
 Red. masses --      5.4905                13.2935                 5.7390
 Frc consts  --      0.6329                 1.7782                 1.3202
 IR Inten    --      0.0421                 0.4248                 1.5676

                     13                     14                     15
                      A                      A                      A
 Frequencies --    668.9800               740.9598               782.4556
 Red. masses --      3.9785                11.8197                 6.7881
 Frc consts  --      1.0491                 3.8234                 2.4486
 IR Inten    --      0.7834               106.9278                 2.9854

                     16                     17                     18
                      A                      A                      A
 Frequencies --    782.5445               876.9361               884.7178
 Red. masses --     10.6453                 4.6549                 1.3261
 Frc consts  --      3.8409                 2.1091                 0.6116
 IR Inten    --      1.8235                 6.0015                 0.0705

                     19                     20                     21
                      A                      A                      A
 Frequencies --    920.4450              1016.5868              1132.4167
 Red. masses --      1.4999                 4.9841                 2.6506
 Frc consts  --      0.7487                 3.0348                 2.0026
 IR Inten    --     47.5978               132.9267                 1.0557

                     22                     23                     24
                      A                      A                      A
 Frequencies --   1274.3227              1292.2107              1314.2890
 Red. masses --      5.7311                 1.5235                 2.0921
 Frc consts  --      5.4834                 1.4988                 2.1292
 IR Inten    --    199.1722                28.3483                 7.0060

                     25                     26                     27
                      A                      A                      A
 Frequencies --   1620.5102              1661.4483              1715.2418
 Red. masses --      9.0245                 8.7790                11.0336
 Frc consts  --     13.9629                14.2781                19.1258
 IR Inten    --    139.5592                23.7656               278.6545

                     28                     29                     30
                      A                      A                      A
 Frequencies --   1761.2876              3204.4641              3205.2261
 Red. masses --     13.2412                 1.0933                 1.0940
 Frc consts  --     24.2013                 6.6146                 6.6221
 IR Inten    --    190.4191                 0.4284                 0.9661

 - Thermochemistry -
 -------------------
 Temperature   298.150 Kelvin.  Pressure   1.00000 Atm.
 Atom     1 has atomic number  6 and mass  12.00000

 Molecular mass:   219.89267 amu.
 Principal axes and moments of inertia in atomic units:
                           1         2         3
     Eigenvalues --  1523.501903404.548574928.05040
           X            0.95676   0.28619  -0.05207
           Y           -0.28383   0.87923  -0.38261
           Z           -0.06372   0.38084   0.92244
 This molecule is an asymmetric top.
 Rotational symmetry number  1.
 Warning -- assumption of classical behavior for rotation
           may cause significant error
 Rotational temperatures (Kelvin)      0.05685     0.02544     0.01758
 Rotational constants (GHZ):           1.18460     0.53010     0.36622
 Zero-point vibrational energy     170555.2 (Joules/Mol)
                                   40.76368 (Kcal/Mol)
 Warning -- explicit consideration of  11 degrees of freedom as
           vibrations may cause significant error
 Vibrational temperatures:     77.95   182.20   223.84   241.62   352.56
          (Kelvin)            393.07   431.84   506.30   634.93   636.41
                              685.55   899.03   962.51  1066.08  1125.78
                             1125.91  1261.72  1272.91  1324.32  1462.64
                             1629.29  1833.47  1859.20  1890.97  2331.55
                             2390.45  2467.85  2534.10  4610.51  4611.61

 Zero-point correction=                           0.064961 (Hartree/Particle)
 Thermal correction to Energy=                    0.073865
 Thermal correction to Enthalpy=                  0.074810
 Thermal correction to Gibbs Free Energy=         0.028811
 Sum of electronic and zero-point Energies=          -3414.654583
 Sum of electronic and thermal Energies=             -3414.645678
 Sum of electronic and thermal Enthalpies=           -3414.644734
 Sum of electronic and thermal Free Energies=        -3414.690733

                     E (Thermal)             CV                S
                      KCal/Mol        Cal/Mol-Kelvin    Cal/Mol-Kelvin
 Total                   46.351             31.172             96.812
 Electronic               0.000              0.000              0.000
 Translational            0.889              2.981             42.067
 Rotational               0.889              2.981             31.614
 Vibrational             44.574             25.210             23.131
 Vibration     1          0.596              1.976              4.659
 Vibration     2          0.611              1.926              2.997
 Vibration     3          0.620              1.896              2.603
 Vibration     4          0.625              1.882              2.458
 Vibration     5          0.660              1.771              1.766
 Vibration     6          0.676              1.723              1.576
 Vibration     7          0.693              1.673              1.416
 Vibration     8          0.728              1.571              1.158
 Vibration     9          0.801              1.380              0.823
 Vibration    10          0.802              1.378              0.819
 Vibration    11          0.833              1.302              0.720

 Optimization completed.
    -- Stationary point found.
 Normal termination of Gaussian 16 at Sun Dec 17 21:07:14 2023.
