 Q-Chem 5.4, Q-Chem, Inc., Pleasanton, CA (2021)
 Q-Chem 5.4.0 for Intel X86 EM64T Linux

User input:
--------------------------------------------------------------
$molecule
-1 2
C                 -1.6585850000      0.5088360000      1.4754590000
C                 -2.8221720000      1.0662450000      0.7609450000
C                 -2.7871990000      0.9454800000     -0.6091980000
C                 -1.6594900000      0.4370040000     -1.3955270000
C                 -0.4162640000      0.0815690000     -0.6860790000
C                 -0.5004430000      0.0775920000      0.6872600000
O                 -1.7671730000      0.3172960000     -2.6393240000
O                 -1.6406070000      0.4014210000      2.7248960000
Cl                 0.7941800000     -0.5097140000      1.7591100000
Cl                -4.1533840000      1.3512750000     -1.6762800000
C                  0.7944790000     -0.2706170000     -1.6001980000
C                  1.0398970000      0.9085440000     -2.5824810000
C                  2.1548630000     -0.5007560000     -0.9047510000
C                  0.4787830000     -1.5655900000     -2.3912330000
C                 -3.9319260000      1.6746340000      1.6685600000
C                 -3.2904410000      2.7444900000      2.5956780000
C                 -5.0943190000      2.4056550000      0.9602050000
C                 -4.5718590000      0.5480800000      2.5191770000
H                  0.1606870000      1.1224290000     -3.1842790000
H                  1.8730360000      0.6568080000     -3.2489040000
H                  1.3192920000      1.8092200000     -2.0255420000
H                  2.4534710000      0.3432580000     -0.2809950000
H                  2.9076490000     -0.6191970000     -1.6926350000
H                  2.1713000000     -1.3992690000     -0.2906260000
H                  0.3447660000     -2.4053820000     -1.7016220000
H                  1.3182530000     -1.8069290000     -3.0547720000
H                 -0.4232850000     -1.4499660000     -2.9886420000
H                 -2.4916140000      2.3265460000      3.2024000000
H                 -4.0600630000      3.1570780000      3.2582860000
H                 -2.8899000000      3.5691090000      1.9964780000
H                 -4.7463990000      3.1977290000      0.2952040000
H                 -5.7115540000      2.8679070000      1.7391800000
H                 -5.7304920000      1.7350350000      0.3855190000
H                 -3.8236870000      0.0422370000      3.1261370000
H                 -5.0587280000     -0.1855260000      1.8683730000
H                 -5.3387720000      0.9731730000      3.1782900000
$end
$rem
MAX_SCF_CYCLES=200
BASIS  =  6-311++G(d,p)
GUI  =  2
JOB_TYPE  =  SP
METHOD  =  B3LYP
SOLVENT_METHOD = COSMO
$end
$solvent
dielectric 37.219
opticaldielectric 1.43
$end

--------------------------------------------------------------

             Standard Nuclear Orientation (Angstroms)
    I     Atom           X                Y                Z
 ----------------------------------------------------------------
    1      C      -0.6106976429    -1.2995716074    -0.1168498165
    2      C      -1.4830957288    -0.1154191017    -0.0078811102
    3      C      -0.8407828220     1.0994979584    -0.0750361799
    4      C       0.6107129441     1.2996353894    -0.1161917035
    5      C       1.4831446349     0.1153983115    -0.0079933703
    6      C       0.8407662629    -1.0995196861    -0.0749725882
    7      O       1.0798542643     2.4564058332    -0.2376214075
    8      O      -1.0799790703    -2.4561360648    -0.2396814309
    9      Cl      1.6846635378    -2.6642014200    -0.1721730688
   10      Cl     -1.6847930407     2.6640568059    -0.1730024714
   11      C       3.0043611220     0.4195313935     0.1296678252
   12      C       3.2171355239     1.3715586764     1.3395858627
   13      C       3.9383867176    -0.7817286581     0.3976707949
   14      C       3.5117683020     1.0910672344    -1.1718439782
   15      C      -3.0042646389    -0.4195758348     0.1299228546
   16      C      -3.2170933064    -1.3737196344     1.3382093355
   17      C      -3.9376492248     0.7815929029     0.4006678884
   18      C      -3.5122771614    -1.0887255824    -1.1725169069
   19      H       2.6547245369     2.2949910969     1.2305707416
   20      H       4.2827315839     1.6135680003     1.4264636268
   21      H       2.9117719088     0.8746571240     2.2665711822
   22      H       3.6407213281    -1.3544800826     1.2774145297
   23      H       4.9413733668    -0.3798173349     0.5819567130
   24      H       4.0035894246    -1.4656683552    -0.4465568992
   25      H       3.3987126767     0.4059452495    -2.0183667377
   26      H       4.5779330062     1.3293312295    -1.0730437235
   27      H       2.9619136961     2.0065000790    -1.3807356215
   28      H      -2.6545694499    -2.2969210262     1.2278487928
   29      H      -4.2826762795    -1.6160324422     1.4243120244
   30      H      -2.9121629677    -0.8783214382     2.2661470185
   31      H      -3.6384350498     1.3532884146     1.2806059529
   32      H      -4.9404720766     0.3798027541     0.5860567004
   33      H      -4.0040072105     1.4665204669    -0.4426482557
   34      H      -2.9624151966    -2.0037675997    -1.3832035228
   35      H      -3.3996216145    -0.4021531528    -2.0179115245
   36      H      -4.5784015776    -1.3272732622    -1.0737075512
 ----------------------------------------------------------------

    9   -1615.4564935709      4.99e-06  Convergence criterion met
 Total energy in the final basis set =    -1615.4564935709
    4   -1615.5282629710      5.88e-06  Convergence criterion met
 Total energy in the final basis set =    -1615.5282629710

                    Orbital Energies (a.u.)
 --------------------------------------------------------------

 Alpha MOs
 -- Occupied --
********-101.5401 -19.0815 -19.0815 -10.2356 -10.2356 -10.2259 -10.2259
-10.1899 -10.1899 -10.1897 -10.1897 -10.1457 -10.1457 -10.1448 -10.1448
-10.1434 -10.1434  -9.4553  -9.4553  -7.2195  -7.2195  -7.2108  -7.2107
 -7.2094  -7.2094  -1.0169  -1.0139  -0.8708  -0.8600  -0.8154  -0.8093
 -0.7840  -0.7230  -0.6759  -0.6758  -0.6727  -0.6717  -0.6702  -0.6165
 -0.5611  -0.5480  -0.5306  -0.5037  -0.4651  -0.4627  -0.4408  -0.4359
 -0.4304  -0.4292  -0.4264  -0.4236  -0.4195  -0.4064  -0.4050  -0.3875
 -0.3764  -0.3746  -0.3675  -0.3652  -0.3587  -0.3559  -0.3485  -0.3425
 -0.3356  -0.3316  -0.3260  -0.3252  -0.3249  -0.3189  -0.2931  -0.2899
 -0.2733  -0.2485  -0.2412  -0.2400  -0.1649

 Beta MOs
 -- Occupied --
********-101.5401 -19.0750 -19.0750 -10.2341 -10.2340 -10.2247 -10.2247
-10.1899 -10.1899 -10.1887 -10.1887 -10.1457 -10.1457 -10.1448 -10.1447
-10.1433 -10.1433  -9.4553  -9.4553  -7.2196  -7.2196  -7.2106  -7.2106
 -7.2094  -7.2094  -1.0059  -1.0026  -0.8673  -0.8588  -0.8142  -0.8082
 -0.7813  -0.7205  -0.6756  -0.6755  -0.6718  -0.6716  -0.6616  -0.6134
 -0.5567  -0.5471  -0.5286  -0.5016  -0.4630  -0.4616  -0.4337  -0.4335
 -0.4296  -0.4282  -0.4242  -0.4178  -0.4155  -0.4020  -0.3936  -0.3862
 -0.3727  -0.3718  -0.3636  -0.3635  -0.3575  -0.3550  -0.3471  -0.3416
 -0.3297  -0.3291  -0.3249  -0.3201  -0.3192  -0.3151  -0.2927  -0.2892
 -0.2496  -0.2428  -0.2349  -0.2343

          Ground-State Mulliken Net Atomic Charges

     Atom                 Charge (a.u.)    Spin (a.u.)
  --------------------------------------------------------
      1 C                    -0.915320       0.098658
      2 C                     0.443674       0.115464
      3 C                    -0.239591       0.048586
      4 C                    -0.915713       0.098708
      5 C                     0.443906       0.115447
      6 C                    -0.240574       0.048638
      7 O                    -0.350008       0.236222
      8 O                    -0.350057       0.236178
      9 Cl                    0.511005       0.003303
     10 Cl                    0.510467       0.003296
     11 C                     0.588427      -0.022217
     12 C                    -0.681631       0.010901
     13 C                    -0.580784      -0.003516
     14 C                    -0.678983       0.012587
     15 C                     0.588268      -0.022199
     16 C                    -0.681457       0.010879
     17 C                    -0.580569      -0.003510
     18 C                    -0.679375       0.012591
     19 H                     0.174765      -0.001013
     20 H                     0.158521       0.000271
     21 H                     0.140866       0.000147
     22 H                     0.147654       0.000660
     23 H                     0.144008      -0.000274
     24 H                     0.140513       0.000482
     25 H                     0.148963       0.000837
     26 H                     0.157797       0.000316
     27 H                     0.191043      -0.001431
     28 H                     0.174709      -0.001013
     29 H                     0.158459       0.000266
     30 H                     0.140829       0.000146
     31 H                     0.147619       0.000663
     32 H                     0.144092      -0.000275
     33 H                     0.140519       0.000476
     34 H                     0.191167      -0.001433
     35 H                     0.148961       0.000838
     36 H                     0.157830       0.000321
  --------------------------------------------------------
  Sum of atomic charges =    -1.000000

                    Cartesian Multipole Moments
 -----------------------------------------------------------------
    Charge (ESU x 10^10)
                -4.8032
    Dipole Moment (Debye)
         X       0.0003      Y      -0.0010      Z       1.3572
       Tot       1.3572
    Quadrupole Moments (Debye-Ang)
        XX    -133.6027     XY      -4.9016     YY    -168.9043
        XZ      -0.0049     YZ      -0.0109     ZZ    -129.4834

 Total job time:  121.22s(wall), 939.50s(cpu)
        *  Thank you very much for using Q-Chem.  Have a nice day.  *
