 Gaussian 16, Revision A.03,
 Gaussian 16:  ES64L-G16RevA.03 25-Dec-2016

 --------------------------------------
 #P UB3LYP/6-311++G(d,p) nosym opt freq
 --------------------------------------

 -------
 Radical
 -------
 Symbolic Z-matrix:
 Charge = -1 Multiplicity = 2

 SCF Done:  E(UB3LYP) =  -1615.45634013     A.U. after   19 cycles
 SCF Done:  E(UB3LYP) =  -1615.45634017     A.U. after    9 cycles
 SCF Done:  E(UB3LYP) =  -1615.45633775     A.U. after   11 cycles
 SCF Done:  E(UB3LYP) =  -1615.45634026     A.U. after   10 cycles
 SCF Done:  E(UB3LYP) =  -1615.45634029     A.U. after    7 cycles
 SCF Done:  E(UB3LYP) =  -1615.45634031     A.U. after    8 cycles
 SCF Done:  E(UB3LYP) =  -1615.45634039     A.U. after   10 cycles
 SCF Done:  E(UB3LYP) =  -1615.45634074     A.U. after   13 cycles
 SCF Done:  E(UB3LYP) =  -1615.45634131     A.U. after   13 cycles
 SCF Done:  E(UB3LYP) =  -1615.45634083     A.U. after   14 cycles
 SCF Done:  E(UB3LYP) =  -1615.45636407     A.U. after    6 cycles
 SCF Done:  E(UB3LYP) =  -1615.45637326     A.U. after   14 cycles
 SCF Done:  E(UB3LYP) =  -1615.45637578     A.U. after   13 cycles
 SCF Done:  E(UB3LYP) =  -1615.45637702     A.U. after   12 cycles
 SCF Done:  E(UB3LYP) =  -1615.45637738     A.U. after   13 cycles
 SCF Done:  E(UB3LYP) =  -1615.45637749     A.U. after    9 cycles
 SCF Done:  E(UB3LYP) =  -1615.45637755     A.U. after   11 cycles
 SCF Done:  E(UB3LYP) =  -1615.45637756     A.U. after    9 cycles
 SCF Done:  E(UB3LYP) =  -1615.45637757     A.U. after   10 cycles
 Optimization completed.
    -- Stationary point found.
 Normal termination of Gaussian 16 at Thu Jan 18 08:56:55 2024.

 ----------------------------------------------------------------------
 #P Geom=AllCheck Guess=TCheck SCRF=Check GenChk UB3LYP/6-311++G(d,p) F
 req
 ----------------------------------------------------------------------

 Structure from the checkpoint file:  "018-rad.chk"
 -------
 Radical
 -------
 Charge = -1 Multiplicity = 2

                          Input orientation:
 ---------------------------------------------------------------------
 Center     Atomic      Atomic             Coordinates (Angstroms)
 Number     Number       Type             X           Y           Z
 ---------------------------------------------------------------------
      1          6           0       -1.658585    0.508836    1.475459
      2          6           0       -2.822172    1.066245    0.760945
      3          6           0       -2.787199    0.945480   -0.609198
      4          6           0       -1.659490    0.437004   -1.395527
      5          6           0       -0.416264    0.081569   -0.686079
      6          6           0       -0.500443    0.077592    0.687260
      7          8           0       -1.767173    0.317296   -2.639324
      8          8           0       -1.640607    0.401421    2.724896
      9         17           0        0.794180   -0.509714    1.759110
     10         17           0       -4.153384    1.351275   -1.676280
     11          6           0        0.794479   -0.270617   -1.600198
     12          6           0        1.039897    0.908544   -2.582481
     13          6           0        2.154863   -0.500756   -0.904751
     14          6           0        0.478783   -1.565590   -2.391233
     15          6           0       -3.931926    1.674634    1.668560
     16          6           0       -3.290441    2.744490    2.595678
     17          6           0       -5.094319    2.405655    0.960205
     18          6           0       -4.571859    0.548080    2.519177
     19          1           0        0.160687    1.122429   -3.184279
     20          1           0        1.873036    0.656808   -3.248904
     21          1           0        1.319292    1.809220   -2.025542
     22          1           0        2.453471    0.343258   -0.280995
     23          1           0        2.907649   -0.619197   -1.692635
     24          1           0        2.171300   -1.399269   -0.290626
     25          1           0        0.344766   -2.405382   -1.701622
     26          1           0        1.318253   -1.806929   -3.054772
     27          1           0       -0.423285   -1.449966   -2.988642
     28          1           0       -2.491614    2.326546    3.202400
     29          1           0       -4.060063    3.157078    3.258286
     30          1           0       -2.889900    3.569109    1.996478
     31          1           0       -4.746399    3.197729    0.295204
     32          1           0       -5.711554    2.867907    1.739180
     33          1           0       -5.730492    1.735035    0.385519
     34          1           0       -3.823687    0.042237    3.126137
     35          1           0       -5.058728   -0.185526    1.868373
     36          1           0       -5.338772    0.973173    3.178290
 ---------------------------------------------------------------------

 SCF Done:  E(UB3LYP) =  -1615.45637757     A.U. after    1 cycles

 Alpha  occ. eigenvalues -- -101.41887-101.41887 -18.95437 -18.95437 -10.11091
 Alpha  occ. eigenvalues --  -10.11090 -10.10597 -10.10596 -10.08453 -10.08453
 Alpha  occ. eigenvalues --  -10.07029 -10.07027 -10.04751 -10.04750 -10.04274
 Alpha  occ. eigenvalues --  -10.04272 -10.04131 -10.04130  -9.33401  -9.33400
 Alpha  occ. eigenvalues --   -7.09832  -7.09832  -7.08938  -7.08938  -7.08815
 Alpha  occ. eigenvalues --   -7.08814  -0.88979  -0.88654  -0.75030  -0.74081
 Alpha  occ. eigenvalues --   -0.70445  -0.70108  -0.66858  -0.60742  -0.57351
 Alpha  occ. eigenvalues --   -0.57335  -0.57055  -0.57028  -0.54850  -0.50349
 Alpha  occ. eigenvalues --   -0.44161  -0.44016  -0.41836  -0.38487  -0.35666
 Alpha  occ. eigenvalues --   -0.35356  -0.33002  -0.32783  -0.32262  -0.31804
 Alpha  occ. eigenvalues --   -0.31402  -0.30743  -0.30618  -0.29238  -0.28367
 Alpha  occ. eigenvalues --   -0.28155  -0.27030  -0.26986  -0.26226  -0.25276
 Alpha  occ. eigenvalues --   -0.24936  -0.24910  -0.23737  -0.23693  -0.22685
 Alpha  occ. eigenvalues --   -0.22415  -0.21795  -0.21437  -0.21337  -0.20566
 Alpha  occ. eigenvalues --   -0.17474  -0.17234  -0.15087  -0.12329  -0.12156
 Alpha  occ. eigenvalues --   -0.11469  -0.03970
 Alpha virt. eigenvalues --    0.07961   0.08175   0.09380   0.10116   0.10119
 Alpha virt. eigenvalues --    0.10551   0.10691   0.11120   0.11678   0.12304
 Alpha virt. eigenvalues --    0.12765   0.13075   0.13146   0.13494   0.13712

  Beta  occ. eigenvalues -- -101.41885-101.41884 -18.94756 -18.94755 -10.10966
  Beta  occ. eigenvalues --  -10.10965 -10.10462 -10.10460 -10.08460 -10.08460
  Beta  occ. eigenvalues --  -10.06923 -10.06921 -10.04751 -10.04751 -10.04268
  Beta  occ. eigenvalues --  -10.04266 -10.04125 -10.04124  -9.33399  -9.33398
  Beta  occ. eigenvalues --   -7.09838  -7.09838  -7.08923  -7.08923  -7.08814
  Beta  occ. eigenvalues --   -7.08814  -0.87845  -0.87478  -0.74664  -0.73956
  Beta  occ. eigenvalues --   -0.70386  -0.70011  -0.66541  -0.60485  -0.57330
  Beta  occ. eigenvalues --   -0.57312  -0.57045  -0.57020  -0.53927  -0.50077
  Beta  occ. eigenvalues --   -0.44070  -0.43614  -0.41631  -0.38302  -0.35596
  Beta  occ. eigenvalues --   -0.35191  -0.32846  -0.32735  -0.32227  -0.31652
  Beta  occ. eigenvalues --   -0.30779  -0.30521  -0.30042  -0.28738  -0.28065
  Beta  occ. eigenvalues --   -0.27812  -0.26794  -0.26676  -0.25738  -0.25138
  Beta  occ. eigenvalues --   -0.24658  -0.24069  -0.23645  -0.23546  -0.22557
  Beta  occ. eigenvalues --   -0.22361  -0.21750  -0.21399  -0.20079  -0.19514
  Beta  occ. eigenvalues --   -0.17441  -0.17162  -0.12454  -0.11704  -0.11506
  Beta  occ. eigenvalues --   -0.10861
  Beta virt. eigenvalues --    0.03057   0.07963   0.08176   0.09805   0.10126
  Beta virt. eigenvalues --    0.10146   0.10559   0.10692   0.11681   0.12079
  Beta virt. eigenvalues --    0.12435   0.12786   0.13171   0.13181   0.13500

 Mulliken charges and spin densities:
               1          2
     1  C   -1.001316   0.073014
     2  C    0.435230   0.115306
     3  C   -0.218374   0.062044
     4  C   -1.001915   0.073032
     5  C    0.435464   0.115357
     6  C   -0.219611   0.062104
     7  O   -0.240831   0.250706
     8  O   -0.240879   0.250665
     9  Cl   0.530927   0.003781
    10  Cl   0.530367   0.003774
    11  C    0.685838  -0.026481
    12  C   -0.676908   0.011832
    13  C   -0.592337  -0.004032
    14  C   -0.668438   0.013625
    15  C    0.685849  -0.026457
    16  C   -0.676772   0.011800
    17  C   -0.592196  -0.004024
    18  C   -0.668786   0.013630
    19  H    0.194958  -0.001212
    20  H    0.116812   0.000277
    21  H    0.114334   0.000240
    22  H    0.137248   0.000792
    23  H    0.105012  -0.000292
    24  H    0.127015   0.000653
    25  H    0.124894   0.001034
    26  H    0.118136   0.000413
    27  H    0.208928  -0.001737
    28  H    0.194899  -0.001214
    29  H    0.116762   0.000271
    30  H    0.114300   0.000239
    31  H    0.137208   0.000794
    32  H    0.105129  -0.000292
    33  H    0.126985   0.000644
    34  H    0.209015  -0.001741
    35  H    0.124897   0.001037
    36  H    0.118157   0.000420
 Sum of Mulliken charges =  -1.00000   1.00000

 Dipole moment (field-independent basis, Debye):
    X=              8.0698    Y=             -2.0153    Z=             -0.1984  Tot=              8.3200
 Quadrupole moment (field-independent basis, Debye-Ang):
   XX=           -160.5074   YY=           -134.2508   ZZ=           -164.9877
   XY=              9.5917   XZ=             -3.1688   YZ=              0.4425

  Exact polarizability: 245.175 -36.806 167.342 -13.951   8.107 255.696
 Approx polarizability: 323.928 -34.949 247.769  17.745  -1.726 442.944

                      1                      2                      3
                      A                      A                      A
 Frequencies --     12.5976                37.1782                39.8790
 Red. masses --      3.8610                 4.6368                 5.7795
 Frc consts  --      0.0004                 0.0038                 0.0054
 IR Inten    --      1.8037                 0.0240                 0.2553

                      4                      5                      6
                      A                      A                      A
 Frequencies --     75.6549                99.4137               175.8322
 Red. masses --      4.5493                 4.3941                 4.2762
 Frc consts  --      0.0153                 0.0256                 0.0779
 IR Inten    --      1.5340                 0.2008                 2.8535

                      7                      8                      9
                      A                      A                      A
 Frequencies --    193.6840               200.4184               212.1275
 Red. masses --      1.7659                 1.3182                 7.1074
 Frc consts  --      0.0390                 0.0312                 0.1884
 IR Inten    --      2.4961                 0.1794                 0.0289

                     10                     11                     12
                      A                      A                      A
 Frequencies --    229.2211               232.8428               233.5245
 Red. masses --      4.0557                 1.8190                 3.0667
 Frc consts  --      0.1256                 0.0581                 0.0985
 IR Inten    --      1.9253                 2.2623                 0.1036

                     13                     14                     15
                      A                      A                      A
 Frequencies --    246.3567               249.3414               267.8331
 Red. masses --      1.1465                 1.0857                 2.7332
 Frc consts  --      0.0410                 0.0398                 0.1155
 IR Inten    --      0.1381                 0.6189                 0.0640

                     16                     17                     18
                      A                      A                      A
 Frequencies --    303.3927               305.9935               319.4384
 Red. masses --      3.4233                 8.0365                 2.9620
 Frc consts  --      0.1857                 0.4433                 0.1781
 IR Inten    --      0.2607                 0.0194                 0.5146

                     19                     20                     21
                      A                      A                      A
 Frequencies --    333.3881               347.0749               360.1328
 Red. masses --      2.9940                 3.2200                 8.6257
 Frc consts  --      0.1961                 0.2285                 0.6591
 IR Inten    --      0.6732                 6.3361                 0.4842

                     22                     23                     24
                      A                      A                      A
 Frequencies --    372.9492               384.0311               388.1197
 Red. masses --      3.2942                 1.1776                 1.4457
 Frc consts  --      0.2700                 0.1023                 0.1283
 IR Inten    --      0.0113                 0.5860                 0.5463

                     25                     26                     27
                      A                      A                      A
 Frequencies --    397.9274               408.5897               409.7569
 Red. masses --      3.0107                 2.3977                 5.4188
 Frc consts  --      0.2809                 0.2358                 0.5360
 IR Inten    --      1.7257                 0.0252                 1.4106

                     28                     29                     30
                      A                      A                      A
 Frequencies --    419.5298               446.1663               485.4223
 Red. masses --      2.3241                 2.6365                 8.6324
 Frc consts  --      0.2410                 0.3092                 1.1984
 IR Inten    --      0.5107                 8.3437                 0.0749

                     31                     32                     33
                      A                      A                      A
 Frequencies --    514.7679               544.3954               549.7221
 Red. masses --      5.1397                 3.4077                 2.6629
 Frc consts  --      0.8024                 0.5950                 0.4741
 IR Inten    --      0.8510                18.3901                 0.0023

                     34                     35                     36
                      A                      A                      A
 Frequencies --    617.0378               672.0919               736.3409
 Red. masses --      8.7471                 6.0252                 9.7449
 Frc consts  --      1.9622                 1.6035                 3.1130
 IR Inten    --      0.1213                70.3639                 7.9966

                     37                     38                     39
                      A                      A                      A
 Frequencies --    742.7830               775.5878               777.6396
 Red. masses --      9.1978                10.5909                 4.7125
 Frc consts  --      2.9899                 3.7536                 1.6790
 IR Inten    --      1.2171                 0.5705                 0.0111

                     40                     41                     42
                      A                      A                      A
 Frequencies --    821.7989               858.9800               924.2100
 Red. masses --      3.2336                 4.5978                 1.9199
 Frc consts  --      1.2867                 1.9988                 0.9662
 IR Inten    --     46.8419                 0.5082                 1.3955

                     43                     44                     45
                      A                      A                      A
 Frequencies --    924.3788               926.4209               929.6666
 Red. masses --      1.9121                 4.9207                 1.8906
 Frc consts  --      0.9626                 2.4883                 0.9627
 IR Inten    --      0.1873                79.6584                 3.6479

                     46                     47                     48
                      A                      A                      A
 Frequencies --    930.6510               960.5823               960.6187
 Red. masses --      1.8538                 1.1939                 1.1934
 Frc consts  --      0.9460                 0.6491                 0.6489
 IR Inten    --     13.8176                 0.7769                 0.1951

                     49                     50                     51
                      A                      A                      A
 Frequencies --    974.2177              1036.0364              1049.9694
 Red. masses --      3.8622                 1.6601                 1.3658
 Frc consts  --      2.1597                 1.0499                 0.8872
 IR Inten    --      0.0022                58.7104                 0.0273

                     52                     53                     54
                      A                      A                      A
 Frequencies --   1050.5701              1054.0640              1101.7101
 Red. masses --      1.3690                 1.3867                 9.2873
 Frc consts  --      0.8902                 0.9078                 6.6416
 IR Inten    --      0.0037                 0.0913                67.7926

                     55                     56                     57
                      A                      A                      A
 Frequencies --   1116.5109              1210.5983              1211.5447
 Red. masses --      3.2226                 2.5735                 2.5765
 Frc consts  --      2.3669                 2.2222                 2.2282
 IR Inten    --     79.8355                 7.2032                 1.3295

                     58                     59                     60
                      A                      A                      A
 Frequencies --   1215.9148              1223.0624              1248.1460
 Red. masses --      2.6307                 2.4816                 2.5901
 Frc consts  --      2.2916                 2.1871                 2.3774
 IR Inten    --      4.7842                 8.1333                 1.0253

                     61                     62                     63
                      A                      A                      A
 Frequencies --   1264.6704              1329.1137              1375.1531
 Red. masses --      3.1157                 8.3680                 1.2021
 Frc consts  --      2.9361                 8.7096                 1.3393
 IR Inten    --     83.3016                 0.1270                 8.4497

                     64                     65                     66
                      A                      A                      A
 Frequencies --   1375.3263              1384.1359              1385.9463
 Red. masses --      1.2020                 1.2246                 1.2224
 Frc consts  --      1.3396                 1.3823                 1.3834
 IR Inten    --     16.8038                77.0096                 0.1840

                     67                     68                     69
                      A                      A                      A
 Frequencies --   1419.9061              1421.0361              1467.1177
 Red. masses --      1.2324                 1.2241                 7.8865
 Frc consts  --      1.4639                 1.4563                10.0015
 IR Inten    --     45.8017                 0.7109                 9.3550

                     70                     71                     72
                      A                      A                      A
 Frequencies --   1471.1855              1471.3394              1485.3151
 Red. masses --      1.0532                 1.0476                 1.1875
 Frc consts  --      1.3431                 1.3362                 1.5436
 IR Inten    --      0.5204                 0.7898               113.2268

                     73                     74                     75
                      A                      A                      A
 Frequencies --   1487.3245              1495.2113              1495.5847
 Red. masses --      1.0966                 1.0830                 1.1001
 Frc consts  --      1.4293                 1.4265                 1.4498
 IR Inten    --      0.1037                 3.2764                19.5476

                     76                     77                     78
                      A                      A                      A
 Frequencies --   1498.9236              1499.1144              1516.2473
 Red. masses --      1.0527                 1.0525                 1.0597
 Frc consts  --      1.3935                 1.3936                 1.4354
 IR Inten    --      2.2657                 1.8615                 6.5894

                     79                     80                     81
                      A                      A                      A
 Frequencies --   1516.3863              1523.1432              1529.8473
 Red. masses --      1.0573                 1.9597                 2.8372
 Frc consts  --      1.4324                 2.6787                 3.9124
 IR Inten    --      3.1119               238.8448                 0.6254

                     82                     83                     84
                      A                      A                      A
 Frequencies --   1532.9386              1538.2798              1579.6484
 Red. masses --      1.3532                 1.4849                 9.1835
 Frc consts  --      1.8735                 2.0702                13.5014
 IR Inten    --      0.4645                45.6624                 1.0464

                     85                     86                     87
                      A                      A                      A
 Frequencies --   2999.8742              3000.1315              3004.0043
 Red. masses --      1.0429                 1.0428                 1.0443
 Frc consts  --      5.5299                 5.5303                 5.5524
 IR Inten    --     50.2307                67.1193                45.9493

                     88                     89                     90
                      A                      A                      A
 Frequencies --   3004.2768              3017.4267              3018.3489
 Red. masses --      1.0445                 1.0472                 1.0468
 Frc consts  --      5.5545                 5.6177                 5.6191
 IR Inten    --     13.6280               297.0053                16.9274

                     91                     92                     93
                      A                      A                      A
 Frequencies --   3056.0197              3056.2318              3059.0631
 Red. masses --      1.0985                 1.0984                 1.0971
 Frc consts  --      6.0443                 6.0447                 6.0488
 IR Inten    --      4.5681                57.0468               122.9312

                     94                     95                     96
                      A                      A                      A
 Frequencies --   3059.2768              3085.7750              3085.8804
 Red. masses --      1.0971                 1.0873                 1.0872
 Frc consts  --      6.0496                 6.0999                 6.0998
 IR Inten    --      2.4317                36.2999                48.0461

                     97                     98                     99
                      A                      A                      A
 Frequencies --   3129.8962              3129.9994              3136.2765
 Red. masses --      1.1004                 1.1003                 1.0960
 Frc consts  --      6.3514                 6.3513                 6.3516
 IR Inten    --     19.0739                33.1077                 5.3048

                    100                    101                    102
                      A                      A                      A
 Frequencies --   3136.5208              3147.9978              3148.2929
 Red. masses --      1.0960                 1.0948                 1.0947
 Frc consts  --      6.3524                 6.3921                 6.3930
 IR Inten    --      4.9270                 8.4402                 6.3522

 - Thermochemistry -
 -------------------
 Temperature   298.150 Kelvin.  Pressure   1.00000 Atm.
 Atom     1 has atomic number  6 and mass  12.00000

 Molecular mass:   288.06839 amu.
 Principal axes and moments of inertia in atomic units:
                           1         2         3
     Eigenvalues --  3600.916006536.166019274.32798
           X            0.86068   0.35350   0.36642
           Y           -0.34848  -0.11569   0.93015
           Z           -0.37120   0.92825  -0.02361
 This molecule is an asymmetric top.
 Rotational symmetry number  1.
 Warning -- assumption of classical behavior for rotation
           may cause significant error
 Rotational temperatures (Kelvin)      0.02405     0.01325     0.00934
 Rotational constants (GHZ):           0.50119     0.27612     0.19460
 Zero-point vibrational energy     754760.0 (Joules/Mol)
                                  180.39198 (Kcal/Mol)
 Warning -- explicit consideration of  34 degrees of freedom as
           vibrations may cause significant error
 Vibrational temperatures:     18.13    53.49    57.38   108.85   143.03
          (Kelvin)            252.98   278.67   288.36   305.20   329.80
                              335.01   335.99   354.45   358.75   385.35
                              436.51   440.26   459.60   479.67   499.36
                              518.15   536.59   552.54   558.42   572.53
                              587.87   589.55   603.61   641.93   698.41
                              740.64   783.26   790.93   887.78   966.99
                             1059.43  1068.70  1115.90  1118.85  1182.39
                             1235.88  1329.73  1329.97  1332.91  1337.58
                             1339.00  1382.06  1382.12  1401.68  1490.63
                             1510.67  1511.54  1516.56  1585.12  1606.41
                             1741.78  1743.14  1749.43  1759.71  1795.80
                             1819.58  1912.30  1978.54  1978.79  1991.46
                             1994.07  2042.93  2044.55  2110.86  2116.71
                             2116.93  2137.04  2139.93  2151.28  2151.81
                             2156.62  2156.89  2181.54  2181.74  2191.46
                             2201.11  2205.56  2213.24  2272.76  4316.15
                             4316.52  4322.09  4322.48  4341.40  4342.73
                             4396.93  4397.24  4401.31  4401.62  4439.74
                             4439.89  4503.22  4503.37  4512.40  4512.75
                             4529.27  4529.69

 Zero-point correction=                           0.287473 (Hartree/Particle)
 Thermal correction to Energy=                    0.306853
 Thermal correction to Enthalpy=                  0.307798
 Thermal correction to Gibbs Free Energy=         0.238999
 Sum of electronic and zero-point Energies=          -1615.168905
 Sum of electronic and thermal Energies=             -1615.149524
 Sum of electronic and thermal Enthalpies=           -1615.148580
 Sum of electronic and thermal Free Energies=        -1615.217378

                     E (Thermal)             CV                S
                      KCal/Mol        Cal/Mol-Kelvin    Cal/Mol-Kelvin
 Total                  192.553             74.511            144.799
 Electronic               0.000              0.000              1.377
 Translational            0.889              2.981             42.872
 Rotational               0.889              2.981             33.745
 Vibrational            190.776             68.549             66.804
 Vibration     1          0.593              1.987              7.552
 Vibration     2          0.594              1.982              5.404
 Vibration     3          0.594              1.981              5.265
 Vibration     4          0.599              1.965              4.001
 Vibration     5          0.604              1.950              3.466
 Vibration     6          0.628              1.872              2.372
 Vibration     7          0.635              1.849              2.192
 Vibration     8          0.638              1.839              2.129
 Vibration     9          0.643              1.822              2.025
 Vibration    10          0.652              1.796              1.885
 Vibration    11          0.654              1.791              1.857
 Vibration    12          0.654              1.790              1.852
 Vibration    13          0.661              1.769              1.757
 Vibration    14          0.662              1.764              1.735
 Vibration    15          0.673              1.732              1.610
 Vibration    16          0.695              1.667              1.398
 Vibration    17          0.696              1.662              1.384
 Vibration    18          0.705              1.636              1.313
 Vibration    19          0.715              1.609              1.244
 Vibration    20          0.725              1.581              1.179
 Vibration    21          0.735              1.554              1.122
 Vibration    22          0.744              1.528              1.068
 Vibration    23          0.753              1.504              1.023
 Vibration    24          0.756              1.496              1.007
 Vibration    25          0.764              1.475              0.970
 Vibration    26          0.773              1.452              0.932
 Vibration    27          0.774              1.449              0.927
 Vibration    28          0.782              1.428              0.894
 Vibration    29          0.805              1.369              0.807
 Vibration    30          0.841              1.282              0.696
 Vibration    31          0.870              1.217              0.622
 Vibration    32          0.900              1.152              0.556
 Vibration    33          0.905              1.140              0.545
 Vibration    34          0.977              0.996              0.421

                           ! Non-Optimized Parameters !
 Normal termination of Gaussian 16 at Thu Jan 18 09:55:30 2024.
