 Q-Chem 5.4, Q-Chem, Inc., Pleasanton, CA (2021)
 Q-Chem 5.4.0 for Intel X86 EM64T Linux

User input:
--------------------------------------------------------------
$molecule
0 1
C                  4.2739220000     -0.0121140000     -0.1603950000
S                  3.0368350000     -1.3405030000     -0.3046120000
C                  1.5329830000     -0.4541930000     -0.1262220000
C                  1.3938550000      0.8782950000      0.0675020000
C                  0.0860020000      1.5324470000      0.2058110000
O                  0.0071690000      2.7411870000      0.3799470000
C                 -1.1330370000      0.6725140000      0.1261790000
C                 -2.3984990000      1.2470140000      0.2512260000
C                 -3.5357800000      0.4482340000      0.1771870000
C                 -3.4156230000     -0.9291500000     -0.0221830000
C                 -2.1577640000     -1.5091770000     -0.1476870000
C                 -1.0118500000     -0.7121700000     -0.0742050000
C                  0.3264550000     -1.3493350000     -0.2106570000
O                  0.4611330000     -2.5466130000     -0.3843450000
H                  4.1611090000      0.7240050000     -0.9573270000
H                  5.2407680000     -0.5044650000     -0.2648130000
H                  4.2245580000      0.4725690000      0.8154880000
H                  2.2397380000      1.5504950000      0.1332400000
H                 -2.4684160000      2.3168170000      0.4052380000
H                 -4.5177710000      0.8971080000      0.2746180000
H                 -4.3036050000     -1.5481880000     -0.0793960000
H                 -2.0421810000     -2.5747790000     -0.3027340000
$end
$rem
MAX_SCF_CYCLES=200
BASIS  =  6-311++G(d,p)
GUI  =  2
JOB_TYPE  =  SP
METHOD  =  B3LYP
SOLVENT_METHOD = COSMO
$end
$solvent
dielectric 37.219
opticaldielectric 1.43
$end

--------------------------------------------------------------

             Standard Nuclear Orientation (Angstroms)
    I     Atom           X                Y                Z
 ----------------------------------------------------------------
    1      C       4.0423304749    -0.7060978403     0.0010899509
    2      S       2.9956552434     0.7839593129     0.0002159186
    3      C       1.3830286244     0.0923131490    -0.0002509958
    4      C       1.0637055666    -1.2231497462    -0.0003718103
    5      C      -0.3228598330    -1.7078765461    -0.0004734389
    6      O      -0.5655286925    -2.9073356635    -0.0006352153
    7      C      -1.4153014247    -0.6888312064    -0.0002124722
    8      C      -2.7489463019    -1.0992849316     0.0001832162
    9      C      -3.7685811602    -0.1520342474     0.0006647668
   10      C      -3.4619746154     1.2108176180     0.0007328558
   11      C      -2.1351242058     1.6277823899     0.0002766084
   12      C      -1.1066827775     0.6811849784    -0.0001997646
   13      C       0.3077570529     1.1448858103    -0.0006038070
   14      O       0.6042316440     2.3255139280    -0.0012028663
   15      H       3.8779558285    -1.3064947979     0.8967478302
   16      H       5.0686065473    -0.3388646101     0.0020856465
   17      H       3.8796961890    -1.3064287407    -0.8949317808
   18      H       1.8114832628    -2.0057868846    -0.0003420950
   19      H      -2.9638601573    -2.1608397232     0.0001520813
   20      H      -4.8038966596    -0.4736064617     0.0010103796
   21      H      -4.2587278578     1.9457852940     0.0011699362
   22      H      -1.8754730609     2.6792042379     0.0003473005
 ----------------------------------------------------------------

   10    -972.8021301469      2.94e-06  Convergence criterion met
 Total energy in the final basis set =     -972.8021301469
    5    -972.8184769421      4.32e-06  Convergence criterion met
 Total energy in the final basis set =     -972.8184769421

                    Orbital Energies (a.u.)
 --------------------------------------------------------------

 Alpha MOs
 -- Occupied --
-88.8794 -19.1445 -19.1318 -10.2958 -10.2825 -10.2455 -10.2101 -10.2083
-10.2028 -10.2028 -10.1986 -10.1975 -10.1966 -10.1962  -7.9650  -5.9286
 -5.9245  -5.9199  -1.0805  -1.0646  -0.8924  -0.8611  -0.8045  -0.7792
 -0.7646  -0.7117  -0.6710  -0.6491  -0.6153  -0.5895  -0.5479  -0.5297
 -0.5042  -0.4864  -0.4676  -0.4604  -0.4595  -0.4512  -0.4424  -0.4382
 -0.4273  -0.4234  -0.4043  -0.3834  -0.3812  -0.3702  -0.3514  -0.3335
 -0.2958  -0.2858  -0.2794  -0.2794  -0.2466

          Ground-State Mulliken Net Atomic Charges

     Atom                 Charge (a.u.)
  ----------------------------------------
      1 C                    -0.507982
      2 S                    -0.554063
      3 C                     0.942116
      4 C                     0.777508
      5 C                    -0.433855
      6 O                    -0.330071
      7 C                     0.479590
      8 C                     0.306150
      9 C                    -0.381038
     10 C                    -0.440944
     11 C                     0.402635
     12 C                    -0.147107
     13 C                    -1.633127
     14 O                    -0.242679
     15 H                     0.212727
     16 H                     0.228151
     17 H                     0.212845
     18 H                     0.253172
     19 H                     0.195339
     20 H                     0.230846
     21 H                     0.224639
     22 H                     0.205149
  ----------------------------------------
  Sum of atomic charges =     0.000000

                    Cartesian Multipole Moments
 -----------------------------------------------------------------
    Charge (ESU x 10^10)
                 0.0000
    Dipole Moment (Debye)
         X      -0.2083      Y      -0.2380      Z       0.0040
       Tot       0.3163
    Quadrupole Moments (Debye-Ang)
        XX     -56.9275     XY     -13.5014     YY    -105.8322
        XZ      -0.0003     YZ       0.0025     ZZ     -90.1959

 Total job time:  35.66s(wall), 268.09s(cpu)
        *  Thank you very much for using Q-Chem.  Have a nice day.  *
