 Gaussian 16, Revision A.03,
 Gaussian 16:  ES64L-G16RevA.03 25-Dec-2016

 ----------------------------------------------------------------------
 #P UB3LYP/6-311++G(d,p) nosym opt freq SCRF=(PCM,Solvent=n,n-DiMethylF
 ormamide)
 ----------------------------------------------------------------------

 -------
 Reduced
 -------
 Symbolic Z-matrix:
 Charge = -2 Multiplicity = 1

 SCF Done:  E(UB3LYP) =  -1078.03576982     A.U. after   17 cycles
 SCF Done:  E(UB3LYP) =  -1078.03834013     A.U. after   14 cycles
 SCF Done:  E(UB3LYP) =  -1078.03869424     A.U. after   13 cycles
 SCF Done:  E(UB3LYP) =  -1078.03870448     A.U. after   13 cycles
 SCF Done:  E(UB3LYP) =  -1078.03876093     A.U. after   12 cycles
 SCF Done:  E(UB3LYP) =  -1078.03876732     A.U. after   12 cycles
 SCF Done:  E(UB3LYP) =  -1078.03877999     A.U. after   13 cycles
 SCF Done:  E(UB3LYP) =  -1078.03877441     A.U. after   13 cycles
 SCF Done:  E(UB3LYP) =  -1078.03879211     A.U. after   13 cycles
 SCF Done:  E(UB3LYP) =  -1078.03876102     A.U. after   14 cycles
 SCF Done:  E(UB3LYP) =  -1078.03880658     A.U. after   12 cycles
 SCF Done:  E(UB3LYP) =  -1078.03880715     A.U. after   12 cycles
 SCF Done:  E(UB3LYP) =  -1078.03519280     A.U. after   16 cycles
 SCF Done:  E(UB3LYP) =  -1078.03880135     A.U. after   13 cycles
 SCF Done:  E(UB3LYP) =  -1078.03880781     A.U. after    8 cycles
 SCF Done:  E(UB3LYP) =  -1078.03880590     A.U. after   12 cycles
 SCF Done:  E(UB3LYP) =  -1078.03881118     A.U. after   12 cycles
 SCF Done:  E(UB3LYP) =  -1078.03881142     A.U. after   11 cycles
 SCF Done:  E(UB3LYP) =  -1078.03881144     A.U. after    8 cycles
 Optimization completed.
    -- Stationary point found.
 Normal termination of Gaussian 16 at Sun Feb 11 21:45:30 2024.

 ----------------------------------------------------------------------
 #P Geom=AllCheck Guess=TCheck SCRF=Check GenChk UB3LYP/6-311++G(d,p) F
 req
 ----------------------------------------------------------------------

 Structure from the checkpoint file:  "305-an.chk"
 -------
 Reduced
 -------
 Charge = -2 Multiplicity = 1

                          Input orientation:
 ---------------------------------------------------------------------
 Center     Atomic      Atomic             Coordinates (Angstroms)
 Number     Number       Type             X           Y           Z
 ---------------------------------------------------------------------
      1          6           0        4.202088   -1.333489    3.855682
      2          6           0        3.510574   -0.984102    4.993195
      3          6           0        2.628410    0.129346    4.985586
      4          6           0        4.050705   -0.588444    2.642625
      5          6           0        3.154942    0.548115    2.625588
      6          6           0        2.471364    0.857936    3.824731
      7          6           0        4.767026   -0.951718    1.471917
      8          6           0        4.542603   -0.145698    0.340804
      9          6           0        3.686193    0.970491    0.275176
     10          6           0        2.949635    1.356715    1.431033
     11          8           0        5.619828   -1.970768    1.357590
     12          8           0        2.138211    2.379408    1.442615
     13          8           0        5.272828   -0.544729   -0.768438
     14          8           0        3.596506   -1.647781    6.203296
     15          6           0        4.449635   -2.783210    6.280368
     16          6           0        3.561655    1.753593   -1.011222
     17          6           0        2.507648    1.211122   -1.999639
     18          6           0        2.419982    2.036096   -3.290376
     19          6           0        1.314716    1.616382   -4.275130
     20          6           0        1.531733    0.206840   -4.857491
     21          6           0        1.172785    2.640327   -5.417342
     22          6           0        0.078732    2.256192   -6.423584
     23          6           0        0.303107    0.847064   -6.988816
     24          6           0        0.438398   -0.186178   -5.862407
     25          1           0        4.881257   -2.175496    3.838077
     26          1           0        2.093899    0.385145    5.894168
     27          1           0        1.800339    1.709783    3.809700
     28          1           0        5.751699   -1.319436   -0.384016
     29          1           0        4.367851   -3.155578    7.300879
     30          1           0        5.491512   -2.515975    6.073527
     31          1           0        4.136847   -3.566167    5.581142
     32          1           0        4.529666    1.775396   -1.526249
     33          1           0        3.302540    2.788080   -0.763851
     34          1           0        1.526297    1.201608   -1.509594
     35          1           0        2.747966    0.168977   -2.232684
     36          1           0        3.388838    2.003553   -3.808997
     37          1           0        2.258136    3.088268   -3.019830
     38          1           0        0.362288    1.604754   -3.722894
     39          1           0        1.575247   -0.533913   -4.053490
     40          1           0        2.510002    0.181172   -5.358649
     41          1           0        2.134973    2.718727   -5.943068
     42          1           0        0.966387    3.631990   -4.998601
     43          1           0        0.040284    2.989735   -7.236342
     44          1           0       -0.898725    2.292259   -5.924564
     45          1           0        1.219652    0.843089   -7.593709
     46          1           0       -0.516605    0.571939   -7.661350
     47          1           0        0.651791   -1.176329   -6.279628
     48          1           0       -0.521078   -0.270960   -5.335090
 ---------------------------------------------------------------------

 SCF Done:  E(UB3LYP) =  -1078.03881144     A.U. after    1 cycles

 Alpha  occ. eigenvalues --  -19.14020 -19.10757 -19.02076 -19.01363 -10.21044
 Alpha  occ. eigenvalues --  -10.20837 -10.17466 -10.17066 -10.15911 -10.15589
 Alpha  occ. eigenvalues --  -10.15570 -10.15550 -10.15525 -10.15327 -10.15233
 Alpha  occ. eigenvalues --  -10.14919 -10.14752 -10.14456 -10.14318 -10.14029
 Alpha  occ. eigenvalues --  -10.13910 -10.13870 -10.13015 -10.12133  -1.04947
 Alpha  occ. eigenvalues --   -1.01826  -0.92321  -0.91231  -0.82753  -0.82317
 Alpha  occ. eigenvalues --   -0.78327  -0.76431  -0.73859  -0.73241  -0.72364
 Alpha  occ. eigenvalues --   -0.71129  -0.68015  -0.65399  -0.63066  -0.60390
 Alpha  occ. eigenvalues --   -0.59205  -0.58463  -0.56350  -0.55218  -0.54340
 Alpha  occ. eigenvalues --   -0.53771  -0.51510  -0.48431  -0.46785  -0.45813
 Alpha  occ. eigenvalues --   -0.45674  -0.45450  -0.44348  -0.44101  -0.43299
 Alpha  occ. eigenvalues --   -0.42822  -0.41753  -0.41227  -0.40009  -0.39565
 Alpha  occ. eigenvalues --   -0.38870  -0.38240  -0.37372  -0.37014  -0.36257
 Alpha  occ. eigenvalues --   -0.35842  -0.35674  -0.35053  -0.34575  -0.34285
 Alpha  occ. eigenvalues --   -0.33575  -0.33401  -0.32776  -0.32550  -0.32103
 Alpha  occ. eigenvalues --   -0.31088  -0.30670  -0.30360  -0.30090  -0.29836
 Alpha  occ. eigenvalues --   -0.28790  -0.28219  -0.27586  -0.22643  -0.20958
 Alpha  occ. eigenvalues --   -0.20835  -0.19250  -0.18404  -0.11053
 Alpha virt. eigenvalues --   -0.00285   0.00046   0.00102   0.00774   0.00975
 Alpha virt. eigenvalues --    0.01147   0.01572   0.02240   0.02567   0.02761
 Alpha virt. eigenvalues --    0.02884   0.03787   0.03899   0.04005   0.04103

  Beta  occ. eigenvalues --  -19.14020 -19.10757 -19.02076 -19.01363 -10.21044
  Beta  occ. eigenvalues --  -10.20837 -10.17466 -10.17066 -10.15911 -10.15589
  Beta  occ. eigenvalues --  -10.15570 -10.15550 -10.15525 -10.15327 -10.15233
  Beta  occ. eigenvalues --  -10.14919 -10.14752 -10.14456 -10.14318 -10.14029
  Beta  occ. eigenvalues --  -10.13910 -10.13870 -10.13015 -10.12133  -1.04947
  Beta  occ. eigenvalues --   -1.01826  -0.92321  -0.91231  -0.82753  -0.82317
  Beta  occ. eigenvalues --   -0.78327  -0.76431  -0.73859  -0.73241  -0.72364
  Beta  occ. eigenvalues --   -0.71129  -0.68015  -0.65399  -0.63066  -0.60390
  Beta  occ. eigenvalues --   -0.59205  -0.58463  -0.56350  -0.55218  -0.54340
  Beta  occ. eigenvalues --   -0.53771  -0.51510  -0.48431  -0.46785  -0.45813
  Beta  occ. eigenvalues --   -0.45674  -0.45450  -0.44348  -0.44101  -0.43299
  Beta  occ. eigenvalues --   -0.42822  -0.41753  -0.41227  -0.40009  -0.39565
  Beta  occ. eigenvalues --   -0.38870  -0.38240  -0.37372  -0.37014  -0.36257
  Beta  occ. eigenvalues --   -0.35842  -0.35674  -0.35053  -0.34575  -0.34285
  Beta  occ. eigenvalues --   -0.33575  -0.33401  -0.32776  -0.32550  -0.32103
  Beta  occ. eigenvalues --   -0.31088  -0.30670  -0.30360  -0.30090  -0.29836
  Beta  occ. eigenvalues --   -0.28790  -0.28219  -0.27586  -0.22643  -0.20958
  Beta  occ. eigenvalues --   -0.20835  -0.19250  -0.18404  -0.11053
  Beta virt. eigenvalues --   -0.00285   0.00046   0.00102   0.00774   0.00975
  Beta virt. eigenvalues --    0.01147   0.01572   0.02240   0.02567   0.02761
  Beta virt. eigenvalues --    0.02884   0.03787   0.03899   0.04005   0.04103

 Mulliken charges and spin densities:
               1          2
     1  C    0.747220  -0.000000
     2  C   -0.907794   0.000000
     3  C   -0.410618  -0.000000
     4  C    0.920034   0.000000
     5  C   -0.611663  -0.000000
     6  C    0.073170   0.000000
     7  C   -0.964285  -0.000000
     8  C   -0.481681  -0.000000
     9  C    1.559485   0.000000
    10  C   -1.118205   0.000000
    11  O   -0.752938   0.000000
    12  O   -0.671994  -0.000000
    13  O   -0.326509  -0.000000
    14  O   -0.233691  -0.000000
    15  C   -0.327971  -0.000000
    16  C    0.043772   0.000000
    17  C   -0.567774   0.000000
    18  C   -0.733069   0.000000
    19  C    0.967173  -0.000000
    20  C   -0.472801  -0.000000
    21  C   -0.457408   0.000000
    22  C   -0.315948   0.000000
    23  C   -0.393928  -0.000000
    24  C   -0.350525   0.000000
    25  H    0.138488   0.000000
    26  H    0.176990  -0.000000
    27  H    0.156935   0.000000
    28  H    0.279051   0.000000
    29  H    0.180140   0.000000
    30  H    0.157887   0.000000
    31  H    0.157105   0.000000
    32  H    0.191572   0.000000
    33  H    0.184270  -0.000000
    34  H    0.168374  -0.000000
    35  H    0.151679   0.000000
    36  H    0.106976  -0.000000
    37  H    0.123278   0.000000
    38  H    0.141802   0.000000
    39  H    0.140133  -0.000000
    40  H    0.155274  -0.000000
    41  H    0.150455   0.000000
    42  H    0.139557  -0.000000
    43  H    0.174831  -0.000000
    44  H    0.125951  -0.000000
    45  H    0.119263   0.000000
    46  H    0.168825  -0.000000
    47  H    0.163901  -0.000000
    48  H    0.135208  -0.000000
 Sum of Mulliken charges =  -2.00000  -0.00000

 Dipole moment (field-independent basis, Debye):
    X=            -36.0329    Y=             -2.8514    Z=            -14.7980  Tot=             39.0574
 Quadrupole moment (field-independent basis, Debye-Ang):
   XX=           -313.4632   YY=           -185.6833   ZZ=           -203.9401
   XY=             11.4379   XZ=            -47.5120   YZ=             -5.9173

  Exact polarizability: 333.779 -64.879 374.763 -26.526 -50.841 504.107
 Approx polarizability: 371.584 -76.268 407.701 -52.395 -45.045 534.637

                      1                      2                      3
                      A                      A                      A
 Frequencies --     18.3525                19.6375                22.6311
 Red. masses --      3.4589                 4.3734                 5.1505
 Frc consts  --      0.0007                 0.0010                 0.0016
 IR Inten    --      1.6707                 4.3180                 2.5806

                      4                      5                      6
                      A                      A                      A
 Frequencies --     55.7123                68.4325                85.1863
 Red. masses --      3.9232                 3.5175                 4.6695
 Frc consts  --      0.0072                 0.0097                 0.0200
 IR Inten    --     11.3172                 3.2963                 2.5516

                      7                      8                      9
                      A                      A                      A
 Frequencies --    104.5546               110.1161               132.4139
 Red. masses --      2.9166                 3.3543                 4.0140
 Frc consts  --      0.0188                 0.0240                 0.0415
 IR Inten    --      2.4171                 0.3481                 7.4409

                     10                     11                     12
                      A                      A                      A
 Frequencies --    144.9819               159.1375               174.1374
 Red. masses --      3.9290                 4.6393                 2.7985
 Frc consts  --      0.0487                 0.0692                 0.0500
 IR Inten    --      8.4038                 6.8335                 0.5494

                     13                     14                     15
                      A                      A                      A
 Frequencies --    186.0787               222.2728               228.8324
 Red. masses --      5.3657                 1.6144                 1.7689
 Frc consts  --      0.1095                 0.0470                 0.0546
 IR Inten    --      2.8316                 0.3673                 0.0269

                     16                     17                     18
                      A                      A                      A
 Frequencies --    242.1798               265.2192               293.3770
 Red. masses --      2.4160                 3.8079                 3.2594
 Frc consts  --      0.0835                 0.1578                 0.1653
 IR Inten    --      0.2430                17.2668                 3.5525

                     19                     20                     21
                      A                      A                      A
 Frequencies --    298.8133               319.3298               323.4398
 Red. masses --      3.2423                 5.5633                 1.8541
 Frc consts  --      0.1706                 0.3342                 0.1143
 IR Inten    --     11.0793                17.7576                 1.7646

                     22                     23                     24
                      A                      A                      A
 Frequencies --    346.7063               352.7676               371.0296
 Red. masses --      4.6359                 7.3949                 4.0665
 Frc consts  --      0.3283                 0.5422                 0.3298
 IR Inten    --      0.5488                 3.9333                 4.6687

                     25                     26                     27
                      A                      A                      A
 Frequencies --    405.4910               434.4858               442.7187
 Red. masses --      6.1259                 2.3909                 5.1200
 Frc consts  --      0.5934                 0.2659                 0.5913
 IR Inten    --     15.3426                 0.4907                12.6682

                     28                     29                     30
                      A                      A                      A
 Frequencies --    445.1140               461.4723               469.0228
 Red. masses --      2.8555                 3.2619                 3.0567
 Frc consts  --      0.3333                 0.4093                 0.3962
 IR Inten    --      1.1523                 9.3758                12.1706

                     31                     32                     33
                      A                      A                      A
 Frequencies --    475.9978               497.6800               515.7246
 Red. masses --      4.6853                 5.1571                 7.9517
 Frc consts  --      0.6255                 0.7526                 1.2461
 IR Inten    --      1.0701                 7.7502                 7.1449

                     34                     35                     36
                      A                      A                      A
 Frequencies --    552.5146               602.6249               636.3968
 Red. masses --      1.9370                 3.9446                 4.0850
 Frc consts  --      0.3484                 0.8440                 0.9748
 IR Inten    --      8.0475                18.5988                33.1016

                     37                     38                     39
                      A                      A                      A
 Frequencies --    671.4602               685.5674               702.3321
 Red. masses --      3.9308                 6.3968                 2.8974
 Frc consts  --      1.0442                 1.7714                 0.8421
 IR Inten    --     19.4853                 5.3913                 6.1283

                     40                     41                     42
                      A                      A                      A
 Frequencies --    712.6557               721.1550               730.8910
 Red. masses --      7.3789                 1.3880                 1.3404
 Frc consts  --      2.2080                 0.4253                 0.4219
 IR Inten    --      4.3236                13.0852               135.5953

                     43                     44                     45
                      A                      A                      A
 Frequencies --    757.2103               762.8547               786.2643
 Red. masses --      2.5171                 2.4010                 2.3754
 Frc consts  --      0.8503                 0.8232                 0.8652
 IR Inten    --     43.3030                24.9041                32.4855

                     46                     47                     48
                      A                      A                      A
 Frequencies --    790.1760               793.0675               826.8053
 Red. masses --      2.5392                 1.6378                 1.9740
 Frc consts  --      0.9341                 0.6069                 0.7950
 IR Inten    --     17.3243                 2.7955                59.6885

                     49                     50                     51
                      A                      A                      A
 Frequencies --    846.0656               861.8442               882.4806
 Red. masses --      2.1748                 1.4626                 2.1022
 Frc consts  --      0.9172                 0.6401                 0.9646
 IR Inten    --      3.6203                52.2452                76.5945

                     52                     53                     54
                      A                      A                      A
 Frequencies --    893.4256               916.5070               923.9783
 Red. masses --      1.9700                 2.3304                 1.6238
 Frc consts  --      0.9265                 1.1534                 0.8168
 IR Inten    --      7.9259               100.5246                 6.7809

                     55                     56                     57
                      A                      A                      A
 Frequencies --    950.0289               965.8153               973.4097
 Red. masses --      3.6105                 1.3464                 2.5439
 Frc consts  --      1.9199                 0.7399                 1.4202
 IR Inten    --    100.4988                 5.4099                20.0576

                     58                     59                     60
                      A                      A                      A
 Frequencies --   1006.5174              1016.1242              1033.1917
 Red. masses --      2.0069                 3.3876                 2.5278
 Frc consts  --      1.1979                 2.0608                 1.5898
 IR Inten    --      6.4163                 8.3744               189.2068

                     61                     62                     63
                      A                      A                      A
 Frequencies --   1036.3502              1041.8709              1047.3210
 Red. masses --      1.8574                 2.4537                 5.0613
 Frc consts  --      1.1753                 1.5692                 3.2709
 IR Inten    --      3.7368                52.9467                92.9532

                     64                     65                     66
                      A                      A                      A
 Frequencies --   1070.0762              1089.7269              1090.6413
 Red. masses --      1.3787                 1.8108                 1.5546
 Frc consts  --      0.9301                 1.2669                 1.0895
 IR Inten    --     22.0187                25.4412                 2.3432

                     67                     68                     69
                      A                      A                      A
 Frequencies --   1098.1682              1104.6128              1118.9237
 Red. masses --      1.9980                 2.5028                 2.1889
 Frc consts  --      1.4196                 1.7992                 1.6147
 IR Inten    --     50.4613                 5.9689                17.1681

                     70                     71                     72
                      A                      A                      A
 Frequencies --   1141.6774              1167.1403              1176.3403
 Red. masses --      2.3072                 1.2774                 1.9185
 Frc consts  --      1.7718                 1.0253                 1.5641
 IR Inten    --    113.4358                 1.3000               209.0823

                     73                     74                     75
                      A                      A                      A
 Frequencies --   1182.5574              1189.8389              1202.8328
 Red. masses --      1.7720                 1.8956                 1.5826
 Frc consts  --      1.4600                 1.5811                 1.3491
 IR Inten    --     58.8875               174.2885                 4.6120

                     76                     77                     78
                      A                      A                      A
 Frequencies --   1219.4334              1234.7621              1253.9219
 Red. masses --      3.1270                 2.6700                 1.4194
 Frc consts  --      2.7396                 2.3985                 1.3149
 IR Inten    --    493.2852               180.4817                 9.8126

                     79                     80                     81
                      A                      A                      A
 Frequencies --   1267.5386              1274.0231              1282.5693
 Red. masses --      1.8261                 1.3252                 1.2333
 Frc consts  --      1.7286                 1.2673                 1.1953
 IR Inten    --     47.1423                24.6451                25.2398

                     82                     83                     84
                      A                      A                      A
 Frequencies --   1284.5940              1304.0883              1318.4540
 Red. masses --      1.2705                 1.3153                 3.8117
 Frc consts  --      1.2352                 1.3180                 3.9039
 IR Inten    --      3.0637                76.2885               526.4250

                     85                     86                     87
                      A                      A                      A
 Frequencies --   1319.1522              1326.3875              1335.9323
 Red. masses --      1.2602                 1.2325                 1.6892
 Frc consts  --      1.2920                 1.2775                 1.7762
 IR Inten    --    109.3201                55.0950                92.9471

                     88                     89                     90
                      A                      A                      A
 Frequencies --   1341.6991              1356.6339              1364.0013
 Red. masses --      1.2840                 1.5663                 1.3861
 Frc consts  --      1.3619                 1.6984                 1.5194
 IR Inten    --      4.6656                25.1530                 4.3257

                     91                     92                     93
                      A                      A                      A
 Frequencies --   1368.6621              1371.0198              1373.7773
 Red. masses --      1.4231                 1.5057                 1.5577
 Frc consts  --      1.5707                 1.6675                 1.7321
 IR Inten    --     19.3617                 1.3174                12.9393

                     94                     95                     96
                      A                      A                      A
 Frequencies --   1381.9287              1385.2145              1393.5784
 Red. masses --      3.4401                 1.6642                 1.5187
 Frc consts  --      3.8708                 1.8814                 1.7377
 IR Inten    --    882.3866               126.1536                 2.1998

                     97                     98                     99
                      A                      A                      A
 Frequencies --   1404.0937              1422.8098              1455.8519
 Red. masses --      3.4079                 4.8994                 1.1249
 Frc consts  --      3.9585                 5.8437                 1.4047
 IR Inten    --    367.6571               142.0079                 6.2833

                    100                    101                    102
                      A                      A                      A
 Frequencies --   1458.6206              1471.7246              1477.7906
 Red. masses --      1.7782                 1.0863                 1.0460
 Frc consts  --      2.2290                 1.3863                 1.3458
 IR Inten    --    160.0649                 0.4994                11.8084

                    103                    104                    105
                      A                      A                      A
 Frequencies --   1477.8811              1479.4665              1480.9484
 Red. masses --      1.0906                 1.0947                 1.6699
 Frc consts  --      1.4035                 1.4118                 2.1578
 IR Inten    --      0.2356                 4.1641                42.9558

                    106                    107                    108
                      A                      A                      A
 Frequencies --   1481.4622              1483.4875              1492.8099
 Red. masses --      1.0970                 1.0852                 1.1019
 Frc consts  --      1.4186                 1.4071                 1.4467
 IR Inten    --      8.9360                12.1931                 8.9548

                    109                    110                    111
                      A                      A                      A
 Frequencies --   1496.6471              1496.8813              1515.6687
 Red. masses --      1.1200                 1.0999                 4.5019
 Frc consts  --      1.4781                 1.4520                 6.0933
 IR Inten    --     35.6150                 7.3136                 5.5431

                    112                    113                    114
                      A                      A                      A
 Frequencies --   1551.5881              1595.5708              1623.5310
 Red. masses --      5.1769                 5.5041                 6.6287
 Frc consts  --      7.3430                 8.2560                10.2944
 IR Inten    --    287.7270               532.9578               109.8313

                    115                    116                    117
                      A                      A                      A
 Frequencies --   2960.7567              2978.3430              2982.2690
 Red. masses --      1.0801                 1.0597                 1.0680
 Frc consts  --      5.5788                 5.5385                 5.5967
 IR Inten    --     14.2025                28.4377                31.0834

                    118                    119                    120
                      A                      A                      A
 Frequencies --   2990.0356              2992.2322              2994.8283
 Red. masses --      1.0686                 1.0703                 1.0631
 Frc consts  --      5.6287                 5.6458                 5.6178
 IR Inten    --    101.8871                37.9331                22.4303

                    121                    122                    123
                      A                      A                      A
 Frequencies --   2997.3367              2998.4727              3002.0274
 Red. masses --      1.0599                 1.0612                 1.0337
 Frc consts  --      5.6106                 5.6213                 5.4888
 IR Inten    --    124.1947                85.9953                83.2273

                    124                    125                    126
                      A                      A                      A
 Frequencies --   3006.9789              3013.1354              3032.0065
 Red. masses --      1.0945                 1.0657                 1.0954
 Frc consts  --      5.8308                 5.7007                 5.9331
 IR Inten    --     47.6365               134.8316               143.2750

                    127                    128                    129
                      A                      A                      A
 Frequencies --   3035.6650              3036.6658              3038.5573
 Red. masses --      1.0980                 1.0991                 1.0903
 Frc consts  --      5.9614                 5.9715                 5.9309
 IR Inten    --     23.6896                83.4283                94.5432

                    130                    131                    132
                      A                      A                      A
 Frequencies --   3042.2521              3051.4278              3057.2732
 Red. masses --      1.1035                 1.0953                 1.1058
 Frc consts  --      6.0174                 6.0090                 6.0895
 IR Inten    --    164.3189               113.0964                70.3740

                    133                    134                    135
                      A                      A                      A
 Frequencies --   3061.6189              3123.4415              3159.2068
 Red. masses --      1.1004                 1.0998                 1.0859
 Frc consts  --      6.0770                 6.3219                 6.3853
 IR Inten    --    129.0326                43.3575                 4.4832

                    136                    137                    138
                      A                      A                      A
 Frequencies --   3176.2977              3201.4408              3362.6922
 Red. masses --      1.0933                 1.0878                 1.0641
 Frc consts  --      6.4987                 6.5686                 7.0893
 IR Inten    --     46.4697                18.8912               279.6525

 - Thermochemistry -
 -------------------
 Temperature   298.150 Kelvin.  Pressure   1.00000 Atm.
 Atom     1 has atomic number  6 and mass  12.00000

 Molecular mass:   328.16746 amu.
 Principal axes and moments of inertia in atomic units:
                           1         2         3
     Eigenvalues --  3091.52282********************
           X            0.27001  -0.60960   0.74531
           Y           -0.23242   0.70991   0.66484
           Z            0.93439   0.35274  -0.05000
 This molecule is an asymmetric top.
 Rotational symmetry number  1.
 Warning -- assumption of classical behavior for rotation
           may cause significant error
 Rotational temperatures (Kelvin)      0.02802     0.00375     0.00357
 Rotational constants (GHZ):           0.58377     0.07806     0.07446
 Zero-point vibrational energy    1048955.4 (Joules/Mol)
                                  250.70637 (Kcal/Mol)
 Warning -- explicit consideration of  35 degrees of freedom as
           vibrations may cause significant error
 Vibrational temperatures:     26.41    28.25    32.56    80.16    98.46
          (Kelvin)            122.56   150.43   158.43   190.51   208.60
                              228.96   250.54   267.73   319.80   329.24
                              348.44   381.59   422.10   429.93   459.44
                              465.36   498.83   507.55   533.83   583.41
                              625.13   636.97   640.42   663.96   674.82
                              684.85   716.05   742.01   794.95   867.04
                              915.63   966.08   986.38  1010.50  1025.35
                             1037.58  1051.59  1089.46  1097.58  1131.26
                             1136.89  1141.05  1189.59  1217.30  1240.00
                             1269.69  1285.44  1318.65  1329.40  1366.88
                             1389.59  1400.52  1448.15  1461.98  1486.53
                             1491.08  1499.02  1506.86  1539.60  1567.87
                             1569.19  1580.02  1589.29  1609.88  1642.62
                             1679.25  1692.49  1701.44  1711.91  1730.61
                             1754.49  1776.55  1804.11  1823.71  1833.04
                             1845.33  1848.24  1876.29  1896.96  1897.97
                             1908.38  1922.11  1930.41  1951.89  1962.49
                             1969.20  1972.59  1976.56  1988.29  1993.01
                             2005.05  2020.18  2047.11  2094.65  2098.63
                             2117.48  2126.21  2126.34  2128.62  2130.75
                             2131.49  2134.41  2147.82  2153.34  2153.68
                             2180.71  2232.39  2295.67  2335.90  4259.87
                             4285.17  4290.82  4301.99  4305.15  4308.89
                             4312.50  4314.13  4319.25  4326.37  4335.23
                             4362.38  4367.64  4369.08  4371.81  4377.12
                             4390.32  4398.73  4404.99  4493.94  4545.39
                             4569.98  4606.16  4838.16

 Zero-point correction=                           0.399526 (Hartree/Particle)
 Thermal correction to Energy=                    0.421923
 Thermal correction to Enthalpy=                  0.422867
 Thermal correction to Gibbs Free Energy=         0.346044
 Sum of electronic and zero-point Energies=          -1077.639285
 Sum of electronic and thermal Energies=             -1077.616888
 Sum of electronic and thermal Enthalpies=           -1077.615944
 Sum of electronic and thermal Free Energies=        -1077.692767

                     E (Thermal)             CV                S
                      KCal/Mol        Cal/Mol-Kelvin    Cal/Mol-Kelvin
 Total                  264.761             87.530            161.688
 Electronic               0.000              0.000              0.000
 Translational            0.889              2.981             43.260
 Rotational               0.889              2.981             35.803
 Vibrational            262.983             81.569             82.625
 Vibration     1          0.593              1.986              6.805
 Vibration     2          0.593              1.986              6.671
 Vibration     3          0.593              1.985              6.389
 Vibration     4          0.596              1.975              4.604
 Vibration     5          0.598              1.969              4.198
 Vibration     6          0.601              1.959              3.768
 Vibration     7          0.605              1.946              3.368
 Vibration     8          0.606              1.941              3.267
 Vibration     9          0.613              1.921              2.911
 Vibration    10          0.616              1.908              2.737
 Vibration    11          0.621              1.892              2.560
 Vibration    12          0.627              1.874              2.390
 Vibration    13          0.632              1.859              2.267
 Vibration    14          0.648              1.807              1.940
 Vibration    15          0.652              1.797              1.888
 Vibration    16          0.658              1.776              1.787
 Vibration    17          0.671              1.737              1.627
 Vibration    18          0.688              1.686              1.454
 Vibration    19          0.692              1.676              1.424
 Vibration    20          0.705              1.637              1.314
 Vibration    21          0.708              1.629              1.293
 Vibration    22          0.725              1.582              1.181
 Vibration    23          0.729              1.570              1.154
 Vibration    24          0.743              1.532              1.076
 Vibration    25          0.770              1.458              0.943
 Vibration    26          0.795              1.395              0.844
 Vibration    27          0.802              1.377              0.818
 Vibration    28          0.804              1.372              0.811
 Vibration    29          0.819              1.336              0.762
 Vibration    30          0.826              1.319              0.740
 Vibration    31          0.833              1.303              0.721
 Vibration    32          0.853              1.255              0.664
 Vibration    33          0.871              1.215              0.620
 Vibration    34          0.908              1.134              0.539
 Vibration    35          0.961              1.026              0.445

 Optimization completed.
    -- Stationary point found.
 Normal termination of Gaussian 16 at Mon Feb 12 02:04:20 2024.
