 Gaussian 16, Revision A.03,
 Gaussian 16:  ES64L-G16RevA.03 25-Dec-2016

 ----------------------------------------------------------------------
 #P UB3LYP/6-311++G(d,p) nosym opt freq SCRF=(PCM,Solvent=n,n-DiMethylF
 ormamide)
 ----------------------------------------------------------------------

 -------
 Radical
 -------
 Symbolic Z-matrix:
 Charge = -1 Multiplicity = 2

 SCF Done:  E(UB3LYP) =  -1109.98119130     A.U. after   19 cycles
 SCF Done:  E(UB3LYP) =  -1109.98105944     A.U. after   20 cycles
 SCF Done:  E(UB3LYP) =  -1109.98164754     A.U. after   16 cycles
 SCF Done:  E(UB3LYP) =  -1109.98175360     A.U. after   15 cycles
 SCF Done:  E(UB3LYP) =  -1109.98179635     A.U. after   15 cycles
 SCF Done:  E(UB3LYP) =  -1109.98182136     A.U. after   13 cycles
 SCF Done:  E(UB3LYP) =  -1109.98183462     A.U. after   13 cycles
 SCF Done:  E(UB3LYP) =  -1109.98184596     A.U. after   14 cycles
 SCF Done:  E(UB3LYP) =  -1109.98184760     A.U. after   12 cycles
 SCF Done:  E(UB3LYP) =  -1109.98184800     A.U. after   11 cycles
 SCF Done:  E(UB3LYP) =  -1109.98184805     A.U. after   10 cycles
 SCF Done:  E(UB3LYP) =  -1109.98184809     A.U. after    9 cycles
 SCF Done:  E(UB3LYP) =  -1109.98184821     A.U. after   10 cycles
 SCF Done:  E(UB3LYP) =  -1109.98184823     A.U. after    9 cycles
 SCF Done:  E(UB3LYP) =  -1109.98184824     A.U. after   10 cycles
 Optimization completed.
    -- Stationary point found.
 Normal termination of Gaussian 16 at Sat Feb 10 18:15:25 2024.

 ----------------------------------------------------------------------
 #P Geom=AllCheck Guess=TCheck SCRF=Check GenChk UB3LYP/6-311++G(d,p) F
 req
 ----------------------------------------------------------------------

 Structure from the checkpoint file:  "149-rad.chk"
 -------
 Radical
 -------
 Charge = -1 Multiplicity = 2

                          Input orientation:
 ---------------------------------------------------------------------
 Center     Atomic      Atomic             Coordinates (Angstroms)
 Number     Number       Type             X           Y           Z
 ---------------------------------------------------------------------
      1          6           0       -3.103551    3.493316    1.098389
      2          6           0       -4.015749    2.857799    1.917285
      3          6           0       -3.862180    1.486156    2.211480
      4          6           0       -2.006400    2.797328    0.541196
      5          6           0       -1.853057    1.415865    0.838750
      6          6           0       -2.799236    0.784891    1.679527
      7          6           0       -1.068260    3.524083   -0.322390
      8          6           0        0.060013    2.758799   -0.859380
      9          6           0        0.199586    1.358976   -0.567793
     10          6           0       -0.745014    0.644665    0.290390
     11          6           0        1.055774    3.332456   -1.701651
     12          6           0        2.090713    2.590821   -2.233601
     13          6           0        2.202729    1.219817   -1.941580
     14          6           0        1.272582    0.623928   -1.118955
     15          8           0       -1.254322    4.743853   -0.574137
     16          8           0       -0.605560   -0.585495    0.544006
     17          1           0       -2.665787   -0.268297    1.894743
     18          1           0        1.337118   -0.429069   -0.876498
     19          1           0       -3.208677    4.545633    0.865585
     20          8           0        0.996748    4.663846   -2.106757
     21          1           0        3.018267    0.643599   -2.363692
     22          1           0       -4.578559    0.986354    2.854507
     23          6           0        1.544522    5.642133   -1.322288
     24          6           0        1.434770    6.960568   -1.806026
     25          6           0        2.218771    5.402955   -0.125225
     26          6           0        2.785325    6.463326    0.584969
     27          6           0        2.008783    8.006742   -1.091342
     28          6           0        2.687684    7.766546    0.105268
     29          8           0        0.824270    7.214758   -3.014155
     30          6           0       -0.616520    7.155349   -2.986228
     31          1           0       -4.849758    3.411148    2.335273
     32          1           0        2.808371    3.087108   -2.876206
     33          1           0        2.305861    4.390090    0.246619
     34          1           0        3.306888    6.259758    1.513314
     35          1           0        1.917906    9.010489   -1.491255
     36          1           0        3.131445    8.590133    0.652068
     37          1           0       -0.945126    7.213090   -4.023609
     38          1           0       -1.013882    8.010981   -2.429814
     39          1           0       -0.956503    6.226074   -2.527136
 ---------------------------------------------------------------------

 SCF Done:  E(UB3LYP) =  -1109.98184824     A.U. after    1 cycles

 Alpha  occ. eigenvalues --  -19.16205 -19.14100 -19.07593 -19.07453 -10.24157
 Alpha  occ. eigenvalues --  -10.23966 -10.22916 -10.22899 -10.22489 -10.20798
 Alpha  occ. eigenvalues --  -10.18454 -10.17916 -10.17735 -10.17716 -10.17694
 Alpha  occ. eigenvalues --  -10.17609 -10.17561 -10.17476 -10.17399 -10.17386
 Alpha  occ. eigenvalues --  -10.17336 -10.17327 -10.17124 -10.17120 -10.17069
 Alpha  occ. eigenvalues --   -1.08599  -1.04988  -1.00180  -0.99898  -0.86728
 Alpha  occ. eigenvalues --   -0.85784  -0.85089  -0.78923  -0.77045  -0.75557
 Alpha  occ. eigenvalues --   -0.75116  -0.74357  -0.73390  -0.68643  -0.67161
 Alpha  occ. eigenvalues --   -0.64998  -0.62986  -0.62253  -0.60200  -0.58223
 Alpha  occ. eigenvalues --   -0.56443  -0.54426  -0.53434  -0.52212  -0.50209
 Alpha  occ. eigenvalues --   -0.49602  -0.47986  -0.47226  -0.46674  -0.46190
 Alpha  occ. eigenvalues --   -0.45799  -0.45509  -0.44108  -0.43412  -0.42541
 Alpha  occ. eigenvalues --   -0.42430  -0.41952  -0.41409  -0.40970  -0.40621
 Alpha  occ. eigenvalues --   -0.39333  -0.38184  -0.37891  -0.37685  -0.36960
 Alpha  occ. eigenvalues --   -0.36484  -0.35948  -0.35203  -0.34650  -0.33942
 Alpha  occ. eigenvalues --   -0.33564  -0.33278  -0.28275  -0.27045  -0.25790
 Alpha  occ. eigenvalues --   -0.25567  -0.25419  -0.25097  -0.24554  -0.23775
 Alpha  occ. eigenvalues --   -0.22541  -0.14410
 Alpha virt. eigenvalues --   -0.05670  -0.02707  -0.01406  -0.00704  -0.00597
 Alpha virt. eigenvalues --   -0.00278   0.00332   0.00602   0.01040   0.01818
 Alpha virt. eigenvalues --    0.01908   0.02408   0.03307   0.03400   0.03714

  Beta  occ. eigenvalues --  -19.16203 -19.14100 -19.07031 -19.06881 -10.24155
  Beta  occ. eigenvalues --  -10.23964 -10.22900 -10.22764 -10.22309 -10.20798
  Beta  occ. eigenvalues --  -10.18370 -10.17821 -10.17734 -10.17693 -10.17658
  Beta  occ. eigenvalues --  -10.17609 -10.17504 -10.17399 -10.17349 -10.17337
  Beta  occ. eigenvalues --  -10.17328 -10.17291 -10.17122 -10.17109 -10.17074
  Beta  occ. eigenvalues --   -1.08588  -1.04986  -0.99197  -0.98892  -0.86546
  Beta  occ. eigenvalues --   -0.85661  -0.85009  -0.78525  -0.76942  -0.75556
  Beta  occ. eigenvalues --   -0.74920  -0.74173  -0.73286  -0.68619  -0.66470
  Beta  occ. eigenvalues --   -0.64888  -0.62855  -0.62008  -0.60189  -0.58165
  Beta  occ. eigenvalues --   -0.56318  -0.54200  -0.53280  -0.52162  -0.50080
  Beta  occ. eigenvalues --   -0.49590  -0.47862  -0.47016  -0.46634  -0.46139
  Beta  occ. eigenvalues --   -0.45713  -0.45426  -0.44054  -0.43365  -0.42462
  Beta  occ. eigenvalues --   -0.41957  -0.41652  -0.40854  -0.40544  -0.40266
  Beta  occ. eigenvalues --   -0.39207  -0.37964  -0.37587  -0.36939  -0.36340
  Beta  occ. eigenvalues --   -0.36002  -0.35478  -0.35082  -0.34438  -0.33505
  Beta  occ. eigenvalues --   -0.33385  -0.32690  -0.28264  -0.25474  -0.25396
  Beta  occ. eigenvalues --   -0.24928  -0.24625  -0.24464  -0.24032  -0.23392
  Beta  occ. eigenvalues --   -0.22390
  Beta virt. eigenvalues --   -0.08512  -0.04704  -0.01931  -0.01163  -0.00644
  Beta virt. eigenvalues --   -0.00402  -0.00245   0.00335   0.00605   0.01048
  Beta virt. eigenvalues --    0.01822   0.01919   0.02410   0.03316   0.03425

 Mulliken charges and spin densities:
               1          2
     1  C   -0.133359   0.019104
     2  C   -0.412913   0.041064
     3  C   -0.510242   0.024389
     4  C    0.137643   0.034048
     5  C    0.348796   0.026403
     6  C   -0.061712   0.029107
     7  C   -0.379119   0.073967
     8  C    0.312736   0.058622
     9  C    0.729750   0.062572
    10  C   -0.682816   0.096555
    11  C   -0.278185   0.012308
    12  C    0.258265   0.043702
    13  C   -0.463218   0.045751
    14  C   -0.060021   0.022701
    15  O   -0.393501   0.216478
    16  O   -0.464657   0.208697
    17  H    0.174271  -0.001713
    18  H    0.183192  -0.001761
    19  H    0.153614  -0.000929
    20  O   -0.034352  -0.002520
    21  H    0.199883  -0.003599
    22  H    0.179458  -0.002185
    23  C    0.219303   0.001326
    24  C   -0.430143   0.011977
    25  C   -0.264941  -0.012343
    26  C   -0.396876   0.000425
    27  C    0.163997   0.000168
    28  C   -0.270205   0.000869
    29  O   -0.188820  -0.000066
    30  C   -0.293202   0.000514
    31  H    0.184932  -0.003245
    32  H    0.189726  -0.003341
    33  H    0.180214   0.000296
    34  H    0.206113  -0.000057
    35  H    0.207272  -0.000040
    36  H    0.179497   0.000125
    37  H    0.155243   0.000095
    38  H    0.135685  -0.000113
    39  H    0.218692   0.000651
 Sum of Mulliken charges =  -1.00000   1.00000

 Dipole moment (field-independent basis, Debye):
    X=              2.7040    Y=            -11.8443    Z=              2.3342  Tot=             12.3712
 Quadrupole moment (field-independent basis, Debye-Ang):
   XX=           -148.5820   YY=           -213.1438   ZZ=           -156.5774
   XY=             -0.7106   XZ=              3.1457   YZ=             21.7931

  Exact polarizability: 447.316  -8.891 493.054-113.176 -39.112 350.447
 Approx polarizability: 470.480 -25.413 560.577-104.801 -47.692 397.136

                      1                      2                      3
                      A                      A                      A
 Frequencies --     17.1738                38.3054                46.4954
 Red. masses --      5.6088                 6.5616                 5.3821
 Frc consts  --      0.0010                 0.0057                 0.0069
 IR Inten    --      0.7836                 0.9449                 0.9477

                      4                      5                      6
                      A                      A                      A
 Frequencies --     54.5361                87.4876                99.2046
 Red. masses --      7.0939                 3.2421                 4.4419
 Frc consts  --      0.0124                 0.0146                 0.0258
 IR Inten    --     17.2673                 7.8524                 3.3765

                      7                      8                      9
                      A                      A                      A
 Frequencies --    126.2306               131.9231               161.0777
 Red. masses --      4.8400                 3.9057                 1.6925
 Frc consts  --      0.0454                 0.0400                 0.0259
 IR Inten    --      0.1786                 2.0013                 1.7569

                     10                     11                     12
                      A                      A                      A
 Frequencies --    162.5530               183.2893               212.1830
 Red. masses --      2.4477                 3.8535                 4.6609
 Frc consts  --      0.0381                 0.0763                 0.1236
 IR Inten    --      3.8487                 9.4983                 9.5237

                     13                     14                     15
                      A                      A                      A
 Frequencies --    214.5642               237.2820               279.4305
 Red. masses --      4.8041                 5.1977                 5.4739
 Frc consts  --      0.1303                 0.1724                 0.2518
 IR Inten    --      0.6337                 3.4868                 0.2022

                     16                     17                     18
                      A                      A                      A
 Frequencies --    310.4516               348.8266               355.2698
 Red. masses --      7.8773                 4.7255                 5.5675
 Frc consts  --      0.4473                 0.3388                 0.4140
 IR Inten    --      2.4041                 5.0245                 1.3741

                     19                     20                     21
                      A                      A                      A
 Frequencies --    388.3985               400.3811               419.9267
 Red. masses --     12.3489                 8.5829                 6.0303
 Frc consts  --      1.0976                 0.8106                 0.6265
 IR Inten    --     22.1214                 3.8397                 0.0524

                     22                     23                     24
                      A                      A                      A
 Frequencies --    432.8885               459.8588               470.7962
 Red. masses --      3.4658                 5.7771                 5.9409
 Frc consts  --      0.3826                 0.7198                 0.7758
 IR Inten    --      1.3330                 7.8667                 1.9788

                     25                     26                     27
                      A                      A                      A
 Frequencies --    476.9872               497.2789               500.7610
 Red. masses --      5.6395                 6.5546                 3.9500
 Frc consts  --      0.7560                 0.9550                 0.5836
 IR Inten    --      4.2093                 1.5353                 0.4154

                     28                     29                     30
                      A                      A                      A
 Frequencies --    510.3103               557.3838               594.2965
 Red. masses --      5.4028                 5.0756                 5.1730
 Frc consts  --      0.8290                 0.9291                 1.0765
 IR Inten    --      3.8307                 8.7064                 5.8695

                     31                     32                     33
                      A                      A                      A
 Frequencies --    598.1237               611.5809               625.8113
 Red. masses --      4.9664                 6.3266                 5.6969
 Frc consts  --      1.0468                 1.3942                 1.3146
 IR Inten    --      5.5384                34.2594                 2.9891

                     34                     35                     36
                      A                      A                      A
 Frequencies --    656.0674               676.9700               694.7643
 Red. masses --      5.3027                 4.9569                 6.5319
 Frc consts  --      1.3448                 1.3384                 1.8577
 IR Inten    --     17.7026                21.6092                 6.0179

                     37                     38                     39
                      A                      A                      A
 Frequencies --    705.8221               736.4454               750.0182
 Red. masses --      2.7822                 3.6321                 2.1482
 Frc consts  --      0.8166                 1.1606                 0.7120
 IR Inten    --     88.1732                 4.0171                65.6575

                     40                     41                     42
                      A                      A                      A
 Frequencies --    759.4338               768.7966               786.3744
 Red. masses --      1.7438                 1.8688                 3.3754
 Frc consts  --      0.5926                 0.6508                 1.2298
 IR Inten    --     31.8479                40.0406                13.8448

                     43                     44                     45
                      A                      A                      A
 Frequencies --    794.8484               795.7994               829.6025
 Red. masses --      2.0635                 5.4621                 3.7511
 Frc consts  --      0.7681                 2.0381                 1.5211
 IR Inten    --     59.9295                 2.4125                23.6477

                     46                     47                     48
                      A                      A                      A
 Frequencies --    839.9729               864.3882               885.1831
 Red. masses --      4.0284                 1.6078                 1.4908
 Frc consts  --      1.6746                 0.7078                 0.6882
 IR Inten    --     27.1759                 2.1557                 0.1815

                     49                     50                     51
                      A                      A                      A
 Frequencies --    891.9021               921.2753               933.4030
 Red. masses --      7.1479                 1.5007                 6.6697
 Frc consts  --      3.3501                 0.7505                 3.4237
 IR Inten    --    142.0114                 3.0520                 1.4451

                     52                     53                     54
                      A                      A                      A
 Frequencies --    946.4712               981.1676               988.6054
 Red. masses --      1.3938                 1.2729                 1.3610
 Frc consts  --      0.7356                 0.7220                 0.7837
 IR Inten    --      4.8617                 0.0143                 1.5370

                     55                     56                     57
                      A                      A                      A
 Frequencies --    992.9339              1001.3093              1004.9110
 Red. masses --      1.3199                 1.2908                 8.1703
 Frc consts  --      0.7667                 0.7625                 4.8612
 IR Inten    --      1.8364                 0.0727                86.3806

                     58                     59                     60
                      A                      A                      A
 Frequencies --   1015.3491              1041.3266              1055.8688
 Red. masses --      5.8052                 2.0164                 1.9977
 Frc consts  --      3.5261                 1.2882                 1.3122
 IR Inten    --    120.9472                33.1215                53.1798

                     61                     62                     63
                      A                      A                      A
 Frequencies --   1081.2083              1112.6739              1120.5059
 Red. masses --      1.9180                 2.1748                 1.8727
 Frc consts  --      1.3210                 1.5863                 1.3853
 IR Inten    --     43.4533                28.2781               112.2955

                     64                     65                     66
                      A                      A                      A
 Frequencies --   1143.1828              1167.0341              1169.7095
 Red. masses --      1.4430                 1.2485                 1.2522
 Frc consts  --      1.1111                 1.0019                 1.0094
 IR Inten    --     40.0559                 6.2675                 9.3544

                     67                     68                     69
                      A                      A                      A
 Frequencies --   1172.1536              1182.7118              1191.4226
 Red. masses --      1.1383                 2.4367                 1.7344
 Frc consts  --      0.9214                 2.0083                 1.4505
 IR Inten    --     20.6344                11.4823                97.0608

                     70                     71                     72
                      A                      A                      A
 Frequencies --   1200.2033              1219.6978              1229.0812
 Red. masses --      2.0692                 2.4236                 2.6661
 Frc consts  --      1.7561                 2.1243                 2.3730
 IR Inten    --      2.8327                21.2743                87.4753

                     73                     74                     75
                      A                      A                      A
 Frequencies --   1236.8000              1244.7880              1270.4960
 Red. masses --      3.2802                 2.0633                 3.6127
 Frc consts  --      2.9563                 1.8836                 3.4358
 IR Inten    --    420.8911               167.4478               510.7607

                     76                     77                     78
                      A                      A                      A
 Frequencies --   1291.8704              1328.2634              1331.0039
 Red. masses --      1.6081                 7.6980                 5.2378
 Frc consts  --      1.5812                 8.0020                 5.4672
 IR Inten    --      6.8022                34.9759                23.8588

                     79                     80                     81
                      A                      A                      A
 Frequencies --   1354.7218              1363.7344              1398.9227
 Red. masses --      3.3928                10.7473                 3.7395
 Frc consts  --      3.6687                11.7763                 4.3117
 IR Inten    --     11.3286                 1.4491              1111.8744

                     82                     83                     84
                      A                      A                      A
 Frequencies --   1433.5432              1465.6035              1477.9229
 Red. masses --      2.7212                 1.3777                 2.5845
 Frc consts  --      3.2948                 1.7435                 3.3260
 IR Inten    --    286.0614                 9.3480                57.6917

                     85                     86                     87
                      A                      A                      A
 Frequencies --   1479.4887              1482.7624              1485.2735
 Red. masses --      1.5409                 1.2780                 2.9300
 Frc consts  --      1.9872                 1.6555                 3.8083
 IR Inten    --    124.1235                70.6680                 5.2669

                     88                     89                     90
                      A                      A                      A
 Frequencies --   1500.8908              1507.0945              1517.1510
 Red. masses --      1.0648                 3.7693                 2.9667
 Frc consts  --      1.4132                 5.0443                 4.0233
 IR Inten    --     29.8613              1319.6414               284.6840

                     91                     92                     93
                      A                      A                      A
 Frequencies --   1527.2396              1559.4159              1606.9851
 Red. masses --      5.4939                 5.4898                 7.9759
 Frc consts  --      7.5500                 7.8656                12.1355
 IR Inten    --     78.5045               147.9699                21.5643

                     94                     95                     96
                      A                      A                      A
 Frequencies --   1616.0827              1620.0407              1628.0350
 Red. masses --      6.1497                 6.4597                 6.1532
 Frc consts  --      9.4631                 9.9889                 9.6090
 IR Inten    --     19.1643                16.5989                19.9767

                     97                     98                     99
                      A                      A                      A
 Frequencies --   1629.6248              3012.6649              3096.0266
 Red. masses --      6.1216                 1.0376                 1.0952
 Frc consts  --      9.5784                 5.5486                 6.1854
 IR Inten    --      9.7181               108.3034                40.9445

                    100                    101                    102
                      A                      A                      A
 Frequencies --   3136.2524              3159.7110              3168.2749
 Red. masses --      1.1078                 1.0861                 1.0859
 Frc consts  --      6.4201                 6.3890                 6.4223
 IR Inten    --     15.3487                14.0384                 0.2268

                    103                    104                    105
                      A                      A                      A
 Frequencies --   3170.4628              3173.8397              3177.6275
 Red. masses --      1.0871                 1.0906                 1.0904
 Frc consts  --      6.4385                 6.4728                 6.4868
 IR Inten    --     20.1906                23.6049                22.0360

                    106                    107                    108
                      A                      A                      A
 Frequencies --   3188.0318              3189.8735              3191.1781
 Red. masses --      1.0921                 1.0949                 1.0918
 Frc consts  --      6.5397                 6.5643                 6.5507
 IR Inten    --     10.0447                27.9178                14.7321

                    109                    110                    111
                      A                      A                      A
 Frequencies --   3194.2961              3197.7637              3199.0394
 Red. masses --      1.0942                 1.0944                 1.0941
 Frc consts  --      6.5782                 6.5934                 6.5967
 IR Inten    --     49.1362                21.3520                 4.1504

 - Thermochemistry -
 -------------------
 Temperature   298.150 Kelvin.  Pressure   1.00000 Atm.
 Atom     1 has atomic number  6 and mass  12.00000

 Molecular mass:   330.08921 amu.
 Principal axes and moments of inertia in atomic units:
                           1         2         3
     Eigenvalues --  4781.05854********************
           X            0.51611   0.70692   0.48363
           Y            0.78426  -0.61702   0.06496
           Z           -0.34433  -0.34577   0.87286
 This molecule is an asymmetric top.
 Rotational symmetry number  1.
 Warning -- assumption of classical behavior for rotation
           may cause significant error
 Rotational temperatures (Kelvin)      0.01812     0.00747     0.00621
 Rotational constants (GHZ):           0.37748     0.15558     0.12940
 Zero-point vibrational energy     768794.8 (Joules/Mol)
                                  183.74638 (Kcal/Mol)
 Warning -- explicit consideration of  32 degrees of freedom as
           vibrations may cause significant error
 Vibrational temperatures:     24.71    55.11    66.90    78.47   125.88
          (Kelvin)            142.73   181.62   189.81   231.75   233.88
                              263.71   305.28   308.71   341.40   402.04
                              446.67   501.88   511.15   558.82   576.06
                              604.18   622.83   661.63   677.37   686.28
                              715.47   720.48   734.22   801.95   855.06
                              860.57   879.93   900.40   943.93   974.01
                              999.61  1015.52  1059.58  1079.11  1092.66
                             1106.13  1131.42  1143.61  1144.98  1193.61
                             1208.53  1243.66  1273.58  1283.25  1325.51
                             1342.96  1361.76  1411.68  1422.38  1428.61
                             1440.66  1445.84  1460.86  1498.24  1519.16
                             1555.62  1600.89  1612.16  1644.79  1679.10
                             1682.95  1686.47  1701.66  1714.19  1726.82
                             1754.87  1768.37  1779.48  1790.97  1827.96
                             1858.71  1911.07  1915.02  1949.14  1962.11
                             2012.74  2062.55  2108.68  2126.40  2128.65
                             2133.36  2136.98  2159.45  2168.37  2182.84
                             2197.36  2243.65  2312.09  2325.18  2330.88
                             2342.38  2344.67  4334.55  4454.49  4512.37
                             4546.12  4558.44  4561.59  4566.45  4571.90
                             4586.87  4589.52  4591.39  4595.88  4600.87
                             4602.70

 Zero-point correction=                           0.292818 (Hartree/Particle)
 Thermal correction to Energy=                    0.312582
 Thermal correction to Enthalpy=                  0.313527
 Thermal correction to Gibbs Free Energy=         0.242702
 Sum of electronic and zero-point Energies=          -1109.689030
 Sum of electronic and thermal Energies=             -1109.669266
 Sum of electronic and thermal Enthalpies=           -1109.668322
 Sum of electronic and thermal Free Energies=        -1109.739147

                     E (Thermal)             CV                S
                      KCal/Mol        Cal/Mol-Kelvin    Cal/Mol-Kelvin
 Total                  196.148             78.457            149.064
 Electronic               0.000              0.000              1.377
 Translational            0.889              2.981             43.278
 Rotational               0.889              2.981             35.002
 Vibrational            194.371             72.495             69.407
 Vibration     1          0.593              1.986              6.937
 Vibration     2          0.594              1.982              5.345
 Vibration     3          0.595              1.979              4.961
 Vibration     4          0.596              1.976              4.646
 Vibration     5          0.601              1.958              3.715
 Vibration     6          0.604              1.950              3.470
 Vibration     7          0.611              1.927              3.003
 Vibration     8          0.612              1.921              2.918
 Vibration     9          0.622              1.890              2.537
 Vibration    10          0.623              1.888              2.520
 Vibration    11          0.631              1.863              2.295
 Vibration    12          0.643              1.822              2.025
 Vibration    13          0.644              1.819              2.004
 Vibration    14          0.656              1.784              1.823
 Vibration    15          0.680              1.712              1.537
 Vibration    16          0.699              1.654              1.360
 Vibration    17          0.726              1.578              1.171
 Vibration    18          0.731              1.564              1.143
 Vibration    19          0.757              1.495              1.006
 Vibration    20          0.766              1.469              0.961
 Vibration    21          0.783              1.427              0.892
 Vibration    22          0.794              1.399              0.849
 Vibration    23          0.818              1.339              0.767
 Vibration    24          0.828              1.315              0.735
 Vibration    25          0.834              1.301              0.718
 Vibration    26          0.853              1.256              0.665
 Vibration    27          0.856              1.248              0.656
 Vibration    28          0.865              1.227              0.633
 Vibration    29          0.913              1.124              0.529
 Vibration    30          0.952              1.044              0.460
 Vibration    31          0.956              1.036              0.453
 Vibration    32          0.971              1.007              0.430

 Optimization completed.
    -- Stationary point found.
 Normal termination of Gaussian 16 at Sat Feb 10 20:12:58 2024.
