 Gaussian 16, Revision A.03,
 Gaussian 16:  ES64L-G16RevA.03 25-Dec-2016

 --------------------------------------
 #P UB3LYP/6-311++G(d,p) nosym opt freq
 --------------------------------------

 -------
 Radical
 -------
 Symbolic Z-matrix:
 Charge = -1 Multiplicity = 2

 SCF Done:  E(UB3LYP) =  -650.074054824     A.U. after   20 cycles
 Optimization completed.
    -- Stationary point found.
 Normal termination of Gaussian 16 at Wed Jan 10 04:51:59 2024.

 ----------------------------------------------------------------------
 #P Geom=AllCheck Guess=TCheck SCRF=Check GenChk UB3LYP/6-311++G(d,p) F
 req
 ----------------------------------------------------------------------

 Structure from the checkpoint file:  "087-rad.chk"
 -------
 Radical
 -------
 Charge = -1 Multiplicity = 2

                          Input orientation:
 ---------------------------------------------------------------------
 Center     Atomic      Atomic             Coordinates (Angstroms)
 Number     Number       Type             X           Y           Z
 ---------------------------------------------------------------------
      1          6           0       -3.010027   -1.550888   -0.148522
      2          8           0       -2.271311   -0.557675    0.557387
      3          6           0       -0.920594   -0.520805    0.282048
      4          6           0       -0.382167    0.629143   -0.254534
      5          8           0       -1.235480    1.641301   -0.642723
      6          6           0       -1.074343    2.874083    0.052693
      7          6           0        1.048172    0.780515   -0.495305
      8          8           0        1.534445    1.834431   -1.000048
      9          6           0        1.882035   -0.355566   -0.137214
     10          6           0        1.327613   -1.497848    0.382209
     11          6           0       -0.083923   -1.662319    0.636521
     12          8           0       -0.563969   -2.717067    1.144446
     13          6           0        3.362097   -0.223053   -0.379686
     14          1           0       -2.620221   -2.548860    0.063086
     15          1           0       -4.042350   -1.470755    0.200994
     16          1           0       -2.982847   -1.354114   -1.228942
     17          1           0       -1.302308    2.746175    1.119653
     18          1           0       -1.796523    3.568577   -0.383666
     19          1           0       -0.061146    3.262144   -0.072837
     20          1           0        1.953378   -2.347024    0.645699
     21          1           0        3.778571    0.624205    0.176184
     22          1           0        3.889799   -1.133998   -0.082768
     23          1           0        3.571099   -0.020602   -1.435752
 ---------------------------------------------------------------------

 SCF Done:  E(UB3LYP) =  -650.074054824     A.U. after    1 cycles

 Alpha  occ. eigenvalues --  -19.00375 -19.00345 -18.93582 -18.93447 -10.08780
 Alpha  occ. eigenvalues --  -10.08757 -10.08103 -10.08094 -10.07925 -10.07848
 Alpha  occ. eigenvalues --  -10.03985 -10.03798 -10.02409  -0.92777  -0.90926
 Alpha  occ. eigenvalues --   -0.85490  -0.85175  -0.68971  -0.63683  -0.58314
 Alpha  occ. eigenvalues --   -0.57751  -0.53886  -0.51614  -0.44992  -0.42959
 Alpha  occ. eigenvalues --   -0.37913  -0.36225  -0.35852  -0.33986  -0.32175
 Alpha  occ. eigenvalues --   -0.31697  -0.30551  -0.29890  -0.29411  -0.26729
 Alpha  occ. eigenvalues --   -0.26369  -0.25351  -0.24484  -0.23785  -0.22723
 Alpha  occ. eigenvalues --   -0.21974  -0.21661  -0.15689  -0.15507  -0.13484
 Alpha  occ. eigenvalues --   -0.09855  -0.09639  -0.09363  -0.02018
 Alpha virt. eigenvalues --    0.09096   0.09499   0.09854   0.11953   0.12195
 Alpha virt. eigenvalues --    0.12615   0.12951   0.13546   0.14044   0.14467
 Alpha virt. eigenvalues --    0.14793   0.16234   0.16551   0.17343   0.18048

  Beta  occ. eigenvalues --  -19.00359 -19.00333 -18.92889 -18.92734 -10.08776
  Beta  occ. eigenvalues --  -10.08752 -10.07979 -10.07942 -10.07844 -10.07746
  Beta  occ. eigenvalues --  -10.03995 -10.03663 -10.02297  -0.92691  -0.90835
  Beta  occ. eigenvalues --   -0.84303  -0.83952  -0.68417  -0.63511  -0.58043
  Beta  occ. eigenvalues --   -0.57632  -0.53525  -0.50965  -0.44682  -0.42649
  Beta  occ. eigenvalues --   -0.37807  -0.36059  -0.35569  -0.33746  -0.32070
  Beta  occ. eigenvalues --   -0.31617  -0.30338  -0.29696  -0.29025  -0.26246
  Beta  occ. eigenvalues --   -0.26040  -0.24573  -0.23783  -0.23296  -0.21966
  Beta  occ. eigenvalues --   -0.21057  -0.19966  -0.15387  -0.15242  -0.10475
  Beta  occ. eigenvalues --   -0.09208  -0.09006  -0.08621
  Beta virt. eigenvalues --    0.05161   0.09120   0.09503   0.09866   0.11959
  Beta virt. eigenvalues --    0.12223   0.12626   0.13230   0.13612   0.14060
  Beta virt. eigenvalues --    0.14768   0.15463   0.16275   0.17342   0.17980

 Mulliken charges and spin densities:
               1          2
     1  C   -0.270319   0.000684
     2  O   -0.154283  -0.000179
     3  C    0.255809   0.124370
     4  C   -0.197485   0.051511
     5  O   -0.143519  -0.000301
     6  C   -0.269473   0.000964
     7  C   -0.594591   0.066488
     8  O   -0.410345   0.256172
     9  C    1.395162   0.089045
    10  C   -0.745130   0.075683
    11  C   -0.386021   0.068916
    12  O   -0.418621   0.257409
    13  C   -0.390903   0.005534
    14  H    0.177729  -0.001148
    15  H    0.108820   0.000963
    16  H    0.110140   0.001428
    17  H    0.111601   0.001213
    18  H    0.108827   0.001002
    19  H    0.174009  -0.000742
    20  H    0.118161  -0.009121
    21  H    0.146458   0.004822
    22  H    0.121515  -0.000164
    23  H    0.152462   0.005451
 Sum of Mulliken charges =  -1.00000   1.00000

 Dipole moment (field-independent basis, Debye):
    X=             -0.6252    Y=              1.5300    Z=             -0.3165  Tot=              1.6828
 Quadrupole moment (field-independent basis, Debye-Ang):
   XX=            -91.3891   YY=           -103.0165   ZZ=            -88.4461
   XY=             -6.8846   XZ=              6.0121   YZ=             13.9764

  Exact polarizability: 166.109  14.457 170.405 -12.060 -26.803  98.737
 Approx polarizability: 221.239  39.694 275.265 -25.715 -59.131 159.217

                      1                      2                      3
                      A                      A                      A
 Frequencies --     75.5367                82.4547                87.2990
 Red. masses --      2.7904                 3.4502                 2.9049
 Frc consts  --      0.0094                 0.0138                 0.0130
 IR Inten    --      8.3180                 2.0451                 2.2885

                      4                      5                      6
                      A                      A                      A
 Frequencies --     99.4655               123.1457               153.3472
 Red. masses --      3.9812                 1.0822                 1.2832
 Frc consts  --      0.0232                 0.0097                 0.0178
 IR Inten    --      7.3112                 0.0781                 0.8686

                      7                      8                      9
                      A                      A                      A
 Frequencies --    158.0879               191.9964               216.8080
 Red. masses --      1.1219                 3.1052                 3.4247
 Frc consts  --      0.0165                 0.0674                 0.0948
 IR Inten    --      0.6475                 5.2024                 0.2791

                     10                     11                     12
                      A                      A                      A
 Frequencies --    262.9340               290.8675               325.1002
 Red. masses --      4.4692                 3.1880                 8.7168
 Frc consts  --      0.1820                 0.1589                 0.5428
 IR Inten    --      5.8980                 2.5766                 0.9522

                     13                     14                     15
                      A                      A                      A
 Frequencies --    335.3486               368.2627               386.3049
 Red. masses --      5.9467                 7.7057                 6.0928
 Frc consts  --      0.3940                 0.6157                 0.5357
 IR Inten    --      3.3613                 5.6660                 4.5784

                     16                     17                     18
                      A                      A                      A
 Frequencies --    406.1412               458.9557               498.2241
 Red. masses --      7.1108                 7.0148                 6.1014
 Frc consts  --      0.6911                 0.8706                 0.8923
 IR Inten    --      0.8015                 4.1633                 4.9411

                     19                     20                     21
                      A                      A                      A
 Frequencies --    556.2188               618.8579               686.7525
 Red. masses --      6.6371                 4.9649                 4.0741
 Frc consts  --      1.2098                 1.1203                 1.1321
 IR Inten    --      5.4312                 3.1338                 0.7659

                     22                     23                     24
                      A                      A                      A
 Frequencies --    701.1099               719.9561               775.1963
 Red. masses --      5.2208                 4.9113                 8.6553
 Frc consts  --      1.5120                 1.4999                 3.0645
 IR Inten    --     15.8528                 4.5076                 2.3190

                     25                     26                     27
                      A                      A                      A
 Frequencies --    856.5592               936.4115               945.0470
 Red. masses --      1.5181                 6.0443                 4.7252
 Frc consts  --      0.6562                 3.1227                 2.4864
 IR Inten    --     23.0992                30.7930                34.3220

                     28                     29                     30
                      A                      A                      A
 Frequencies --   1020.0775              1031.3959              1049.1787
 Red. masses --      1.7359                 6.3588                 1.4759
 Frc consts  --      1.0643                 3.9854                 0.9572
 IR Inten    --     18.3548                15.5647                 0.8086

                     31                     32                     33
                      A                      A                      A
 Frequencies --   1105.7952              1155.4827              1162.5541
 Red. masses --      5.3478                 3.5249                 1.3786
 Frc consts  --      3.8528                 2.7728                 1.0977
 IR Inten    --    142.4846               135.6406                23.1837

                     34                     35                     36
                      A                      A                      A
 Frequencies --   1164.2985              1193.2182              1201.8623
 Red. masses --      1.2807                 1.8010                 2.4343
 Frc consts  --      1.0229                 1.5108                 2.0718
 IR Inten    --      0.5052                81.5817                14.5208

                     37                     38                     39
                      A                      A                      A
 Frequencies --   1228.6238              1241.8686              1313.0016
 Red. masses --      1.6847                 3.1855                 2.7548
 Frc consts  --      1.4983                 2.8946                 2.7982
 IR Inten    --     75.9935               133.4187                43.6985

                     40                     41                     42
                      A                      A                      A
 Frequencies --   1394.9630              1414.2028              1444.9572
 Red. masses --      1.3634                 3.1641                 1.2178
 Frc consts  --      1.5631                 3.7284                 1.4980
 IR Inten    --     22.8186                 4.2380                 0.1647

                     43                     44                     45
                      A                      A                      A
 Frequencies --   1456.4521              1464.8296              1476.5366
 Red. masses --      1.4283                 1.0464                 1.0943
 Frc consts  --      1.7851                 1.3229                 1.4056
 IR Inten    --    129.6670                 4.2112                 0.0409

                     46                     47                     48
                      A                      A                      A
 Frequencies --   1478.7800              1480.4818              1510.5401
 Red. masses --      1.1622                 1.1763                 3.6684
 Frc consts  --      1.4974                 1.5190                 4.9316
 IR Inten    --     16.2159                 3.5693                 8.2443

                     49                     50                     51
                      A                      A                      A
 Frequencies --   1514.3199              1514.8387              1523.7915
 Red. masses --      1.0730                 1.1239                 4.4196
 Frc consts  --      1.4498                 1.5195                 6.0462
 IR Inten    --      5.5053                 8.8314               420.7283

                     52                     53                     54
                      A                      A                      A
 Frequencies --   1541.0754              1640.2334              2979.7261
 Red. masses --      6.0549                 7.4838                 1.0428
 Frc consts  --      8.4723                11.8628                 5.4553
 IR Inten    --     50.4417                 9.2377               168.4620

                     55                     56                     57
                      A                      A                      A
 Frequencies --   2980.5603              3005.9572              3047.3516
 Red. masses --      1.0435                 1.0344                 1.0989
 Frc consts  --      5.4618                 5.5068                 6.0123
 IR Inten    --     87.9214                82.5609                34.6219

                     58                     59                     60
                      A                      A                      A
 Frequencies --   3060.7177              3061.1974              3076.7915
 Red. masses --      1.0877                 1.0871                 1.1022
 Frc consts  --      6.0037                 6.0020                 6.1476
 IR Inten    --     96.6986                53.2249                28.2168

                     61                     62                     63
                      A                      A                      A
 Frequencies --   3096.6251              3097.7501              3136.3642
 Red. masses --      1.1057                 1.1057                 1.0890
 Frc consts  --      6.2468                 6.2514                 6.3114
 IR Inten    --     18.5424                24.3009                32.4089

 - Thermochemistry -
 -------------------
 Temperature   298.150 Kelvin.  Pressure   1.00000 Atm.
 Atom     1 has atomic number  6 and mass  12.00000

 Molecular mass:   182.05791 amu.
 Principal axes and moments of inertia in atomic units:
                           1         2         3
     Eigenvalues --  1792.655522315.930783892.37137
           X            0.86894  -0.48777   0.08380
           Y            0.45459   0.85356   0.25453
           Z           -0.19568  -0.18308   0.96343
 This molecule is an asymmetric top.
 Rotational symmetry number  1.
 Warning -- assumption of classical behavior for rotation
           may cause significant error
 Rotational temperatures (Kelvin)      0.04832     0.03740     0.02225
 Rotational constants (GHZ):           1.00674     0.77927     0.46366
 Zero-point vibrational energy     458066.8 (Joules/Mol)
                                  109.48059 (Kcal/Mol)
 Warning -- explicit consideration of  20 degrees of freedom as
           vibrations may cause significant error
 Vibrational temperatures:    108.68   118.63   125.60   143.11   177.18
          (Kelvin)            220.63   227.45   276.24   311.94   378.30
                              418.49   467.75   482.49   529.85   555.81
                              584.35   660.33   716.83   800.27   890.40
                              988.08  1008.74  1035.86  1115.33  1232.40
                             1347.29  1359.71  1467.66  1483.95  1509.53
                             1590.99  1662.48  1672.66  1675.17  1716.77
                             1729.21  1767.72  1786.77  1889.12  2007.04
                             2034.72  2078.97  2095.51  2107.56  2124.41
                             2127.63  2130.08  2173.33  2178.77  2179.51
                             2192.40  2217.26  2359.93  4287.16  4288.36
                             4324.90  4384.46  4403.69  4404.38  4426.82
                             4455.35  4456.97  4512.53

 Zero-point correction=                           0.174468 (Hartree/Particle)
 Thermal correction to Energy=                    0.187771
 Thermal correction to Enthalpy=                  0.188716
 Thermal correction to Gibbs Free Energy=         0.134117
 Sum of electronic and zero-point Energies=           -649.899586
 Sum of electronic and thermal Energies=              -649.886283
 Sum of electronic and thermal Enthalpies=            -649.885339
 Sum of electronic and thermal Free Energies=         -649.939937

                     E (Thermal)             CV                S
                      KCal/Mol        Cal/Mol-Kelvin    Cal/Mol-Kelvin
 Total                  117.828             47.701            114.912
 Electronic               0.000              0.000              1.377
 Translational            0.889              2.981             41.504
 Rotational               0.889              2.981             31.158
 Vibrational            116.051             41.739             40.872
 Vibration     1          0.599              1.965              4.004
 Vibration     2          0.600              1.961              3.832
 Vibration     3          0.601              1.958              3.720
 Vibration     4          0.604              1.949              3.465
 Vibration     5          0.610              1.930              3.050
 Vibration     6          0.619              1.899              2.630
 Vibration     7          0.621              1.894              2.573
 Vibration     8          0.634              1.851              2.208
 Vibration     9          0.646              1.815              1.986
 Vibration    10          0.670              1.741              1.642
 Vibration    11          0.687              1.691              1.469
 Vibration    12          0.709              1.625              1.284
 Vibration    13          0.716              1.605              1.234
 Vibration    14          0.741              1.537              1.087
 Vibration    15          0.755              1.499              1.014
 Vibration    16          0.771              1.457              0.940
 Vibration    17          0.817              1.341              0.769
 Vibration    18          0.854              1.254              0.663
 Vibration    19          0.912              1.126              0.531
 Vibration    20          0.979              0.992              0.418

 Optimization completed.
    -- Stationary point found.
 Normal termination of Gaussian 16 at Wed Jan 10 05:17:10 2024.
