 Gaussian 16, Revision A.03,
 Gaussian 16:  ES64L-G16RevA.03 25-Dec-2016

 ----------------------------------------------------------------
 #P UB3LYP/6-311++G(d,p) SCRF=(PCM,Solvent=n,n-DiMethylFormamide)
 ----------------------------------------------------------------

 ------------------
 Radical PCM in DMF
 ------------------
 Symbolic Z-matrix:
 Charge = -1 Multiplicity = 2

                         Standard orientation:
 ---------------------------------------------------------------------
 Center     Atomic      Atomic             Coordinates (Angstroms)
 Number     Number       Type             X           Y           Z
 ---------------------------------------------------------------------
      1          6           0        3.213840   -0.131828    0.712400
      2          8           0        2.283927    0.334473   -0.261410
      3          6           0        0.991982   -0.123130   -0.109468
      4          6           0       -0.017513    0.791814    0.100298
      5          8           0        0.319295    2.113462    0.307912
      6          6           0       -0.174677    3.028156   -0.666072
      7          6           0       -1.419283    0.398766    0.185786
      8          8           0       -2.340040    1.242561    0.391173
      9          6           0       -1.696938   -1.020822    0.037751
     10          6           0       -0.678523   -1.919331   -0.155909
     11          6           0        0.713202   -1.548057   -0.252951
     12          8           0        1.629108   -2.395677   -0.461718
     13          6           0       -3.137324   -1.450409    0.125367
     14          1           0        3.265871   -1.222679    0.709131
     15          1           0        4.183559    0.289654    0.436228
     16          1           0        2.938228    0.231924    1.711644
     17          1           0        0.256263    2.809137   -1.652507
     18          1           0        0.153304    4.020921   -0.348075
     19          1           0       -1.265259    2.993597   -0.714591
     20          1           0       -0.889011   -2.980649   -0.262714
     21          1           0       -3.743118   -0.958534   -0.643633
     22          1           0       -3.229717   -2.534015    0.008274
     23          1           0       -3.577039   -1.158870    1.085367
 ---------------------------------------------------------------------

 SCF Done:  E(UB3LYP) =  -650.155829224     A.U. after   19 cycles

 The electronic state is 2-A.
 Alpha  occ. eigenvalues --  -19.13513 -19.13473 -19.07629 -19.07600 -10.22005
 Alpha  occ. eigenvalues --  -10.21870 -10.21449 -10.21372 -10.20513 -10.20512
 Alpha  occ. eigenvalues --  -10.17106 -10.15755 -10.15662  -1.05976  -1.04092
 Alpha  occ. eigenvalues --   -0.99527  -0.99284  -0.82354  -0.76542  -0.70983
 Alpha  occ. eigenvalues --   -0.70072  -0.66747  -0.64467  -0.58086  -0.56033
 Alpha  occ. eigenvalues --   -0.51115  -0.49124  -0.48980  -0.46667  -0.44463
 Alpha  occ. eigenvalues --   -0.44158  -0.43499  -0.42599  -0.41812  -0.40876
 Alpha  occ. eigenvalues --   -0.38914  -0.38328  -0.37285  -0.36979  -0.36393
 Alpha  occ. eigenvalues --   -0.34731  -0.34555  -0.29002  -0.28708  -0.27157
 Alpha  occ. eigenvalues --   -0.23789  -0.23649  -0.22744  -0.15928
 Alpha virt. eigenvalues --   -0.00592   0.00262   0.00849   0.01259   0.02183
 Alpha virt. eigenvalues --    0.03038   0.03135   0.03241   0.03470   0.04453
 Alpha virt. eigenvalues --    0.04840   0.05419   0.06427   0.06973   0.07250

  Beta  occ. eigenvalues --  -19.13494 -19.13460 -19.06959 -19.06933 -10.21846
  Beta  occ. eigenvalues --  -10.21692 -10.21371 -10.21274 -10.20509 -10.20506
  Beta  occ. eigenvalues --  -10.16970 -10.15765 -10.15571  -1.05876  -1.03980
  Beta  occ. eigenvalues --   -0.98380  -0.98135  -0.81788  -0.76358  -0.70598
  Beta  occ. eigenvalues --   -0.69956  -0.66335  -0.63949  -0.57767  -0.55698
  Beta  occ. eigenvalues --   -0.50994  -0.48897  -0.48745  -0.46335  -0.44318
  Beta  occ. eigenvalues --   -0.44016  -0.43193  -0.42482  -0.41234  -0.40194
  Beta  occ. eigenvalues --   -0.38611  -0.37254  -0.36873  -0.36576  -0.34651
  Beta  occ. eigenvalues --   -0.34292  -0.33778  -0.28709  -0.28391  -0.24345
  Beta  occ. eigenvalues --   -0.23173  -0.23109  -0.22070
  Beta virt. eigenvalues --   -0.08776  -0.00446   0.00667   0.01005   0.01905
  Beta virt. eigenvalues --    0.02310   0.03153   0.03188   0.03495   0.04544
  Beta virt. eigenvalues --    0.04862   0.05248   0.05552   0.06449   0.07005

 Mulliken charges and spin densities:
               1          2
     1  C   -0.267113   0.001111
     2  O   -0.205899   0.000808
     3  C    0.238126   0.117664
     4  C   -0.196797   0.047453
     5  O   -0.196810   0.000266
     6  C   -0.267831   0.000893
     7  C   -0.418987   0.090418
     8  O   -0.490574   0.246558
     9  C    1.159230   0.093205
    10  C   -0.805603   0.052056
    11  C   -0.225002   0.101977
    12  O   -0.506651   0.237772
    13  C   -0.372920   0.005647
    14  H    0.169194  -0.000575
    15  H    0.152059   0.000404
    16  H    0.138969   0.000947
    17  H    0.139919   0.000785
    18  H    0.152900   0.000450
    19  H    0.166192  -0.000185
    20  H    0.158106  -0.007532
    21  H    0.164395   0.004722
    22  H    0.150507  -0.000125
    23  H    0.164590   0.005280
 Sum of Mulliken charges =  -1.00000   1.00000

 Dipole moment (field-independent basis, Debye):
    X=              0.1113    Y=              1.7401    Z=              0.1823  Tot=              1.7532
 Quadrupole moment (field-independent basis, Debye-Ang):
   XX=            -97.3553   YY=            -96.8100   ZZ=            -81.4952
   XY=             15.4613   XZ=              8.2107   YZ=             -7.8706

 Normal termination of Gaussian 16 at Wed Jan 24 22:51:06 2024.
