 Q-Chem 5.4, Q-Chem, Inc., Pleasanton, CA (2021)
 Q-Chem 5.4.0 for Intel X86 EM64T Linux

User input:
--------------------------------------------------------------
$molecule
-1 2
C                  1.5694990000      1.0952750000     -1.5704280000
C                  0.1589020000      0.8882210000     -1.3336050000
C                 -0.3197110000      0.1725150000     -0.2587660000
C                  0.5709240000     -0.4337220000      0.7271180000
C                  1.9855640000     -0.2172640000      0.4743260000
C                  2.4545630000      0.4928060000     -0.5923880000
O                  1.9968240000      1.7536200000     -2.5613180000
O                  0.1643030000     -1.0922380000      1.7164820000
C                 -1.7946830000     -0.0024660000     -0.0749480000
F                 -2.5240120000      0.6088300000     -1.0592410000
F                 -2.1940180000     -1.3032320000     -0.0919640000
F                 -2.2628710000      0.5196720000      1.0911750000
H                 -0.5212160000      1.3292260000     -2.0524960000
H                  2.6634500000     -0.6617870000      1.1975050000
H                  3.5206220000      0.6338660000     -0.7488530000
$end
$rem
MAX_SCF_CYCLES=200
BASIS  =  6-311++G(d,p)
GUI  =  2
JOB_TYPE  =  SP
METHOD  =  B3LYP
SOLVENT_METHOD = PCM
$end
$pcm
theory = CPCM
$end
$solvent
dielectric 37.219
opticaldielectric 1.43
$end

--------------------------------------------------------------

             Standard Nuclear Orientation (Angstroms)
    I     Atom           X                Y                Z
 ----------------------------------------------------------------
    1      C       1.5694990000     1.0952750000    -1.5704280000
    2      C       0.1589020000     0.8882210000    -1.3336050000
    3      C      -0.3197110000     0.1725150000    -0.2587660000
    4      C       0.5709240000    -0.4337220000     0.7271180000
    5      C       1.9855640000    -0.2172640000     0.4743260000
    6      C       2.4545630000     0.4928060000    -0.5923880000
    7      O       1.9968240000     1.7536200000    -2.5613180000
    8      O       0.1643030000    -1.0922380000     1.7164820000
    9      C      -1.7946830000    -0.0024660000    -0.0749480000
   10      F      -2.5240120000     0.6088300000    -1.0592410000
   11      F      -2.1940180000    -1.3032320000    -0.0919640000
   12      F      -2.2628710000     0.5196720000     1.0911750000
   13      H      -0.5212160000     1.3292260000    -2.0524960000
   14      H       2.6634500000    -0.6617870000     1.1975050000
   15      H       3.5206220000     0.6338660000    -0.7488530000
 ----------------------------------------------------------------

    9    -718.8817507805      8.97e-06  Convergence criterion met
 Total energy in the final basis set =     -718.8817507805

                    Orbital Energies (a.u.)
 --------------------------------------------------------------

 Alpha MOs
 -- Occupied --
-24.7114 -24.7113 -24.7112 -19.0905 -19.0904 -10.4293 -10.2397 -10.2317
-10.1951 -10.1840 -10.1749 -10.1742  -1.3144  -1.2270  -1.2254  -1.0167
 -1.0101  -0.8451  -0.7825  -0.7201  -0.6865  -0.6299  -0.6077  -0.5955
 -0.5828  -0.5362  -0.4868  -0.4769  -0.4763  -0.4725  -0.4500  -0.4402
 -0.4295  -0.4173  -0.4167  -0.4139  -0.4090  -0.3882  -0.3869  -0.3723
 -0.2986  -0.2760  -0.2567  -0.2516  -0.1776

 Beta MOs
 -- Occupied --
-24.7113 -24.7112 -24.7112 -19.0841 -19.0828 -10.4293 -10.2386 -10.2304
-10.1939 -10.1820 -10.1742 -10.1733  -1.3143  -1.2267  -1.2254  -1.0055
 -0.9967  -0.8390  -0.7799  -0.7153  -0.6791  -0.6269  -0.6058  -0.5951
 -0.5808  -0.5328  -0.4847  -0.4759  -0.4728  -0.4720  -0.4473  -0.4382
 -0.4279  -0.4153  -0.4111  -0.4077  -0.3975  -0.3840  -0.3700  -0.3576
 -0.2706  -0.2610  -0.2502  -0.2451

          Ground-State Mulliken Net Atomic Charges

     Atom                 Charge (a.u.)    Spin (a.u.)
  --------------------------------------------------------
      1 C                    -0.482876       0.109221
      2 C                    -0.410031       0.122240
      3 C                     0.331664       0.077979
      4 C                    -0.372984       0.070634
      5 C                    -0.041980       0.076696
      6 C                     0.174349       0.053835
      7 O                    -0.500757       0.265670
      8 O                    -0.484901       0.234061
      9 C                     0.579982       0.008616
     10 F                    -0.194657      -0.001357
     11 F                    -0.114738       0.002171
     12 F                    -0.114672       0.002160
     13 H                     0.204700      -0.011065
     14 H                     0.212671      -0.006595
     15 H                     0.214231      -0.004267
  --------------------------------------------------------
  Sum of atomic charges =    -1.000000

                    Cartesian Multipole Moments
 -----------------------------------------------------------------
    Charge (ESU x 10^10)
                -4.8032
    Dipole Moment (Debye)
         X      -1.0370      Y      -1.1697      Z       1.6257
       Tot       2.2554
    Quadrupole Moments (Debye-Ang)
        XX     -82.0086     XY      -9.3446     YY     -81.8903
        XZ      13.7495     YZ      15.8444     ZZ     -94.8051

 Total job time:  15.63s(wall), 119.15s(cpu)
        *  Thank you very much for using Q-Chem.  Have a nice day.  *
