 Gaussian 16, Revision A.03,
 Gaussian 16:  ES64L-G16RevA.03 25-Dec-2016

 --------------------------------------
 #P UB3LYP/6-311++G(d,p) nosym opt freq
 --------------------------------------

 -------
 Radical
 -------
 Symbolic Z-matrix:
 Charge = -1 Multiplicity = 2

 SCF Done:  E(UB3LYP) =  -718.802331243     A.U. after   19 cycles
 SCF Done:  E(UB3LYP) =  -718.802331335     A.U. after   11 cycles
 Optimization completed.
    -- Stationary point found.
 Normal termination of Gaussian 16 at Wed Jan 10 04:51:08 2024.

 ----------------------------------------------------------------------
 #P Geom=AllCheck Guess=TCheck SCRF=Check GenChk UB3LYP/6-311++G(d,p) F
 req
 ----------------------------------------------------------------------

 Structure from the checkpoint file:  "075-rad.chk"
 -------
 Radical
 -------
 Charge = -1 Multiplicity = 2

                          Input orientation:
 ---------------------------------------------------------------------
 Center     Atomic      Atomic             Coordinates (Angstroms)
 Number     Number       Type             X           Y           Z
 ---------------------------------------------------------------------
      1          6           0        1.569499    1.095275   -1.570428
      2          6           0        0.158902    0.888221   -1.333605
      3          6           0       -0.319711    0.172515   -0.258766
      4          6           0        0.570924   -0.433722    0.727118
      5          6           0        1.985564   -0.217264    0.474326
      6          6           0        2.454563    0.492806   -0.592388
      7          8           0        1.996824    1.753620   -2.561318
      8          8           0        0.164303   -1.092238    1.716482
      9          6           0       -1.794683   -0.002466   -0.074948
     10          9           0       -2.524012    0.608830   -1.059241
     11          9           0       -2.194018   -1.303232   -0.091964
     12          9           0       -2.262871    0.519672    1.091175
     13          1           0       -0.521216    1.329226   -2.052496
     14          1           0        2.663450   -0.661787    1.197505
     15          1           0        3.520622    0.633866   -0.748853
 ---------------------------------------------------------------------

 SCF Done:  E(UB3LYP) =  -718.802331335     A.U. after    1 cycles

 Alpha  occ. eigenvalues --  -24.58506 -24.57902 -24.57900 -18.94815 -18.94776
 Alpha  occ. eigenvalues --  -10.29800 -10.10037 -10.09296 -10.06051 -10.05041
 Alpha  occ. eigenvalues --  -10.04471 -10.04386  -1.18418  -1.09717  -1.09457
 Alpha  occ. eigenvalues --   -0.87357  -0.86761  -0.71057  -0.65101  -0.58730
 Alpha  occ. eigenvalues --   -0.55229  -0.49778  -0.47656  -0.46412  -0.45259
 Alpha  occ. eigenvalues --   -0.40229  -0.35231  -0.34691  -0.34164  -0.34100
 Alpha  occ. eigenvalues --   -0.31903  -0.30775  -0.29719  -0.28494  -0.28026
 Alpha  occ. eigenvalues --   -0.27778  -0.27364  -0.24856  -0.24436  -0.23980
 Alpha  occ. eigenvalues --   -0.15932  -0.14471  -0.11255  -0.10901  -0.03820
 Alpha virt. eigenvalues --    0.09960   0.10040   0.11539   0.12382   0.14332
 Alpha virt. eigenvalues --    0.14886   0.16043   0.16773   0.17857   0.18557
 Alpha virt. eigenvalues --    0.18803   0.19073   0.20236   0.21388   0.21782

  Beta  occ. eigenvalues --  -24.58508 -24.57890 -24.57888 -18.94073 -18.93999
  Beta  occ. eigenvalues --  -10.29805 -10.09970 -10.09217 -10.05932 -10.04839
  Beta  occ. eigenvalues --  -10.04394 -10.04284  -1.18404  -1.09711  -1.09430
  Beta  occ. eigenvalues --   -0.86160  -0.85347  -0.70452  -0.64834  -0.58313
  Beta  occ. eigenvalues --   -0.54470  -0.49492  -0.47502  -0.46365  -0.45047
  Beta  occ. eigenvalues --   -0.39918  -0.35066  -0.34662  -0.34036  -0.33745
  Beta  occ. eigenvalues --   -0.31712  -0.30629  -0.29600  -0.28467  -0.27885
  Beta  occ. eigenvalues --   -0.26646  -0.26042  -0.24353  -0.23754  -0.21503
  Beta  occ. eigenvalues --   -0.13756  -0.12052  -0.10544  -0.10195
  Beta virt. eigenvalues --    0.03615   0.10054   0.11471   0.11553   0.12403
  Beta virt. eigenvalues --    0.14898   0.15228   0.16095   0.17916   0.18012
  Beta virt. eigenvalues --    0.18598   0.18983   0.19081   0.20426   0.21423

 Mulliken charges and spin densities:
               1          2
     1  C   -0.701003   0.074780
     2  C   -0.324897   0.128296
     3  C    0.401101   0.081278
     4  C   -0.571856   0.035385
     5  C    0.078471   0.086109
     6  C    0.280084   0.061742
     7  O   -0.404438   0.289435
     8  O   -0.382732   0.256486
     9  C    0.572928   0.007952
    10  F   -0.201511  -0.001385
    11  F   -0.108140   0.002099
    12  F   -0.108077   0.002101
    13  H    0.163001  -0.011838
    14  H    0.154010  -0.007486
    15  H    0.153058  -0.004952
 Sum of Mulliken charges =  -1.00000   1.00000

 Dipole moment (field-independent basis, Debye):
    X=             -1.3253    Y=             -1.2726    Z=              1.7659  Tot=              2.5484
 Quadrupole moment (field-independent basis, Debye-Ang):
   XX=            -85.0567   YY=            -81.2221   ZZ=            -93.0108
   XY=             -8.2403   XZ=             11.8782   YZ=             14.4161

  Exact polarizability: 117.669  11.069  85.268 -13.712 -38.618 118.471
 Approx polarizability: 164.019  22.706 139.470 -30.630 -76.956 205.425

                      1                      2                      3
                      A                      A                      A
 Frequencies --     50.2224               101.3089               143.8148
 Red. masses --     15.0840                 6.2115                11.4796
 Frc consts  --      0.0224                 0.0376                 0.1399
 IR Inten    --      0.5583                 3.8611                 6.9170

                      4                      5                      6
                      A                      A                      A
 Frequencies --    170.8967               281.0886               285.4121
 Red. masses --     13.5379                 7.7438                14.7541
 Frc consts  --      0.2330                 0.3605                 0.7081
 IR Inten    --      0.2624                 0.5587                 0.1993

                      7                      8                      9
                      A                      A                      A
 Frequencies --    339.5571               344.3856               420.4093
 Red. masses --     17.0380                 4.9549                 9.2595
 Frc consts  --      1.1574                 0.3462                 0.9642
 IR Inten    --      2.1166                 0.1371                 8.7249

                     10                     11                     12
                      A                      A                      A
 Frequencies --    451.0865               480.1738               507.6091
 Red. masses --      4.8132                11.4418                 9.7029
 Frc consts  --      0.5770                 1.5543                 1.4730
 IR Inten    --      0.3397                 0.1160                 0.8477

                     13                     14                     15
                      A                      A                      A
 Frequencies --    539.3735               574.2021               639.1111
 Red. masses --      4.3725                 7.1064                 4.3211
 Frc consts  --      0.7495                 1.3805                 1.0399
 IR Inten    --      4.2022                 4.3264                 5.0687

                     16                     17                     18
                      A                      A                      A
 Frequencies --    659.8750               728.2902               749.0124
 Red. masses --      7.7136                12.9347                 3.4706
 Frc consts  --      1.9789                 4.0422                 1.1472
 IR Inten    --      9.7042                 5.6830                 0.2621

                     19                     20                     21
                      A                      A                      A
 Frequencies --    819.8953               828.3626               887.9661
 Red. masses --      5.8229                 1.9627                 5.6986
 Frc consts  --      2.3062                 0.7935                 2.6473
 IR Inten    --     51.3305                13.3274                31.0804

                     22                     23                     24
                      A                      A                      A
 Frequencies --    889.0640               958.3308               998.7608
 Red. masses --      1.5666                 1.2653                 4.2813
 Frc consts  --      0.7296                 0.6846                 2.5162
 IR Inten    --     44.5860                 0.5740                82.0638

                     25                     26                     27
                      A                      A                      A
 Frequencies --   1080.4710              1082.4668              1107.3611
 Red. masses --      4.6263                12.3035                 2.0454
 Frc consts  --      3.1821                 8.4939                 1.4777
 IR Inten    --    159.1700               298.5626                39.9780

                     28                     29                     30
                      A                      A                      A
 Frequencies --   1190.7554              1251.3737              1267.2537
 Red. masses --      2.1664                 1.5000                 6.2836
 Frc consts  --      1.8098                 1.3840                 5.9455
 IR Inten    --    132.0848                53.6537               208.3667

                     31                     32                     33
                      A                      A                      A
 Frequencies --   1358.8021              1432.9229              1497.1022
 Red. masses --      2.2915                 5.1883                 9.5575
 Frc consts  --      2.4928                 6.2765                12.6210
 IR Inten    --     19.0921                34.2160                59.8337

                     34                     35                     36
                      A                      A                      A
 Frequencies --   1511.9152              1541.0772              1649.8166
 Red. masses --      5.2809                 7.6460                 7.1254
 Frc consts  --      7.1123                10.6987                11.4270
 IR Inten    --     83.7360               467.0715                15.7395

                     37                     38                     39
                      A                      A                      A
 Frequencies --   3136.5222              3158.8257              3186.7555
 Red. masses --      1.0854                 1.0948                 1.0894
 Frc consts  --      6.2911                 6.4366                 6.5184
 IR Inten    --     17.8917                35.8203                 5.0571

 - Thermochemistry -
 -------------------
 Temperature   298.150 Kelvin.  Pressure   1.00000 Atm.
 Atom     1 has atomic number  6 and mass  12.00000

 Molecular mass:   176.00851 amu.
 Principal axes and moments of inertia in atomic units:
                           1         2         3
     Eigenvalues --  1167.623342468.136593315.02233
           X            0.90399   0.42639  -0.03146
           Y            0.25616  -0.48123   0.83833
           Z           -0.34231   0.76590   0.54426
 This molecule is an asymmetric top.
 Rotational symmetry number  1.
 Warning -- assumption of classical behavior for rotation
           may cause significant error
 Rotational temperatures (Kelvin)      0.07418     0.03509     0.02613
 Rotational constants (GHZ):           1.54565     0.73122     0.54441
 Zero-point vibrational energy     229094.6 (Joules/Mol)
                                   54.75493 (Kcal/Mol)
 Warning -- explicit consideration of  14 degrees of freedom as
           vibrations may cause significant error
 Vibrational temperatures:     72.26   145.76   206.92   245.88   404.42
          (Kelvin)            410.64   488.55   495.49   604.88   649.01
                              690.86   730.34   776.04   826.15   919.54
                              949.41  1047.85  1077.66  1179.65  1191.83
                             1277.59  1279.16  1378.82  1436.99  1554.56
                             1557.43  1593.25  1713.23  1800.45  1823.30
                             1955.01  2061.66  2154.00  2175.31  2217.27
                             2373.72  4512.76  4544.85  4585.03

 Zero-point correction=                           0.087258 (Hartree/Particle)
 Thermal correction to Energy=                    0.096880
 Thermal correction to Enthalpy=                  0.097824
 Thermal correction to Gibbs Free Energy=         0.050840
 Sum of electronic and zero-point Energies=           -718.715074
 Sum of electronic and thermal Energies=              -718.705452
 Sum of electronic and thermal Enthalpies=            -718.704507
 Sum of electronic and thermal Free Energies=         -718.751491

                     E (Thermal)             CV                S
                      KCal/Mol        Cal/Mol-Kelvin    Cal/Mol-Kelvin
 Total                   60.793             36.149             98.886
 Electronic               0.000              0.000              1.377
 Translational            0.889              2.981             41.403
 Rotational               0.889              2.981             30.636
 Vibrational             59.015             30.187             25.469
 Vibration     1          0.595              1.978              4.809
 Vibration     2          0.604              1.948              3.429
 Vibration     3          0.616              1.909              2.752
 Vibration     4          0.626              1.878              2.426
 Vibration     5          0.681              1.709              1.527
 Vibration     6          0.683              1.701              1.501
 Vibration     7          0.719              1.596              1.214
 Vibration     8          0.723              1.587              1.192
 Vibration     9          0.783              1.426              0.891
 Vibration    10          0.810              1.358              0.792
 Vibration    11          0.837              1.294              0.710
 Vibration    12          0.863              1.233              0.639
 Vibration    13          0.894              1.163              0.567
 Vibration    14          0.931              1.087              0.496

 Optimization completed.
    -- Stationary point found.
 Normal termination of Gaussian 16 at Wed Jan 10 05:00:26 2024.
