 Q-Chem 5.4, Q-Chem, Inc., Pleasanton, CA (2021)
 Q-Chem 5.4.0 for Intel X86 EM64T Linux

User input:
--------------------------------------------------------------
$molecule
-2 1
O                 -2.7252300000     -0.2031280000      0.4485040000
C                 -1.3497560000     -0.0568330000      0.2276990000
C                 -0.7074870000      1.1826600000      0.2663440000
C                  0.6902590000      1.2876750000      0.0366030000
O                  1.4224730000      2.3954250000      0.0442370000
C                  1.3498130000      0.0567830000     -0.2277990000
C                  0.7075610000     -1.1826380000     -0.2664020000
C                 -0.6901410000     -1.2877760000     -0.0359850000
O                 -1.4221100000     -2.3956170000     -0.0431110000
O                  2.7251110000      0.2032380000     -0.4492520000
H                 -2.7769380000     -1.1872980000      0.3380140000
H                 -1.2792140000      2.0860410000      0.4752590000
H                  1.2790870000     -2.0860150000     -0.4758550000
H                  2.7765710000      1.1874830000     -0.3382560000
$end

$rem
BASIS  =  6-311++G(d,p)
GUI  =  2
JOB_TYPE  =  SP
METHOD  =  B3LYP
SCF_CONVERGENCE  = 8
SOLVENT_METHOD = sm12
$end

$smx
solvent dimethylformamide
charges CM5
$end

--------------------------------------------------------------

             Standard Nuclear Orientation (Angstroms)
    I     Atom           X                Y                Z
 ----------------------------------------------------------------
    1      O      -2.7252300000    -0.2031280000     0.4485040000
    2      C      -1.3497560000    -0.0568330000     0.2276990000
    3      C      -0.7074870000     1.1826600000     0.2663440000
    4      C       0.6902590000     1.2876750000     0.0366030000
    5      O       1.4224730000     2.3954250000     0.0442370000
    6      C       1.3498130000     0.0567830000    -0.2277990000
    7      C       0.7075610000    -1.1826380000    -0.2664020000
    8      C      -0.6901410000    -1.2877760000    -0.0359850000
    9      O      -1.4221100000    -2.3956170000    -0.0431110000
   10      O       2.7251110000     0.2032380000    -0.4492520000
   11      H      -2.7769380000    -1.1872980000     0.3380140000
   12      H      -1.2792140000     2.0860410000     0.4752590000
   13      H       1.2790870000    -2.0860150000    -0.4758550000
   14      H       2.7765710000     1.1874830000    -0.3382560000
 ----------------------------------------------------------------

   15    -532.0552183312      8.86e-09  Convergence criterion met
 Total energy in the final basis set =     -532.3540702865

                    Orbital Energies (a.u.)
 --------------------------------------------------------------

 Alpha MOs
 -- Occupied --
-19.1151 -19.1151 -19.0312 -19.0312 -10.1846 -10.1846 -10.1778 -10.1778
-10.1416 -10.1416  -1.0211  -1.0199  -0.9233  -0.9223  -0.7894  -0.7045
 -0.6524  -0.5805  -0.5523  -0.5069  -0.4591  -0.4451  -0.4281  -0.4173
 -0.3952  -0.3651  -0.3614  -0.3516  -0.3464  -0.3160  -0.3040  -0.2985
 -0.2243  -0.2173  -0.2124  -0.1987  -0.1240

          Ground-State Mulliken Net Atomic Charges

     Atom                 Charge (a.u.)
  ----------------------------------------
      1 O                    -0.149184
      2 C                     0.248384
      3 C                    -0.374982
      4 C                    -0.547591
      5 O                    -0.468203
      6 C                     0.248218
      7 C                    -0.375166
      8 C                    -0.547754
      9 O                    -0.468214
     10 O                    -0.149183
     11 H                     0.297084
     12 H                    -0.005204
     13 H                    -0.005286
     14 H                     0.297083
  ----------------------------------------
  Sum of atomic charges =    -2.000000

                    Cartesian Multipole Moments
 -----------------------------------------------------------------
    Charge (ESU x 10^10)
                -9.6064
    Dipole Moment (Debye)
         X      -0.0015      Y       0.0006      Z      -0.0023
       Tot       0.0028
    Quadrupole Moments (Debye-Ang)
        XX     -96.9167     XY     -15.4847     YY    -106.4080
        XZ       3.2439     YZ      -2.0393     ZZ     -68.2429

 Total job time:  104.66s(wall), 713.62s(cpu)
        *  Thank you very much for using Q-Chem.  Have a nice day.  *
