 Q-Chem 5.4, Q-Chem, Inc., Pleasanton, CA (2021)
 Q-Chem 5.4.0 for Intel X86 EM64T Linux

User input:
--------------------------------------------------------------
$molecule
0 1
C                  1.3505880000      4.2125280000      5.2280880000
C                  1.8316280000      4.0647430000      3.8300850000
C                  1.6453550000      2.9454210000      3.1139020000
C                  0.9817780000      1.7592570000      3.7390210000
C                  0.4061570000      1.9478340000      5.0946020000
C                  0.5317400000      3.0920030000      5.7852930000
O                  1.6623070000      5.1868750000      5.8854910000
O                  0.9428060000      0.6742420000      3.1938140000
H                  2.3632610000      4.9212260000      3.4311290000
C                 -0.1000180000      3.2018640000      7.1458710000
O                 -0.0880110000      2.3111200000      7.9599310000
O                 -0.7111250000      4.3783800000      7.3061970000
C                 -1.3524020000      4.5936360000      8.5812900000
H                 -1.7817210000      5.5903050000      8.5203820000
H                 -0.6161610000      4.5380290000      9.3834810000
H                 -2.1281030000      3.8451160000      8.7460250000
C                  2.0447260000      2.8529240000      1.6700670000
O                  3.3131550000      3.2525530000      1.4815160000
O                  1.2959490000      2.4997450000      0.7971510000
C                  3.7788110000      3.2380070000      0.1136050000
H                 -0.1175100000      1.0921720000      5.5065370000
H                  4.8140240000      3.5664840000      0.1597280000
H                  3.1822670000      3.9182970000     -0.4950860000
H                  3.7092580000      2.2297760000     -0.2950980000
$end
$rem
MAX_SCF_CYCLES=200
BASIS  =  6-311++G(d,p)
GUI  =  2
JOB_TYPE  =  SP
METHOD  =  B3LYP
SOLVENT_METHOD = COSMO
$end
$solvent
dielectric 37.219
opticaldielectric 1.43
$end

--------------------------------------------------------------

             Standard Nuclear Orientation (Angstroms)
    I     Atom           X                Y                Z
 ----------------------------------------------------------------
    1      C       0.7518373456    -1.0883678754     0.2041777722
    2      C      -0.7237053437    -1.0834862320     0.0298154552
    3      C      -1.4396062548     0.0480657305    -0.0572104101
    4      C      -0.7618635856     1.3744862950     0.0819535021
    5      C       0.7215307871     1.3680952846     0.1452066305
    6      C       1.4438338142     0.2367515701     0.1621649490
    7      O       1.3418682357    -2.1297917434     0.4186524599
    8      O      -1.3826471480     2.4141258187     0.1809710215
    9      H      -1.1884796691    -2.0623669423    -0.0039491317
   10      C       2.9447006799     0.3240497980     0.2084010263
   11      O       3.5451715971     1.1201279152     0.8880752381
   12      O       3.5099399820    -0.5475514683    -0.6307424976
   13      C       4.9528938665    -0.5518051480    -0.6667909112
   14      H       5.2181710940    -1.3164414827    -1.3922789897
   15      H       5.3501456155    -0.7986481279     0.3180506700
   16      H       5.3266873013     0.4247429032    -0.9762488630
   17      C      -2.9138361573     0.0333137110    -0.3385304599
   18      O      -3.5663688667    -0.8007566290     0.4877229372
   19      O      -3.4253811471     0.6666612812    -1.2242941550
   20      C      -4.9900881309    -0.9148797435     0.2681165350
   21      H       1.1946460962     2.3428440489     0.1910518073
   22      H      -5.3433782147    -1.6042764436     1.0307492989
   23      H      -5.1874699894    -1.3060407981    -0.7304811782
   24      H      -5.4651655832     0.0603251052     0.3762018195
 ----------------------------------------------------------------

    9    -837.4326971111      7.68e-06  Convergence criterion met
 Total energy in the final basis set =     -837.4326971111
    5    -837.4575530208      2.83e-06  Convergence criterion met
 Total energy in the final basis set =     -837.4575530208

                    Orbital Energies (a.u.)
 --------------------------------------------------------------

 Alpha MOs
 -- Occupied --
-19.1928 -19.1919 -19.1600 -19.1592 -19.1434 -19.1413 -10.3354 -10.3348
-10.3084 -10.3081 -10.2412 -10.2410 -10.2324 -10.2320 -10.2278 -10.2278
 -1.1367  -1.1363  -1.0927  -1.0905  -1.0526  -1.0513  -0.8890  -0.8345
 -0.7604  -0.7507  -0.7230  -0.6767  -0.6422  -0.6010  -0.5812  -0.5558
 -0.5505  -0.5439  -0.5074  -0.5062  -0.5013  -0.4997  -0.4892  -0.4805
 -0.4677  -0.4659  -0.4439  -0.4393  -0.4373  -0.4294  -0.4158  -0.4121
 -0.3810  -0.3798  -0.3374  -0.3332  -0.3329  -0.3295  -0.3158  -0.3106
 -0.3084  -0.2894

          Ground-State Mulliken Net Atomic Charges

     Atom                 Charge (a.u.)
  ----------------------------------------
      1 C                    -0.938500
      2 C                    -0.031385
      3 C                     1.109328
      4 C                    -0.987537
      5 C                    -0.049345
      6 C                     1.180885
      7 O                    -0.239850
      8 O                    -0.248102
      9 H                     0.274156
     10 C                    -0.139578
     11 O                    -0.292188
     12 O                    -0.058326
     13 C                    -0.287640
     14 H                     0.190214
     15 H                     0.208081
     16 H                     0.194220
     17 C                    -0.113183
     18 O                    -0.059370
     19 O                    -0.280719
     20 C                    -0.292267
     21 H                     0.270129
     22 H                     0.192181
     23 H                     0.203245
     24 H                     0.195553
  ----------------------------------------
  Sum of atomic charges =     0.000000

                    Cartesian Multipole Moments
 -----------------------------------------------------------------
    Charge (ESU x 10^10)
                 0.0000
    Dipole Moment (Debye)
         X      -0.1282      Y      -3.4970      Z      -0.7269
       Tot       3.5741
    Quadrupole Moments (Debye-Ang)
        XX     -69.7512     XY      12.0160     YY    -103.0317
        XZ     -15.2537     YZ       1.0394     ZZ     -94.7355

 Total job time:  52.11s(wall), 268.92s(cpu)
        *  Thank you very much for using Q-Chem.  Have a nice day.  *
