 Q-Chem 5.4, Q-Chem, Inc., Pleasanton, CA (2021)
 Q-Chem 5.4.0 for Intel X86 EM64T Linux

User input:
--------------------------------------------------------------
$molecule
-1 2
O                  0.0022440000     -2.5336490000     -0.4294580000
C                  0.0324690000     -1.2932110000     -0.2186530000
C                  1.3208560000     -0.6374100000     -0.0649950000
C                  2.4484120000     -1.5187760000     -0.1687140000
C                  3.7505330000     -1.1039780000     -0.0541700000
C                  4.0416220000      0.2674520000      0.1794540000
C                  2.9879240000      1.1483540000      0.2847370000
C                  1.6239410000      0.7627630000      0.1734000000
C                  0.6776180000      1.8182710000      0.3086270000
C                 -0.6877130000      1.8234660000      0.2633360000
C                 -1.6415800000      0.7520550000      0.0653220000
C                 -3.0049760000      1.1362410000      0.0886560000
C                 -4.0495740000      0.2311820000     -0.0845360000
C                 -3.7532590000     -1.1089980000     -0.2900540000
C                 -2.4124060000     -1.5122820000     -0.3181480000
C                 -1.3403060000     -0.6256960000     -0.1469580000
H                  2.2199570000     -2.5612440000     -0.3468780000
H                  4.5576480000     -1.8259690000     -0.1424540000
H                  5.0658430000      0.6142200000      0.2726050000
H                  3.1924000000      2.2015230000      0.4628270000
H                  1.1297760000      2.7942700000      0.4787540000
H                 -1.1529120000      2.7969780000      0.4020590000
H                 -3.2332460000      2.1859370000      0.2496930000
H                 -5.0787150000      0.5784550000     -0.0576870000
H                 -4.5439290000     -1.8399710000     -0.4286420000
H                 -2.1526300000     -2.5499850000     -0.4781230000
$end

$rem
BASIS  =  6-311++G(d,p)
GUI  =  2
JOB_TYPE  =  SP
METHOD  =  B3LYP
SCF_CONVERGENCE  = 8
SOLVENT_METHOD = sm12
$end

$smx
solvent dimethylformamide
charges CM5
$end

--------------------------------------------------------------

             Standard Nuclear Orientation (Angstroms)
    I     Atom           X                Y                Z
 ----------------------------------------------------------------
    1      O       0.0022440000    -2.5336490000    -0.4294580000
    2      C       0.0324690000    -1.2932110000    -0.2186530000
    3      C       1.3208560000    -0.6374100000    -0.0649950000
    4      C       2.4484120000    -1.5187760000    -0.1687140000
    5      C       3.7505330000    -1.1039780000    -0.0541700000
    6      C       4.0416220000     0.2674520000     0.1794540000
    7      C       2.9879240000     1.1483540000     0.2847370000
    8      C       1.6239410000     0.7627630000     0.1734000000
    9      C       0.6776180000     1.8182710000     0.3086270000
   10      C      -0.6877130000     1.8234660000     0.2633360000
   11      C      -1.6415800000     0.7520550000     0.0653220000
   12      C      -3.0049760000     1.1362410000     0.0886560000
   13      C      -4.0495740000     0.2311820000    -0.0845360000
   14      C      -3.7532590000    -1.1089980000    -0.2900540000
   15      C      -2.4124060000    -1.5122820000    -0.3181480000
   16      C      -1.3403060000    -0.6256960000    -0.1469580000
   17      H       2.2199570000    -2.5612440000    -0.3468780000
   18      H       4.5576480000    -1.8259690000    -0.1424540000
   19      H       5.0658430000     0.6142200000     0.2726050000
   20      H       3.1924000000     2.2015230000     0.4628270000
   21      H       1.1297760000     2.7942700000     0.4787540000
   22      H      -1.1529120000     2.7969780000     0.4020590000
   23      H      -3.2332460000     2.1859370000     0.2496930000
   24      H      -5.0787150000     0.5784550000    -0.0576870000
   25      H      -4.5439290000    -1.8399710000    -0.4286420000
   26      H      -2.1526300000    -2.5499850000    -0.4781230000
 ----------------------------------------------------------------

   22    -653.0271022106      4.41e-09  Convergence criterion met
 Total energy in the final basis set =     -653.1198134456

                    Orbital Energies (a.u.)
 --------------------------------------------------------------

 Alpha MOs
 -- Occupied --
-19.0640 -10.2254 -10.1981 -10.1890 -10.1838 -10.1826 -10.1809 -10.1792
-10.1790 -10.1788 -10.1752 -10.1750 -10.1740 -10.1716 -10.1704 -10.1675
 -0.9964  -0.8675  -0.8565  -0.8063  -0.7663  -0.7599  -0.7513  -0.7211
 -0.6535  -0.6442  -0.6042  -0.5962  -0.5671  -0.5566  -0.5072  -0.4944
 -0.4835  -0.4687  -0.4553  -0.4389  -0.4273  -0.4215  -0.4145  -0.4121
 -0.4026  -0.3853  -0.3776  -0.3612  -0.3583  -0.3511  -0.3430  -0.3338
 -0.3226  -0.2785  -0.2636  -0.2565  -0.2353  -0.2220  -0.1182

 Beta MOs
 -- Occupied --
-19.0599 -10.2230 -10.1987 -10.1891 -10.1826 -10.1819 -10.1812 -10.1804
-10.1783 -10.1774 -10.1752 -10.1727 -10.1725 -10.1697 -10.1689 -10.1666
 -0.9889  -0.8655  -0.8537  -0.8036  -0.7639  -0.7567  -0.7478  -0.7186
 -0.6476  -0.6420  -0.6021  -0.5950  -0.5650  -0.5537  -0.5053  -0.4932
 -0.4822  -0.4674  -0.4537  -0.4377  -0.4261  -0.4208  -0.4127  -0.4019
 -0.3997  -0.3845  -0.3711  -0.3600  -0.3500  -0.3431  -0.3416  -0.3326
 -0.3151  -0.2711  -0.2569  -0.2435  -0.2314  -0.2113

          Ground-State Mulliken Net Atomic Charges

     Atom                 Charge (a.u.)    Spin (a.u.)
  --------------------------------------------------------
      1 O                    -0.291062       0.164007
      2 C                    -1.420661       0.138394
      3 C                    -0.937328       0.077781
      4 C                    -0.652443       0.128312
      5 C                     0.242972      -0.014751
      6 C                     0.998348       0.222213
      7 C                     0.279384      -0.108967
      8 C                    -1.434973       0.155257
      9 C                    -0.261840      -0.089653
     10 C                    -0.587244       0.214841
     11 C                    -1.239761      -0.071753
     12 C                     0.682266       0.093765
     13 C                     1.522681       0.008872
     14 C                     0.510111       0.066407
     15 C                    -0.137784       0.069998
     16 C                    -0.924573      -0.011493
     17 H                     0.122396      -0.006878
     18 H                     0.280399       0.000223
     19 H                     0.345898      -0.015765
     20 H                     0.260790       0.006750
     21 H                     0.281422       0.004763
     22 H                     0.233396      -0.014116
     23 H                     0.292849      -0.006675
     24 H                     0.393305      -0.000388
     25 H                     0.302344      -0.004211
     26 H                     0.139107      -0.006933
  --------------------------------------------------------
  Sum of atomic charges =    -1.000000

                    Cartesian Multipole Moments
 -----------------------------------------------------------------
    Charge (ESU x 10^10)
                -4.8032
    Dipole Moment (Debye)
         X      -1.8902      Y       5.1321      Z       0.8129
       Tot       5.5292
    Quadrupole Moments (Debye-Ang)
        XX    -111.2211     XY       0.4888     YY    -110.6286
        XZ      -0.1168     YZ      -0.9855     ZZ    -105.4401

 Total job time:  737.11s(wall), 5485.18s(cpu)
        *  Thank you very much for using Q-Chem.  Have a nice day.  *
