 Q-Chem 5.4, Q-Chem, Inc., Pleasanton, CA (2021)
 Q-Chem 5.4.0 for Intel X86 EM64T Linux

User input:
--------------------------------------------------------------
$molecule
0 1
C                  2.6085190000      1.5507490000     -0.2055610000
O                  2.4800860000      0.1869900000      0.2459400000
C                  1.3056980000     -0.4678890000      0.1702680000
C                  1.3007130000     -1.7961580000     -0.0556810000
C                  0.0498420000     -2.5720240000     -0.0839380000
O                  0.0635210000     -3.7779040000     -0.2994540000
C                 -1.2207590000     -1.8547440000      0.1120930000
C                 -1.2574670000     -0.5273810000      0.3407540000
O                 -2.4409350000      0.0721190000      0.5727130000
C                 -2.6908740000      1.4281260000      0.1497110000
C                  0.0232540000      0.2464870000      0.5026690000
O                  0.0259140000      1.3837700000      0.9362520000
H                  3.6727150000      1.6831770000     -0.3941850000
H                  2.0536190000      1.7064160000     -1.1339080000
H                  2.2643630000      2.2484420000      0.5545140000
H                  2.2239370000     -2.3348980000     -0.2293610000
H                 -2.1329030000     -2.4361850000      0.0604250000
H                 -2.2755810000      1.6072610000     -0.8450190000
H                 -3.7757260000      1.5118390000      0.1087290000
H                 -2.2779360000      2.1418060000      0.8589420000
$end

$rem
BASIS  =  6-311++G(d,p)
GUI  =  2
JOB_TYPE  =  SP
METHOD  =  B3LYP
SCF_CONVERGENCE  = 8
SOLVENT_METHOD = sm12
$end

$smx
solvent dimethylformamide
charges CM5
$end

--------------------------------------------------------------

             Standard Nuclear Orientation (Angstroms)
    I     Atom           X                Y                Z
 ----------------------------------------------------------------
    1      C       2.6085190000     1.5507490000    -0.2055610000
    2      O       2.4800860000     0.1869900000     0.2459400000
    3      C       1.3056980000    -0.4678890000     0.1702680000
    4      C       1.3007130000    -1.7961580000    -0.0556810000
    5      C       0.0498420000    -2.5720240000    -0.0839380000
    6      O       0.0635210000    -3.7779040000    -0.2994540000
    7      C      -1.2207590000    -1.8547440000     0.1120930000
    8      C      -1.2574670000    -0.5273810000     0.3407540000
    9      O      -2.4409350000     0.0721190000     0.5727130000
   10      C      -2.6908740000     1.4281260000     0.1497110000
   11      C       0.0232540000     0.2464870000     0.5026690000
   12      O       0.0259140000     1.3837700000     0.9362520000
   13      H       3.6727150000     1.6831770000    -0.3941850000
   14      H       2.0536190000     1.7064160000    -1.1339080000
   15      H       2.2643630000     2.2484420000     0.5545140000
   16      H       2.2239370000    -2.3348980000    -0.2293610000
   17      H      -2.1329030000    -2.4361850000     0.0604250000
   18      H      -2.2755810000     1.6072610000    -0.8450190000
   19      H      -3.7757260000     1.5118390000     0.1087290000
   20      H      -2.2779360000     2.1418060000     0.8589420000
 ----------------------------------------------------------------

   15    -610.6696562975      3.27e-09  Convergence criterion met
 Total energy in the final basis set =     -610.6825745600

                    Orbital Energies (a.u.)
 --------------------------------------------------------------

 Alpha MOs
 -- Occupied --
-19.1708 -19.1708 -19.1534 -19.1250 -10.3010 -10.2769 -10.2708 -10.2708
-10.2220 -10.2219 -10.1959 -10.1959  -1.1033  -1.0856  -1.0684  -1.0554
 -0.8586  -0.7958  -0.7311  -0.7039  -0.6999  -0.6260  -0.6008  -0.5468
 -0.5343  -0.5145  -0.5071  -0.4907  -0.4745  -0.4668  -0.4504  -0.4365
 -0.4346  -0.4208  -0.4187  -0.4161  -0.3750  -0.3727  -0.3527  -0.3401
 -0.2855  -0.2790  -0.2776  -0.2539

          Ground-State Mulliken Net Atomic Charges

     Atom                 Charge (a.u.)
  ----------------------------------------
      1 C                    -0.219204
      2 O                    -0.178734
      3 C                    -0.002422
      4 C                     0.188505
      5 C                    -1.172621
      6 O                    -0.377841
      7 C                     0.188089
      8 C                     0.003374
      9 O                    -0.179694
     10 C                    -0.218195
     11 C                     0.457318
     12 O                    -0.211175
     13 H                     0.211757
     14 H                     0.201153
     15 H                     0.183915
     16 H                     0.264701
     17 H                     0.264851
     18 H                     0.200481
     19 H                     0.211812
     20 H                     0.183929
  ----------------------------------------
  Sum of atomic charges =     0.000000

                    Cartesian Multipole Moments
 -----------------------------------------------------------------
    Charge (ESU x 10^10)
                 0.0000
    Dipole Moment (Debye)
         X      -0.2119      Y       5.2298      Z      -1.3382
       Tot       5.4025
    Quadrupole Moments (Debye-Ang)
        XX     -62.2730     XY       0.2037     YY     -84.9055
        XZ      -0.4807     YZ      -4.3897     ZZ     -70.8888

 Total job time:  217.74s(wall), 1685.47s(cpu)
        *  Thank you very much for using Q-Chem.  Have a nice day.  *
