 Gaussian 16, Revision A.03,
 Gaussian 16:  ES64L-G16RevA.03 25-Dec-2016

 ----------------------------------------------------------------
 #P UB3LYP/6-311++G(d,p) SCRF=(PCM,Solvent=n,n-DiMethylFormamide)
 ----------------------------------------------------------------

 -------
 Reduced
 -------
 Symbolic Z-matrix:
 Charge = -2 Multiplicity = 1

                         Standard orientation:
 ---------------------------------------------------------------------
 Center     Atomic      Atomic             Coordinates (Angstroms)
 Number     Number       Type             X           Y           Z
 ---------------------------------------------------------------------
      1          7           0        3.761711   -0.130756    0.048549
      2          6           0        2.407729    0.276092    0.069456
      3          6           0        2.087976    1.668908    0.066106
      4         17           0        3.441440    2.861958    0.224468
      5          6           0        0.805720    2.125156   -0.025061
      6          6           0       -0.290652    1.238153   -0.060160
      7          6           0       -1.605346    1.834190   -0.176386
      8          8           0       -1.784382    3.097538   -0.316499
      9          6           0       -2.697172    0.892575   -0.084896
     10          6           0       -4.032067    1.359983   -0.186195
     11          6           0       -5.115261    0.510385   -0.097501
     12          6           0       -4.896942   -0.880857    0.103726
     13          6           0       -3.608657   -1.362364    0.214710
     14          6           0       -2.472139   -0.517600    0.125566
     15          6           0       -1.152762   -1.118762    0.267427
     16          8           0       -1.020663   -2.368828    0.513604
     17          6           0       -0.052345   -0.200529    0.094888
     18          6           0        1.328368   -0.589221    0.078265
     19         35           0        1.829621   -2.484026   -0.207780
     20          1           0        3.851096   -1.082856   -0.289256
     21          1           0        4.345682    0.507848   -0.479008
     22          1           0        0.572150    3.182932   -0.063452
     23          1           0       -4.159278    2.427765   -0.335843
     24          1           0       -6.128829    0.899403   -0.178876
     25          1           0       -5.744090   -1.561632    0.170737
     26          1           0       -3.408271   -2.416891    0.375688
 ---------------------------------------------------------------------

 SCF Done:  E(UB3LYP) =  -3777.72355429     A.U. after   19 cycles

 The electronic state is 1-A.
 Alpha  occ. eigenvalues -- -482.81112-101.54723 -62.46389 -56.28408 -56.28057
 Alpha  occ. eigenvalues --  -56.28025 -19.02597 -19.01611 -14.31241 -10.21645
 Alpha  occ. eigenvalues --  -10.21410 -10.20877 -10.18082 -10.17863 -10.16261
 Alpha  occ. eigenvalues --  -10.15446 -10.15200 -10.15139 -10.14873 -10.14674
 Alpha  occ. eigenvalues --  -10.14645 -10.14028 -10.13957  -9.46139  -8.67347
 Alpha  occ. eigenvalues --   -7.22558  -7.21643  -7.21627  -6.50418  -6.49260
 Alpha  occ. eigenvalues --   -6.49178  -2.61518  -2.61206  -2.61145  -2.60224
 Alpha  occ. eigenvalues --   -2.60223  -0.94574  -0.93951  -0.92103  -0.85409
 Alpha  occ. eigenvalues --   -0.82838  -0.82037  -0.77722  -0.74923  -0.72502
 Alpha  occ. eigenvalues --   -0.71230  -0.70369  -0.63982  -0.61221  -0.59315
 Alpha  occ. eigenvalues --   -0.56971  -0.53504  -0.51771  -0.50383  -0.49056
 Alpha  occ. eigenvalues --   -0.46543  -0.44001  -0.43877  -0.42879  -0.40696
 Alpha  occ. eigenvalues --   -0.40423  -0.39935  -0.39098  -0.38195  -0.37293
 Alpha  occ. eigenvalues --   -0.37088  -0.36398  -0.34283  -0.33391  -0.33029
 Alpha  occ. eigenvalues --   -0.32601  -0.32264  -0.31313  -0.30609  -0.29160
 Alpha  occ. eigenvalues --   -0.28129  -0.27690  -0.23359  -0.22692  -0.22260
 Alpha  occ. eigenvalues --   -0.20656  -0.20391  -0.19065  -0.10823
 Alpha virt. eigenvalues --   -0.03400  -0.01995  -0.00033   0.00150   0.00710
 Alpha virt. eigenvalues --    0.01399   0.01585   0.01863   0.02390   0.03278
 Alpha virt. eigenvalues --    0.04175   0.04395   0.04988   0.05466   0.05781

  Beta  occ. eigenvalues -- -482.81112-101.54723 -62.46389 -56.28408 -56.28057
  Beta  occ. eigenvalues --  -56.28025 -19.02597 -19.01611 -14.31241 -10.21645
  Beta  occ. eigenvalues --  -10.21410 -10.20877 -10.18082 -10.17863 -10.16261
  Beta  occ. eigenvalues --  -10.15446 -10.15200 -10.15139 -10.14873 -10.14674
  Beta  occ. eigenvalues --  -10.14645 -10.14028 -10.13957  -9.46139  -8.67347
  Beta  occ. eigenvalues --   -7.22558  -7.21643  -7.21627  -6.50418  -6.49260
  Beta  occ. eigenvalues --   -6.49178  -2.61518  -2.61206  -2.61145  -2.60224
  Beta  occ. eigenvalues --   -2.60223  -0.94574  -0.93951  -0.92103  -0.85409
  Beta  occ. eigenvalues --   -0.82838  -0.82037  -0.77722  -0.74923  -0.72502
  Beta  occ. eigenvalues --   -0.71230  -0.70369  -0.63982  -0.61221  -0.59315
  Beta  occ. eigenvalues --   -0.56971  -0.53504  -0.51771  -0.50383  -0.49056
  Beta  occ. eigenvalues --   -0.46543  -0.44001  -0.43877  -0.42879  -0.40696
  Beta  occ. eigenvalues --   -0.40423  -0.39935  -0.39098  -0.38195  -0.37293
  Beta  occ. eigenvalues --   -0.37088  -0.36398  -0.34283  -0.33391  -0.33029
  Beta  occ. eigenvalues --   -0.32601  -0.32264  -0.31313  -0.30609  -0.29160
  Beta  occ. eigenvalues --   -0.28129  -0.27690  -0.23359  -0.22692  -0.22260
  Beta  occ. eigenvalues --   -0.20656  -0.20391  -0.19065  -0.10823
  Beta virt. eigenvalues --   -0.03400  -0.01995  -0.00033   0.00150   0.00710
  Beta virt. eigenvalues --    0.01399   0.01585   0.01863   0.02390   0.03278
  Beta virt. eigenvalues --    0.04175   0.04395   0.04988   0.05466   0.05781

 Mulliken charges and spin densities:
               1          2
     1  N   -0.178661  -0.000000
     2  C   -2.154192   0.000000
     3  C    1.497236  -0.000000
     4  Cl   0.371802   0.000000
     5  C   -0.209354   0.000000
     6  C   -0.387721  -0.000000
     7  C   -0.738049  -0.000000
     8  O   -0.623273   0.000000
     9  C    0.234101  -0.000000
    10  C    0.019357   0.000000
    11  C   -0.558711   0.000000
    12  C   -0.498285   0.000000
    13  C    0.052259   0.000000
    14  C    0.337265   0.000000
    15  C   -1.247730  -0.000000
    16  O   -0.554650   0.000000
    17  C    1.064953   0.000000
    18  C    0.467211  -0.000000
    19  Br  -0.198765   0.000000
    20  H    0.247103  -0.000000
    21  H    0.241776  -0.000000
    22  H    0.195418   0.000000
    23  H    0.148201   0.000000
    24  H    0.158657  -0.000000
    25  H    0.158813   0.000000
    26  H    0.155238  -0.000000
 Sum of Mulliken charges =  -2.00000   0.00000

 Dipole moment (field-independent basis, Debye):
    X=              9.4635    Y=             -2.8519    Z=             -2.0941  Tot=             10.1033
 Quadrupole moment (field-independent basis, Debye-Ang):
   XX=           -177.6799   YY=           -196.3843   ZZ=           -143.1379
   XY=              5.4050   XZ=             -6.7471   YZ=              6.5994

 Normal termination of Gaussian 16 at Sun Jan 14 01:28:46 2024.
