 Q-Chem 5.4, Q-Chem, Inc., Pleasanton, CA (2021)
 Q-Chem 5.4.0 for Intel X86 EM64T Linux

User input:
--------------------------------------------------------------
$molecule
0 1
C                  2.2801830000     -0.0691360000      0.0788370000
C                  0.7898110000      0.0770140000      0.0334840000
C                  0.1498720000      1.2574710000      0.0831850000
C                 -1.3225570000      1.3666660000      0.0360270000
O                 -1.8852850000      2.4488480000      0.0819850000
C                 -2.1075370000      0.1120000000     -0.0697150000
C                 -1.4934500000     -1.0765830000     -0.1205570000
Br                -2.4670240000     -2.7001590000     -0.2551880000
C                  0.0030810000     -1.1976780000     -0.0743320000
O                  0.5626410000     -2.2725600000     -0.1213110000
H                  2.5803900000     -0.6884810000      0.9283430000
H                  2.7641170000      0.9047350000      0.1573560000
H                  2.6441330000     -0.5793100000     -0.8170800000
H                  0.6861300000      2.1973010000      0.1610130000
H                 -3.1845020000      0.2198720000     -0.1020470000
$end
$rem
MAX_SCF_CYCLES=200
BASIS  =  6-311++G(d,p)
GUI  =  2
JOB_TYPE  =  SP
METHOD  =  B3LYP
SOLVENT_METHOD = COSMO
$end
$solvent
dielectric 37.219
opticaldielectric 1.43
$end

--------------------------------------------------------------

             Standard Nuclear Orientation (Angstroms)
    I     Atom           X                Y                Z
 ----------------------------------------------------------------
    1      C       2.6704000338    -2.1433365937     0.0007975949
    2      C       1.8861139525    -0.8668098479     0.0003228663
    3      C       2.4431602238     0.3559617022     0.0004956713
    4      C       1.6401590546     1.5958743123    -0.0001575295
    5      O       2.1652688368     2.6977601689    -0.0004684126
    6      C       0.1622260937     1.4644365470    -0.0002967062
    7      C      -0.4169282872     0.2573750369    -0.0001766025
    8      Br     -2.3038468759     0.0536377984     0.0003180260
    9      C       0.3910539525    -1.0089465301    -0.0005924318
   10      O      -0.1302296825    -2.1039113793    -0.0016339247
   11      H       2.4186530217    -2.7492710405     0.8753487964
   12      H       3.7418390473    -1.9413481046     0.0018769544
   13      H       2.4204255963    -2.7487429184    -0.8746453480
   14      H       3.5189803074     0.4956795054     0.0010891967
   15      H      -0.4026806949     2.3882415352    -0.0003389853
 ----------------------------------------------------------------

    9   -2994.4319385028      7.73e-06  Convergence criterion met
 Total energy in the final basis set =    -2994.4319385028
    5   -2994.4452752021      5.13e-06  Convergence criterion met
 Total energy in the final basis set =    -2994.4452752021

                    Orbital Energies (a.u.)
 --------------------------------------------------------------

 Alpha MOs
 -- Occupied --
******** -62.5043 -56.3248 -56.3210 -56.3206 -19.1557 -19.1479 -10.3033
-10.2938 -10.2683 -10.2276 -10.2202 -10.2075 -10.1780  -8.7131  -6.5448
 -6.5318  -6.5307  -2.6556  -2.6522  -2.6512  -2.6410  -2.6409  -1.0903
 -1.0783  -0.8853  -0.8410  -0.7835  -0.7298  -0.7005  -0.6209  -0.6041
 -0.5419  -0.5168  -0.4834  -0.4695  -0.4565  -0.4503  -0.4339  -0.4333
 -0.4163  -0.4094  -0.3952  -0.3577  -0.3123  -0.3056  -0.3035  -0.2890
 -0.2821

          Ground-State Mulliken Net Atomic Charges

     Atom                 Charge (a.u.)
  ----------------------------------------
      1 C                    -0.377041
      2 C                     1.660019
      3 C                    -0.866561
      4 C                    -0.240907
      5 O                    -0.314602
      6 C                     0.035309
      7 C                     1.037599
      8 Br                   -0.109738
      9 C                    -1.723046
     10 O                    -0.208731
     11 H                     0.200167
     12 H                     0.179881
     13 H                     0.200127
     14 H                     0.233428
     15 H                     0.294096
  ----------------------------------------
  Sum of atomic charges =     0.000000

                    Cartesian Multipole Moments
 -----------------------------------------------------------------
    Charge (ESU x 10^10)
                 0.0000
    Dipole Moment (Debye)
         X       1.6815      Y      -1.1342      Z       0.0043
       Tot       2.0283
    Quadrupole Moments (Debye-Ang)
        XX     -65.4655     XY     -14.3893     YY     -83.0988
        XZ       0.0043     YZ      -0.0054     ZZ     -69.5154

 Total job time:  18.24s(wall), 121.30s(cpu)
        *  Thank you very much for using Q-Chem.  Have a nice day.  *
