 Q-Chem 5.4, Q-Chem, Inc., Pleasanton, CA (2021)
 Q-Chem 5.4.0 for Intel X86 EM64T Linux

User input:
--------------------------------------------------------------
$molecule
-2 1
C                 -0.1302950000     -0.8155980000      1.5094200000
C                 -0.1832220000     -0.7484010000      0.0439470000
C                 -0.6759460000     -1.8550860000     -0.6909450000
C                 -1.1654430000     -3.0591970000     -0.1232170000
C                 -1.1085740000     -3.0939560000      1.3325800000
C                 -0.6284180000     -2.0576990000      2.0821920000
O                  0.3564290000      0.0802970000      2.2480760000
O                 -1.6423140000     -4.0489380000     -0.7906860000
C                  0.4679540000      0.3502140000     -0.6570120000
H                 -1.4814860000     -4.0007770000      1.8090700000
H                 -0.7463350000     -1.7775340000     -1.7731120000
H                 -0.6080870000     -2.1103920000      3.1693700000
C                  0.4230000000      1.7647350000     -0.3564350000
C                  1.2891040000      2.6652040000     -1.0298880000
C                  2.1231330000      2.2525320000     -2.0433500000
C                  2.1123510000      0.8925940000     -2.4314380000
C                  1.3048070000      0.0000540000     -1.7521400000
N                 -0.5602880000      2.3666740000      0.4671300000
O                 -0.5712730000      3.6427110000      0.5781150000
O                 -1.4129590000      1.6636960000      1.0370270000
H                  1.2417390000      3.7020400000     -0.7274640000
H                  2.7781740000      2.9670190000     -2.5357470000
H                  2.7705100000      0.5362380000     -3.2202330000
H                  1.3542830000     -1.0524800000     -2.0050320000
$end
$rem
MAX_SCF_CYCLES=200
BASIS  =  6-311++G(d,p)
GUI  =  2
JOB_TYPE  =  SP
METHOD  =  B3LYP
SOLVENT_METHOD = COSMO
$end
$solvent
dielectric 37.219
opticaldielectric 1.43
$end

--------------------------------------------------------------

             Standard Nuclear Orientation (Angstroms)
    I     Atom           X                Y                Z
 ----------------------------------------------------------------
    1      C       1.1523054672    -1.0331988660     0.8141141304
    2      C       0.7820317586     0.1500060531     0.0280789416
    3      C       1.7961420607     0.9484496710    -0.5564404894
    4      C       3.1882787731     0.6901007298    -0.4726735868
    5      C       3.5253047642    -0.4947126925     0.3060547432
    6      C       2.5832868670    -1.2860640769     0.8999080690
    7      O       0.3347280049    -1.7634378332     1.4333547407
    8      O       4.1047312869     1.3976438547    -1.0312481835
    9      C      -0.5953382462     0.6244981327     0.0342236206
   10      H       4.5859932976    -0.7320882639     0.3898585567
   11      H       1.5072260891     1.7993288372    -1.1684752481
   12      H       2.8667490675    -2.1707420489     1.4674818283
   13      C      -1.8140465948    -0.1419707252    -0.1089982541
   14      C      -3.0730846633     0.4685660318     0.1288830450
   15      C      -3.1903072910     1.8109719185     0.4067554414
   16      C      -2.0230908634     2.6084390866     0.4493211311
   17      C      -0.7890880030     2.0146559962     0.2626146273
   18      N      -1.8644476087    -1.4537417098    -0.6420665252
   19      O      -3.0090584995    -1.9985329277    -0.8258522793
   20      O      -0.8143167289    -2.0410435948    -0.9556109788
   21      H      -3.9434543168    -0.1681105263     0.0525139635
   22      H      -4.1695121338     2.2467970292     0.5890725804
   23      H      -2.0849383618     3.6693430113     0.6795778780
   24      H       0.1060329361     2.6161803838     0.3682412091
 ----------------------------------------------------------------

   13    -817.2487371657      3.92e-06  Convergence criterion met
 Total energy in the final basis set =     -817.2487371657
    7    -817.5235414201      5.90e-06  Convergence criterion met
 Total energy in the final basis set =     -817.5235414201

                    Orbital Energies (a.u.)
 --------------------------------------------------------------

 Alpha MOs
 -- Occupied --
-19.1248 -19.1120 -19.0548 -19.0391 -14.4999 -10.2129 -10.2039 -10.1908
-10.1900 -10.1726 -10.1719 -10.1697 -10.1687 -10.1579 -10.1483 -10.1443
-10.1300  -1.1758  -1.0015  -0.9773  -0.9542  -0.8644  -0.8017  -0.7877
 -0.7619  -0.7120  -0.6800  -0.6564  -0.6099  -0.5805  -0.5701  -0.5445
 -0.5187  -0.4955  -0.4895  -0.4794  -0.4563  -0.4487  -0.4404  -0.4336
 -0.4186  -0.4012  -0.3827  -0.3788  -0.3680  -0.3625  -0.3554  -0.3416
 -0.3375  -0.3352  -0.2959  -0.2886  -0.2696  -0.2622  -0.2577  -0.2463
 -0.2217  -0.2183  -0.2156  -0.1351

          Ground-State Mulliken Net Atomic Charges

     Atom                 Charge (a.u.)
  ----------------------------------------
      1 C                    -1.428689
      2 C                     1.694980
      3 C                    -0.588475
      4 C                    -0.166774
      5 C                    -0.181575
      6 C                     0.013201
      7 O                    -0.550071
      8 O                    -0.718609
      9 C                     1.342182
     10 H                     0.183721
     11 H                     0.173778
     12 H                     0.182825
     13 C                    -0.263121
     14 C                    -0.370661
     15 C                    -0.464714
     16 C                    -0.498218
     17 C                    -0.614653
     18 N                    -0.245270
     19 O                    -0.219253
     20 O                    -0.151947
     21 H                     0.256554
     22 H                     0.207629
     23 H                     0.205080
     24 H                     0.202081
  ----------------------------------------
  Sum of atomic charges =    -2.000000

                    Cartesian Multipole Moments
 -----------------------------------------------------------------
    Charge (ESU x 10^10)
                -9.6064
    Dipole Moment (Debye)
         X     -10.4001      Y       6.9674      Z       3.0892
       Tot      12.8938
    Quadrupole Moments (Debye-Ang)
        XX    -179.6616     XY     -36.8742     YY    -133.1895
        XZ       8.6642     YZ       6.3601     ZZ    -120.4936

 Total job time:  63.67s(wall), 485.53s(cpu)
        *  Thank you very much for using Q-Chem.  Have a nice day.  *
