 Gaussian 16, Revision A.03,
 Gaussian 16:  ES64L-G16RevA.03 25-Dec-2016

 --------------------------------------
 #P UB3LYP/6-311++G(d,p) nosym opt freq
 --------------------------------------

 -------
 Reduced
 -------
 Symbolic Z-matrix:
 Charge = -2 Multiplicity = 1

 SCF Done:  E(UB3LYP) =  -610.607457488     A.U. after   32 cycles
 SCF Done:  E(UB3LYP) =  -610.635516537     A.U. after   27 cycles
 SCF Done:  E(UB3LYP) =  -610.640651980     A.U. after   29 cycles
 SCF Done:  E(UB3LYP) =  -610.641203839     A.U. after   23 cycles
 SCF Done:  E(UB3LYP) =  -610.641370605     A.U. after   28 cycles
 SCF Done:  E(UB3LYP) =  -610.641549744     A.U. after   22 cycles
 SCF Done:  E(UB3LYP) =  -610.641588559     A.U. after   20 cycles
 SCF Done:  E(UB3LYP) =  -610.641592837     A.U. after   23 cycles
 SCF Done:  E(UB3LYP) =  -610.641602165     A.U. after   20 cycles
 SCF Done:  E(UB3LYP) =  -610.641602549     A.U. after   17 cycles
 SCF Done:  E(UB3LYP) =  -610.641602669     A.U. after   22 cycles
 Optimization completed.
    -- Stationary point found.
 Normal termination of Gaussian 16 at Wed Dec 20 02:06:57 2023.

 ----------------------------------------------------------------------
 #P Geom=AllCheck Guess=TCheck SCRF=Check GenChk UB3LYP/6-311++G(d,p) F
 req
 ----------------------------------------------------------------------

 Structure from the checkpoint file:  "084-an.chk"
 -------
 Reduced
 -------
 Charge = -2 Multiplicity = 1

                          Input orientation:
 ---------------------------------------------------------------------
 Center     Atomic      Atomic             Coordinates (Angstroms)
 Number     Number       Type             X           Y           Z
 ---------------------------------------------------------------------
      1          6           0        2.811610   -0.406181    0.415259
      2          8           0        1.648448    0.296642    0.818150
      3          6           0        0.454443   -0.320488    0.431241
      4          6           0       -0.391324    0.388738   -0.437880
      5          8           0        0.092813    1.584108   -0.979085
      6          6           0       -0.663836    2.725030   -0.611821
      7          6           0       -1.689490   -0.088549   -0.841567
      8          8           0       -2.471322    0.565648   -1.647456
      9          6           0       -2.016573   -1.359808   -0.275202
     10          6           0       -1.165539   -2.076211    0.566740
     11          6           0        0.118562   -1.607454    0.985216
     12          8           0        0.898896   -2.262870    1.791670
     13          1           0        2.904075   -0.414455   -0.684002
     14          1           0        3.672084    0.134761    0.831777
     15          1           0        2.788758   -1.431008    0.799993
     16          1           0       -0.231297    3.581147   -1.147091
     17          1           0       -0.585296    2.915804    0.471876
     18          1           0       -1.712718    2.593517   -0.897102
     19          1           0       -2.984784   -1.775995   -0.555452
     20          1           0       -1.477510   -3.042376    0.964736
 ---------------------------------------------------------------------

 SCF Done:  E(UB3LYP) =  -610.641602669     A.U. after    2 cycles

 Alpha  occ. eigenvalues --  -18.86246 -18.86244 -18.75439 -18.75438  -9.95705
 Alpha  occ. eigenvalues --   -9.95705  -9.92010  -9.91960  -9.91324  -9.91323
 Alpha  occ. eigenvalues --   -9.86949  -9.86895  -0.78029  -0.76341  -0.66287
 Alpha  occ. eigenvalues --   -0.66000  -0.52237  -0.46462  -0.44024  -0.39472
 Alpha  occ. eigenvalues --   -0.38067  -0.30305  -0.28517  -0.22826  -0.21777
 Alpha  occ. eigenvalues --   -0.19988  -0.19563  -0.18447  -0.18214  -0.15266
 Alpha  occ. eigenvalues --   -0.14999  -0.10747  -0.09380  -0.08827  -0.08412
 Alpha  occ. eigenvalues --   -0.07251  -0.06504  -0.04614  -0.00869  -0.00801
 Alpha  occ. eigenvalues --    0.04009   0.05998   0.06883   0.07118   0.14653
 Alpha virt. eigenvalues --    0.16997   0.17459   0.19712   0.20495   0.21059
 Alpha virt. eigenvalues --    0.21380   0.22930   0.23657   0.25376   0.27782
 Alpha virt. eigenvalues --    0.28207   0.28758   0.28850   0.29482   0.30581

  Beta  occ. eigenvalues --  -18.86246 -18.86244 -18.75439 -18.75438  -9.95705
  Beta  occ. eigenvalues --   -9.95705  -9.92010  -9.91960  -9.91324  -9.91323
  Beta  occ. eigenvalues --   -9.86949  -9.86895  -0.78029  -0.76341  -0.66287
  Beta  occ. eigenvalues --   -0.66000  -0.52237  -0.46462  -0.44024  -0.39472
  Beta  occ. eigenvalues --   -0.38067  -0.30305  -0.28517  -0.22826  -0.21777
  Beta  occ. eigenvalues --   -0.19988  -0.19563  -0.18447  -0.18214  -0.15266
  Beta  occ. eigenvalues --   -0.14999  -0.10747  -0.09380  -0.08827  -0.08412
  Beta  occ. eigenvalues --   -0.07251  -0.06504  -0.04614  -0.00869  -0.00801
  Beta  occ. eigenvalues --    0.04009   0.05998   0.06883   0.07118   0.14653
  Beta virt. eigenvalues --    0.16997   0.17459   0.19712   0.20495   0.21059
  Beta virt. eigenvalues --    0.21380   0.22930   0.23657   0.25376   0.27782
  Beta virt. eigenvalues --    0.28207   0.28758   0.28850   0.29482   0.30581

 Mulliken charges and spin densities:
               1          2
     1  C    0.190417  -0.000000
     2  O   -0.186914  -0.000000
     3  C    0.040236   0.000000
     4  C    0.038130  -0.000000
     5  O   -0.186733   0.000000
     6  C    0.190337  -0.000000
     7  C   -0.646070   0.000000
     8  O   -0.566011  -0.000000
     9  C    0.231200  -0.000000
    10  C    0.231506   0.000000
    11  C   -0.647203  -0.000000
    12  O   -0.566046   0.000000
    13  H   -0.041677   0.000000
    14  H   -0.263622   0.000000
    15  H    0.193011   0.000000
    16  H   -0.263632   0.000000
    17  H   -0.041552   0.000000
    18  H    0.192874   0.000000
    19  H    0.050872  -0.000000
    20  H    0.050877   0.000000
 Sum of Mulliken charges =  -2.00000  -0.00000

 Dipole moment (field-independent basis, Debye):
    X=              2.4353    Y=              2.6272    Z=             -0.2212  Tot=              3.5892
 Quadrupole moment (field-independent basis, Debye-Ang):
   XX=           -121.1076   YY=           -116.9630   ZZ=           -108.1369
   XY=              3.4384   XZ=            -20.8725   YZ=             19.9507

  Exact polarizability:1367.409-355.7451257.594 296.175-322.877 378.551
 Approx polarizability:1187.655 423.3431228.031  88.078-192.579 325.916

                      1                      2                      3
                      A                      A                      A
 Frequencies --     85.5915                90.0709                94.5726
 Red. masses --      3.1033                 4.3945                 3.0695
 Frc consts  --      0.0134                 0.0210                 0.0162
 IR Inten    --     10.4613                 1.2559                 5.9681

                      4                      5                      6
                      A                      A                      A
 Frequencies --    136.8423               178.9342               182.2486
 Red. masses --      4.8075                 1.3354                 1.0786
 Frc consts  --      0.0530                 0.0252                 0.0211
 IR Inten    --     13.2623                 2.3469                14.2069

                      7                      8                      9
                      A                      A                      A
 Frequencies --    197.7926               269.6556               325.0125
 Red. masses --      2.4609                 4.3564                 8.1697
 Frc consts  --      0.0567                 0.1866                 0.5085
 IR Inten    --    100.1790                13.4811                 2.5135

                     10                     11                     12
                      A                      A                      A
 Frequencies --    325.8609               348.2569               372.4215
 Red. masses --      7.0499                 9.3487                 6.6179
 Frc consts  --      0.4411                 0.6680                 0.5408
 IR Inten    --    162.2030                 3.5118                 3.4201

                     13                     14                     15
                      A                      A                      A
 Frequencies --    401.1944               455.4997               490.2685
 Red. masses --      5.4802                11.4673                 4.7741
 Frc consts  --      0.5197                 1.4018                 0.6761
 IR Inten    --      2.5676               600.9804                 3.1678

                     16                     17                     18
                      A                      A                      A
 Frequencies --    559.0585               630.6109               654.3209
 Red. masses --      4.8080                 3.1047                 6.1863
 Frc consts  --      0.8854                 0.7274                 1.5605
 IR Inten    --      7.5653                 6.7428                51.4672

                     19                     20                     21
                      A                      A                      A
 Frequencies --    658.6560               754.5621               757.2247
 Red. masses --      2.7885                 8.1275                 7.3822
 Frc consts  --      0.7127                 2.7265                 2.4939
 IR Inten    --     17.7668                 1.6121                50.9447

                     22                     23                     24
                      A                      A                      A
 Frequencies --    792.8991               853.8266               936.3065
 Red. masses --      2.5096                 1.2899                 7.2419
 Frc consts  --      0.9296                 0.5540                 3.7406
 IR Inten    --     18.3616                 7.0819               174.9061

                     25                     26                     27
                      A                      A                      A
 Frequencies --    993.8240              1060.4912              1065.4622
 Red. masses --      4.3900                 7.2019                 3.2937
 Frc consts  --      2.5547                 4.7721                 2.2029
 IR Inten    --      0.7625               853.1739                39.0288

                     28                     29                     30
                      A                      A                      A
 Frequencies --   1123.5722              1137.7182              1159.8623
 Red. masses --      1.9667                 2.7480                 1.2789
 Frc consts  --      1.4628                 2.0958                 1.0137
 IR Inten    --   1306.6564               605.1622                43.6766

                     31                     32                     33
                      A                      A                      A
 Frequencies --   1161.4203              1189.9386              1216.1758
 Red. masses --      1.3294                 3.7921                 1.5394
 Frc consts  --      1.0565                 3.1636                 1.3415
 IR Inten    --      0.3548               231.5715               408.7114

                     34                     35                     36
                      A                      A                      A
 Frequencies --   1217.3982              1301.1335              1329.5003
 Red. masses --      1.6951                 2.4248                 8.8439
 Frc consts  --      1.4802                 2.4187                 9.2102
 IR Inten    --      2.6914               186.8408              2238.2297

                     37                     38                     39
                      A                      A                      A
 Frequencies --   1412.4491              1413.8760              1426.0281
 Red. masses --      2.2576                 4.9677                 1.4417
 Frc consts  --      2.6536                 5.8510                 1.7273
 IR Inten    --    147.2222              1229.7588                 6.8699

                     40                     41                     42
                      A                      A                      A
 Frequencies --   1438.5834              1458.0927              1462.5417
 Red. masses --      1.6374                 1.0662                 1.1228
 Frc consts  --      1.9965                 1.3356                 1.4150
 IR Inten    --    326.4182               805.4822               298.9113

                     43                     44                     45
                      A                      A                      A
 Frequencies --   1486.2658              1509.9878              1510.2921
 Red. masses --      3.0641                 1.0532                 1.0528
 Frc consts  --      3.9879                 1.4149                 1.4149
 IR Inten    --    253.9472                30.3078               142.4945

                     46                     47                     48
                      A                      A                      A
 Frequencies --   1571.1295              2922.4217              2923.7925
 Red. masses --      6.4692                 1.0445                 1.0445
 Frc consts  --      9.4086                 5.2560                 5.2607
 IR Inten    --   2518.9033                52.2451               119.1104

                     49                     50                     51
                      A                      A                      A
 Frequencies --   2991.3200              2991.3550              3048.1200
 Red. masses --      1.0869                 1.0866                 1.1009
 Frc consts  --      5.7302                 5.7288                 6.0266
 IR Inten    --     45.3400               180.9258               118.5823

                     52                     53                     54
                      A                      A                      A
 Frequencies --   3048.8489              3074.4788              3101.9054
 Red. masses --      1.1008                 1.0831                 1.0918
 Frc consts  --      6.0288                 6.0319                 6.1891
 IR Inten    --     67.0755                25.5906               565.3822

 - Thermochemistry -
 -------------------
 Temperature   298.150 Kelvin.  Pressure   1.00000 Atm.
 Atom     1 has atomic number  6 and mass  12.00000

 Molecular mass:   168.04226 amu.
 Principal axes and moments of inertia in atomic units:
                           1         2         3
     Eigenvalues --  1366.663702047.858033208.31491
           X            0.65396   0.67803  -0.33557
           Y           -0.56237   0.73239   0.38386
           Z            0.50603  -0.06232   0.86026
 This molecule is an asymmetric top.
 Rotational symmetry number  1.
 Warning -- assumption of classical behavior for rotation
           may cause significant error
 Rotational temperatures (Kelvin)      0.06338     0.04229     0.02700
 Rotational constants (GHZ):           1.32055     0.88128     0.56252
 Zero-point vibrational energy     378616.1 (Joules/Mol)
                                   90.49143 (Kcal/Mol)
 Warning -- explicit consideration of  16 degrees of freedom as
           vibrations may cause significant error
 Vibrational temperatures:    123.15   129.59   136.07   196.89   257.45
          (Kelvin)            262.22   284.58   387.97   467.62   468.84
                              501.06   535.83   577.23   655.36   705.39
                              804.36   907.31   941.42   947.66  1085.65
                             1089.48  1140.80  1228.47  1347.14  1429.89
                             1525.81  1532.96  1616.57  1636.92  1668.78
                             1671.02  1712.06  1749.81  1751.56  1872.04
                             1912.85  2032.20  2034.25  2051.74  2069.80
                             2097.87  2104.27  2138.41  2172.54  2172.97
                             2260.50  4204.71  4206.69  4303.84  4303.89
                             4385.56  4386.61  4423.49  4462.95

 Zero-point correction=                           0.144207 (Hartree/Particle)
 Thermal correction to Energy=                    0.155725
 Thermal correction to Enthalpy=                  0.156669
 Thermal correction to Gibbs Free Energy=         0.106926
 Sum of electronic and zero-point Energies=           -610.497395
 Sum of electronic and thermal Energies=              -610.485878
 Sum of electronic and thermal Enthalpies=            -610.484933
 Sum of electronic and thermal Free Energies=         -610.534677

                     E (Thermal)             CV                S
                      KCal/Mol        Cal/Mol-Kelvin    Cal/Mol-Kelvin
 Total                   97.719             42.258            104.695
 Electronic               0.000              0.000              0.000
 Translational            0.889              2.981             41.265
 Rotational               0.889              2.981             30.574
 Vibrational             95.942             36.297             32.855
 Vibration     1          0.601              1.959              3.758
 Vibration     2          0.602              1.956              3.659
 Vibration     3          0.603              1.953              3.563
 Vibration     4          0.614              1.917              2.848
 Vibration     5          0.629              1.868              2.340
 Vibration     6          0.630              1.864              2.305
 Vibration     7          0.637              1.843              2.154
 Vibration     8          0.674              1.729              1.598
 Vibration     9          0.709              1.625              1.285
 Vibration    10          0.710              1.624              1.281
 Vibration    11          0.726              1.579              1.174
 Vibration    12          0.744              1.529              1.070
 Vibration    13          0.767              1.468              0.958
 Vibration    14          0.814              1.349              0.779
 Vibration    15          0.846              1.272              0.683
 Vibration    16          0.915              1.120              0.526

 Optimization completed.
    -- Stationary point found.
 Normal termination of Gaussian 16 at Wed Dec 20 02:21:19 2023.
