 Q-Chem 5.4, Q-Chem, Inc., Pleasanton, CA (2021)
 Q-Chem 5.4.0 for Intel X86 EM64T Linux

User input:
--------------------------------------------------------------
$molecule
-2 1
C                 -1.5280530000      2.7856010000      0.0070570000
C                 -2.7898740000      2.2140440000     -0.0182240000
C                 -2.8984170000      0.7891840000     -0.0162300000
C                 -0.3349050000      2.0289070000      0.0188100000
C                 -0.4435310000      0.6003540000      0.0050360000
C                 -1.7374490000      0.0330810000     -0.0126450000
C                  0.9584500000      2.7049420000      0.0368730000
C                  2.0967710000      1.8340320000      0.0473820000
C                  1.9896380000      0.4249140000      0.0335640000
C                  0.7326770000     -0.2636540000      0.0160370000
O                  1.0510480000      3.9904910000      0.0358450000
O                  0.6296220000     -1.5484130000      0.0169760000
C                  3.4556110000      2.4945420000      0.0598980000
C                  3.2328120000     -0.4335900000      0.0512400000
H                 -1.4138870000      3.8657760000      0.0252250000
C                 -4.0308120000      3.0798000000      0.0050970000
C                 -4.2552310000      0.1212470000     -0.0707680000
H                  3.3114170000      3.5773690000      0.0703760000
H                  4.0602970000      2.2292810000     -0.8223570000
H                  4.0541140000      2.2088240000      0.9389420000
H                  3.8875570000     -0.2435700000     -0.8135120000
H                  2.9268180000     -1.4821920000      0.0359350000
H                  3.8503950000     -0.2610390000      0.9474480000
H                 -1.7878340000     -1.0519530000     -0.0300710000
H                 -3.7661930000      4.1395460000     -0.0551970000
H                 -4.6256760000      2.9413310000      0.9256440000
H                 -4.7112630000      2.8605700000     -0.8244380000
H                 -4.9145520000      0.4430300000      0.7422150000
H                 -4.1556910000     -0.9661970000     -0.0054050000
H                 -4.7997300000      0.3459740000     -1.0053630000
$end
$rem
MAX_SCF_CYCLES=200
BASIS  =  6-311++G(d,p)
GUI  =  2
JOB_TYPE  =  SP
METHOD  =  B3LYP
SOLVENT_METHOD = PCM
$end
$pcm
theory = CPCM
$end
$solvent
dielectric 37.219
opticaldielectric 1.43
$end

--------------------------------------------------------------

             Standard Nuclear Orientation (Angstroms)
    I     Atom           X                Y                Z
 ----------------------------------------------------------------
    1      C      -1.5280530000     2.7856010000     0.0070570000
    2      C      -2.7898740000     2.2140440000    -0.0182240000
    3      C      -2.8984170000     0.7891840000    -0.0162300000
    4      C      -0.3349050000     2.0289070000     0.0188100000
    5      C      -0.4435310000     0.6003540000     0.0050360000
    6      C      -1.7374490000     0.0330810000    -0.0126450000
    7      C       0.9584500000     2.7049420000     0.0368730000
    8      C       2.0967710000     1.8340320000     0.0473820000
    9      C       1.9896380000     0.4249140000     0.0335640000
   10      C       0.7326770000    -0.2636540000     0.0160370000
   11      O       1.0510480000     3.9904910000     0.0358450000
   12      O       0.6296220000    -1.5484130000     0.0169760000
   13      C       3.4556110000     2.4945420000     0.0598980000
   14      C       3.2328120000    -0.4335900000     0.0512400000
   15      H      -1.4138870000     3.8657760000     0.0252250000
   16      C      -4.0308120000     3.0798000000     0.0050970000
   17      C      -4.2552310000     0.1212470000    -0.0707680000
   18      H       3.3114170000     3.5773690000     0.0703760000
   19      H       4.0602970000     2.2292810000    -0.8223570000
   20      H       4.0541140000     2.2088240000     0.9389420000
   21      H       3.8875570000    -0.2435700000    -0.8135120000
   22      H       2.9268180000    -1.4821920000     0.0359350000
   23      H       3.8503950000    -0.2610390000     0.9474480000
   24      H      -1.7878340000    -1.0519530000    -0.0300710000
   25      H      -3.7661930000     4.1395460000    -0.0551970000
   26      H      -4.6256760000     2.9413310000     0.9256440000
   27      H      -4.7112630000     2.8605700000    -0.8244380000
   28      H      -4.9145520000     0.4430300000     0.7422150000
   29      H      -4.1556910000    -0.9661970000    -0.0054050000
   30      H      -4.7997300000     0.3459740000    -1.0053630000
 ----------------------------------------------------------------

    9    -692.8139335945      5.42e-06  Convergence criterion met
 Total energy in the final basis set =     -692.8139335945

                    Orbital Energies (a.u.)
 --------------------------------------------------------------

 Alpha MOs
 -- Occupied --
-19.0114 -19.0114 -10.1606 -10.1606 -10.1514 -10.1510 -10.1496 -10.1496
-10.1363 -10.1363 -10.1309 -10.1308 -10.1278 -10.1273 -10.1187 -10.1182
 -0.9307  -0.9275  -0.8282  -0.7767  -0.7445  -0.7372  -0.6920  -0.6767
 -0.6713  -0.6210  -0.6025  -0.5630  -0.5355  -0.5084  -0.4668  -0.4416
 -0.4409  -0.4139  -0.4072  -0.4013  -0.3967  -0.3874  -0.3814  -0.3680
 -0.3676  -0.3607  -0.3572  -0.3569  -0.3514  -0.3437  -0.3404  -0.3188
 -0.3101  -0.2993  -0.2934  -0.2932  -0.2198  -0.2139  -0.1973  -0.1934
 -0.1869  -0.1030

          Ground-State Mulliken Net Atomic Charges

     Atom                 Charge (a.u.)
  ----------------------------------------
      1 C                    -0.210329
      2 C                     0.299838
      3 C                     0.292929
      4 C                     0.112222
      5 C                     0.109270
      6 C                    -0.209977
      7 C                    -0.704842
      8 C                     0.261615
      9 C                     0.273291
     10 C                    -0.707127
     11 O                    -0.724278
     12 O                    -0.723377
     13 C                    -0.491845
     14 C                    -0.489586
     15 H                     0.105350
     16 C                    -0.549655
     17 C                    -0.553573
     18 H                     0.161955
     19 H                     0.132086
     20 H                     0.130917
     21 H                     0.130780
     22 H                     0.162659
     23 H                     0.131992
     24 H                     0.105564
     25 H                     0.168424
     26 H                     0.159141
     27 H                     0.149434
     28 H                     0.149497
     29 H                     0.168143
     30 H                     0.159485
  ----------------------------------------
  Sum of atomic charges =    -2.000000

                    Cartesian Multipole Moments
 -----------------------------------------------------------------
    Charge (ESU x 10^10)
                -9.6064
    Dipole Moment (Debye)
         X      -6.6559      Y     -11.8410      Z      -0.2376
       Tot      13.5855
    Quadrupole Moments (Debye-Ang)
        XX    -117.1016     XY     -12.2741     YY    -180.2316
        XZ      -0.2303     YZ      -0.3678     ZZ    -106.7402

 Total job time:  56.32s(wall), 343.23s(cpu)
        *  Thank you very much for using Q-Chem.  Have a nice day.  *
