 Q-Chem 5.4, Q-Chem, Inc., Pleasanton, CA (2021)
 Q-Chem 5.4.0 for Intel X86 EM64T Linux

User input:
--------------------------------------------------------------
$molecule
-1 2
C                  7.1058690000     -1.8445370000     -0.6053590000
C                  7.6298100000     -0.8061910000     -1.4459670000
C                  6.7780910000      0.2786980000     -1.8640640000
C                  5.4785640000      0.2900140000     -1.4440280000
C                  4.9163830000     -0.7149880000     -0.6125490000
C                  5.7160980000     -1.8065340000     -0.1729180000
C                  5.1273230000     -2.8362910000      0.6833530000
C                  3.7051320000     -2.6734380000      1.0457410000
C                  2.9250330000     -1.5806170000      0.5987380000
C                  3.5083500000     -0.5470370000     -0.2579910000
C                  3.1001620000     -3.6454530000      1.8699190000
C                  1.7720540000     -3.5422600000      2.2396990000
C                  0.9980570000     -2.4523770000      1.7925840000
C                  1.5718880000     -1.4894670000      0.9845240000
O                  5.7510210000     -3.8368040000      1.1224140000
O                  2.8277280000      0.4280270000     -0.6618260000
H                  4.8092850000      1.0906790000     -1.7392240000
H                  3.7174430000     -4.4725640000      2.1994410000
H                  1.0056360000     -0.6388900000      0.6231330000
C                  7.3024710000      1.3842070000     -2.7477910000
H                 -0.0452790000     -2.3711920000      2.0829580000
C                  8.9839990000     -0.8604640000     -1.8564920000
C                  8.0039380000     -2.8811420000     -0.2336030000
C                  9.3193330000     -2.8966600000     -0.6561420000
C                  9.8390360000     -1.8816040000     -1.4802720000
C                 11.2798870000     -1.9141680000     -1.9320490000
H                  1.3241770000     -4.3008760000      2.8749310000
H                  8.1374390000      1.9220610000     -2.2820890000
H                  6.5117060000      2.1087680000     -2.9532590000
H                  7.6670540000      1.0038060000     -3.7099470000
H                  9.3675900000     -0.0696730000     -2.4918790000
H                  7.6210830000     -3.6676140000      0.3983340000
H                  9.9645270000     -3.7138100000     -0.3424380000
H                 11.5159480000     -1.0571120000     -2.5684060000
H                 11.5008530000     -2.8240920000     -2.5018740000
H                 11.9679780000     -1.8959480000     -1.0789390000
$end

$rem
BASIS  =  6-311++G(d,p)
GUI  =  2
JOB_TYPE  =  SP
METHOD  =  B3LYP
SCF_CONVERGENCE  = 8
SOLVENT_METHOD = sm12
$end

$smx
solvent dimethylformamide
charges CM5
$end

--------------------------------------------------------------

             Standard Nuclear Orientation (Angstroms)
    I     Atom           X                Y                Z
 ----------------------------------------------------------------
    1      C       7.1058690000    -1.8445370000    -0.6053590000
    2      C       7.6298100000    -0.8061910000    -1.4459670000
    3      C       6.7780910000     0.2786980000    -1.8640640000
    4      C       5.4785640000     0.2900140000    -1.4440280000
    5      C       4.9163830000    -0.7149880000    -0.6125490000
    6      C       5.7160980000    -1.8065340000    -0.1729180000
    7      C       5.1273230000    -2.8362910000     0.6833530000
    8      C       3.7051320000    -2.6734380000     1.0457410000
    9      C       2.9250330000    -1.5806170000     0.5987380000
   10      C       3.5083500000    -0.5470370000    -0.2579910000
   11      C       3.1001620000    -3.6454530000     1.8699190000
   12      C       1.7720540000    -3.5422600000     2.2396990000
   13      C       0.9980570000    -2.4523770000     1.7925840000
   14      C       1.5718880000    -1.4894670000     0.9845240000
   15      O       5.7510210000    -3.8368040000     1.1224140000
   16      O       2.8277280000     0.4280270000    -0.6618260000
   17      H       4.8092850000     1.0906790000    -1.7392240000
   18      H       3.7174430000    -4.4725640000     2.1994410000
   19      H       1.0056360000    -0.6388900000     0.6231330000
   20      C       7.3024710000     1.3842070000    -2.7477910000
   21      H      -0.0452790000    -2.3711920000     2.0829580000
   22      C       8.9839990000    -0.8604640000    -1.8564920000
   23      C       8.0039380000    -2.8811420000    -0.2336030000
   24      C       9.3193330000    -2.8966600000    -0.6561420000
   25      C       9.8390360000    -1.8816040000    -1.4802720000
   26      C      11.2798870000    -1.9141680000    -1.9320490000
   27      H       1.3241770000    -4.3008760000     2.8749310000
   28      H       8.1374390000     1.9220610000    -2.2820890000
   29      H       6.5117060000     2.1087680000    -2.9532590000
   30      H       7.6670540000     1.0038060000    -3.7099470000
   31      H       9.3675900000    -0.0696730000    -2.4918790000
   32      H       7.6210830000    -3.6676140000     0.3983340000
   33      H       9.9645270000    -3.7138100000    -0.3424380000
   34      H      11.5159480000    -1.0571120000    -2.5684060000
   35      H      11.5008530000    -2.8240920000    -2.5018740000
   36      H      11.9679780000    -1.8959480000    -1.0789390000
 ----------------------------------------------------------------

   18    -921.3440187520      3.26e-09  Convergence criterion met
 Total energy in the final basis set =     -921.4365235338

                    Orbital Energies (a.u.)
 --------------------------------------------------------------

 Alpha MOs
 -- Occupied --
-19.0791 -19.0767 -10.2301 -10.2272 -10.1908 -10.1891 -10.1875 -10.1864
-10.1827 -10.1825 -10.1821 -10.1802 -10.1792 -10.1787 -10.1776 -10.1775
-10.1759 -10.1753 -10.1709 -10.1707 -10.1702 -10.1688  -1.0064  -1.0042
 -0.8796  -0.8645  -0.8370  -0.8029  -0.7792  -0.7574  -0.7571  -0.7384
 -0.7098  -0.6911  -0.6640  -0.6325  -0.6232  -0.6081  -0.5906  -0.5644
 -0.5408  -0.5214  -0.5046  -0.4913  -0.4760  -0.4663  -0.4503  -0.4419
 -0.4379  -0.4351  -0.4327  -0.4222  -0.4202  -0.4183  -0.4130  -0.4083
 -0.3943  -0.3904  -0.3845  -0.3821  -0.3758  -0.3739  -0.3592  -0.3542
 -0.3473  -0.3417  -0.3351  -0.3172  -0.2823  -0.2674  -0.2631  -0.2511
 -0.2462  -0.2351  -0.2269  -0.1487

 Beta MOs
 -- Occupied --
-19.0731 -19.0712 -10.2286 -10.2260 -10.1909 -10.1891 -10.1873 -10.1853
-10.1823 -10.1818 -10.1815 -10.1796 -10.1789 -10.1784 -10.1776 -10.1762
-10.1758 -10.1751 -10.1709 -10.1707 -10.1706 -10.1686  -0.9965  -0.9941
 -0.8784  -0.8629  -0.8354  -0.7999  -0.7777  -0.7559  -0.7555  -0.7377
 -0.7074  -0.6899  -0.6583  -0.6316  -0.6217  -0.6064  -0.5898  -0.5623
 -0.5390  -0.5198  -0.5037  -0.4899  -0.4737  -0.4657  -0.4490  -0.4413
 -0.4371  -0.4323  -0.4310  -0.4194  -0.4180  -0.4114  -0.4110  -0.4044
 -0.3922  -0.3901  -0.3819  -0.3763  -0.3729  -0.3599  -0.3584  -0.3464
 -0.3462  -0.3407  -0.3340  -0.3089  -0.2765  -0.2580  -0.2524  -0.2449
 -0.2408  -0.2301  -0.2195

          Ground-State Mulliken Net Atomic Charges

     Atom                 Charge (a.u.)    Spin (a.u.)
  --------------------------------------------------------
      1 C                    -1.021700      -0.001819
      2 C                    -1.164600       0.002063
      3 C                     0.452946       0.073808
      4 C                    -0.660676      -0.034983
      5 C                    -2.077646       0.104368
      6 C                    -1.078791       0.082839
      7 C                    -2.471147       0.080097
      8 C                    -1.309181       0.007924
      9 C                    -0.120196       0.038537
     10 C                    -1.088211       0.071874
     11 C                     0.028776       0.023483
     12 C                     1.086818       0.030503
     13 C                     1.117091       0.026493
     14 C                     0.129073       0.025044
     15 O                    -0.257634       0.210400
     16 O                    -0.290031       0.224729
     17 H                     0.022462       0.000736
     18 H                     0.172600      -0.001297
     19 H                     0.150265      -0.001923
     20 C                     1.754449      -0.007134
     21 H                     0.370662      -0.002094
     22 C                     0.000137       0.007180
     23 C                    -1.320820       0.017386
     24 C                    -0.071050       0.007196
     25 C                     2.220227       0.013824
     26 C                     1.960637       0.000269
     27 H                     0.359567      -0.002426
     28 H                     0.258254       0.004040
     29 H                     0.323935       0.000190
     30 H                     0.258152       0.004033
     31 H                     0.108348      -0.001311
     32 H                     0.117907      -0.004446
     33 H                     0.256255      -0.000961
     34 H                     0.309178       0.000066
     35 H                     0.237112       0.000645
     36 H                     0.236831       0.000666
  --------------------------------------------------------
  Sum of atomic charges =    -1.000000

                    Cartesian Multipole Moments
 -----------------------------------------------------------------
    Charge (ESU x 10^10)
                -4.8032
    Dipole Moment (Debye)
         X     -21.1548      Y       8.3436      Z      -1.0253
       Tot      22.7638
    Quadrupole Moments (Debye-Ang)
        XX    -232.2293     XY      48.6746     YY    -163.2437
        XZ     -11.6759     YZ       5.0803     ZZ    -137.5165

 Total job time:  1562.20s(wall), 11970.08s(cpu)
        *  Thank you very much for using Q-Chem.  Have a nice day.  *
