 Gaussian 16, Revision A.03,
 Gaussian 16:  ES64L-G16RevA.03 25-Dec-2016

 --------------------------------------
 #P UB3LYP/6-311++G(d,p) nosym opt freq
 --------------------------------------

 -------
 Radical
 -------
 Symbolic Z-matrix:
 Charge = -1 Multiplicity = 2

 SCF Done:  E(UB3LYP) =  -460.280179457     A.U. after   22 cycles
 SCF Done:  E(UB3LYP) =  -460.297127842     A.U. after   18 cycles
 SCF Done:  E(UB3LYP) =  -460.297883934     A.U. after   15 cycles
 SCF Done:  E(UB3LYP) =  -460.298043848     A.U. after   14 cycles
 SCF Done:  E(UB3LYP) =  -460.298233662     A.U. after   15 cycles
 SCF Done:  E(UB3LYP) =  -460.298316053     A.U. after   14 cycles
 SCF Done:  E(UB3LYP) =  -460.298408005     A.U. after   13 cycles
 SCF Done:  E(UB3LYP) =  -460.298672592     A.U. after   14 cycles
 SCF Done:  E(UB3LYP) =  -460.298716533     A.U. after   13 cycles
 SCF Done:  E(UB3LYP) =  -460.298718978     A.U. after   11 cycles
 SCF Done:  E(UB3LYP) =  -460.298719786     A.U. after   11 cycles
 SCF Done:  E(UB3LYP) =  -460.298720129     A.U. after   10 cycles
 SCF Done:  E(UB3LYP) =  -460.298720382     A.U. after   10 cycles
 SCF Done:  E(UB3LYP) =  -460.298720456     A.U. after   11 cycles
 Optimization completed.
    -- Stationary point found.
 Normal termination of Gaussian 16 at Sun Dec 17 21:15:22 2023.

 ----------------------------------------------------------------------
 #P Geom=AllCheck Guess=TCheck SCRF=Check GenChk UB3LYP/6-311++G(d,p) F
 req
 ----------------------------------------------------------------------

 Structure from the checkpoint file:  "039-rad.chk"
 -------
 Radical
 -------
 Charge = -1 Multiplicity = 2

                          Input orientation:
 ---------------------------------------------------------------------
 Center     Atomic      Atomic             Coordinates (Angstroms)
 Number     Number       Type             X           Y           Z
 ---------------------------------------------------------------------
      1          6           0       -2.584911   -0.666307   -0.217243
      2          6           0       -1.243905   -0.005942   -0.032440
      3          6           0       -1.126906    1.326716    0.275249
      4          6           0        0.147894    1.987572    0.458336
      5          8           0        0.239481    3.218683    0.741937
      6          6           0        1.310536    1.141103    0.293761
      7          6           0        1.229019   -0.194283   -0.013574
      8          6           0        2.457173   -1.050387   -0.178563
      9          6           0       -0.062732   -0.843121   -0.194209
     10          8           0       -0.154420   -2.075624   -0.478391
     11          1           0       -2.714589   -1.496130    0.486281
     12          1           0       -3.398767    0.050561   -0.073457
     13          1           0       -2.671947   -1.105958   -1.217005
     14          1           0       -2.012873    1.946837    0.394780
     15          1           0        2.278295    1.620025    0.427387
     16          1           0        3.367938   -0.464710   -0.022324
     17          1           0        2.491432   -1.500093   -1.177050
     18          1           0        2.449281   -1.888943    0.526525
 ---------------------------------------------------------------------

 SCF Done:  E(UB3LYP) =  -460.298720456     A.U. after    1 cycles

 Alpha  occ. eigenvalues --  -18.92776 -18.92492 -10.07017 -10.06994 -10.03429
 Alpha  occ. eigenvalues --  -10.03429 -10.03145 -10.03144 -10.01691 -10.01690
 Alpha  occ. eigenvalues --   -0.84841  -0.84303  -0.68535  -0.64311  -0.58302
 Alpha  occ. eigenvalues --   -0.54088  -0.51687  -0.43159  -0.41258  -0.34416
 Alpha  occ. eigenvalues --   -0.31877  -0.29636  -0.28799  -0.27994  -0.27230
 Alpha  occ. eigenvalues --   -0.26467  -0.25007  -0.24414  -0.23927  -0.21583
 Alpha  occ. eigenvalues --   -0.21579  -0.21082  -0.13021  -0.10663  -0.09262
 Alpha  occ. eigenvalues --   -0.08629  -0.01286
 Alpha virt. eigenvalues --    0.09504   0.09917   0.11937   0.12595   0.12895
 Alpha virt. eigenvalues --    0.13055   0.13585   0.15326   0.15405   0.16671
 Alpha virt. eigenvalues --    0.17098   0.18109   0.18551   0.19724   0.20475

  Beta  occ. eigenvalues --  -18.92077 -18.91749 -10.06903 -10.06865 -10.03438
  Beta  occ. eigenvalues --  -10.03437 -10.03038 -10.03037 -10.01572 -10.01572
  Beta  occ. eigenvalues --   -0.83621  -0.83006  -0.67960  -0.64123  -0.57976
  Beta  occ. eigenvalues --   -0.53890  -0.50781  -0.42801  -0.40873  -0.34238
  Beta  occ. eigenvalues --   -0.31436  -0.29057  -0.28505  -0.27893  -0.27082
  Beta  occ. eigenvalues --   -0.26402  -0.24315  -0.24311  -0.22178  -0.21174
  Beta  occ. eigenvalues --   -0.20867  -0.18786  -0.09864  -0.09605  -0.08599
  Beta  occ. eigenvalues --   -0.07956
  Beta virt. eigenvalues --    0.05962   0.09501   0.09907   0.11945   0.12595
  Beta virt. eigenvalues --    0.13129   0.13593   0.13597   0.15320   0.16071
  Beta virt. eigenvalues --    0.17115   0.17857   0.18145   0.18539   0.20646

 Mulliken charges and spin densities:
               1          2
     1  C   -0.416515   0.004764
     2  C    1.518863   0.082209
     3  C   -0.486255   0.079270
     4  C   -0.592742   0.104569
     5  O   -0.420733   0.262108
     6  C   -0.486212   0.079253
     7  C    1.518846   0.082231
     8  C   -0.416520   0.004762
     9  C   -1.859459   0.039875
    10  O   -0.395297   0.260843
    11  H    0.147056   0.004685
    12  H    0.114482  -0.000451
    13  H    0.147025   0.004689
    14  H    0.109447  -0.008866
    15  H    0.109447  -0.008866
    16  H    0.114479  -0.000451
    17  H    0.147062   0.004683
    18  H    0.147024   0.004693
 Sum of Mulliken charges =  -1.00000   1.00000

 Dipole moment (field-independent basis, Debye):
    X=             -0.2293    Y=             -3.0812    Z=             -0.7106  Tot=              3.1704
 Quadrupole moment (field-independent basis, Debye-Ang):
   XX=            -65.5311   YY=           -101.6874   ZZ=            -65.9201
   XY=             -2.7027   XZ=             -0.6583   YZ=             -8.7046

  Exact polarizability: 131.566   2.203 162.460   2.049  21.214  74.834
 Approx polarizability: 171.337   8.178 282.213   3.535  40.748 114.300

                      1                      2                      3
                      A                      A                      A
 Frequencies --    104.9014               121.2745               125.4278
 Red. masses --      3.9377                 1.0354                 1.1369
 Frc consts  --      0.0255                 0.0090                 0.0105
 IR Inten    --     10.8405                 0.0291                 0.9045

                      4                      5                      6
                      A                      A                      A
 Frequencies --    174.3298               222.3759               271.4931
 Red. masses --      4.2322                 3.0519                 2.5933
 Frc consts  --      0.0758                 0.0889                 0.1126
 IR Inten    --      0.5300                 0.0000                 3.0014

                      7                      8                      9
                      A                      A                      A
 Frequencies --    298.4472               340.5086               378.0136
 Red. masses --      3.6461                 5.2120                 9.3828
 Frc consts  --      0.1913                 0.3560                 0.7899
 IR Inten    --      0.7565                 0.7230                11.9183

                     10                     11                     12
                      A                      A                      A
 Frequencies --    463.7428               464.6717               496.5967
 Red. masses --      8.5232                 3.3941                 5.1620
 Frc consts  --      1.0800                 0.4318                 0.7500
 IR Inten    --      0.0502                 0.0000                 0.1109

                     13                     14                     15
                      A                      A                      A
 Frequencies --    578.2981               620.3060               637.5495
 Red. masses --      5.4336                 3.7696                 2.6324
 Frc consts  --      1.0706                 0.8546                 0.6304
 IR Inten    --      7.4446                 0.8222                 0.0277

                     16                     17                     18
                      A                      A                      A
 Frequencies --    759.9505               795.3886               842.4034
 Red. masses --      5.5707                 4.2284                 1.2657
 Frc consts  --      1.8955                 1.5761                 0.5292
 IR Inten    --      4.0178                22.9439                 0.0008

                     19                     20                     21
                      A                      A                      A
 Frequencies --    874.4489               940.6582               951.6391
 Red. masses --      1.6575                 2.8973                 3.3657
 Frc consts  --      0.7467                 1.5104                 1.7959
 IR Inten    --     39.1893                 9.1594                12.7477

                     22                     23                     24
                      A                      A                      A
 Frequencies --   1033.1070              1033.1369              1047.1822
 Red. masses --      1.6606                 1.6097                 1.4611
 Frc consts  --      1.0443                 1.0123                 0.9440
 IR Inten    --      8.1032                10.1714                 0.0002

                     25                     26                     27
                      A                      A                      A
 Frequencies --   1049.7218              1184.8279              1197.4288
 Red. masses --      1.5137                 2.5270                 3.0108
 Frc consts  --      0.9827                 2.0901                 2.5435
 IR Inten    --      1.2772                42.1721                 3.3762

                     28                     29                     30
                      A                      A                      A
 Frequencies --   1249.8857              1335.4850              1394.6344
 Red. masses --      1.8966                 2.2463                 1.3026
 Frc consts  --      1.7457                 2.3605                 1.4927
 IR Inten    --      3.7625                 3.1879                 0.8317

                     31                     32                     33
                      A                      A                      A
 Frequencies --   1394.7905              1426.7356              1464.0103
 Red. masses --      1.3341                 4.5702                 1.0469
 Frc consts  --      1.5292                 5.4812                 1.3220
 IR Inten    --     18.8032                28.5456                 6.3654

                     34                     35                     36
                      A                      A                      A
 Frequencies --   1464.1598              1477.0459              1483.5417
 Red. masses --      1.0466                 1.3110                 1.2269
 Frc consts  --      1.3219                 1.6852                 1.5910
 IR Inten    --      1.7646                24.1690                 2.6884

                     37                     38                     39
                      A                      A                      A
 Frequencies --   1497.3684              1521.4787              1541.1286
 Red. masses --      7.1492                 3.9145                 4.0023
 Frc consts  --      9.4442                 5.3390                 5.6006
 IR Inten    --     36.1161               459.9380                 5.6259

                     40                     41                     42
                      A                      A                      A
 Frequencies --   1646.5103              3003.8138              3005.0532
 Red. masses --      6.5394                 1.0342                 1.0342
 Frc consts  --     10.4453                 5.4977                 5.5027
 IR Inten    --      9.0870               132.8874                35.7085

                     43                     44                     45
                      A                      A                      A
 Frequencies --   3045.8294              3045.9755              3074.1372
 Red. masses --      1.0987                 1.0987                 1.1024
 Frc consts  --      6.0055                 6.0062                 6.1381
 IR Inten    --     11.0139                61.4911                22.3141

                     46                     47                     48
                      A                      A                      A
 Frequencies --   3074.5299              3125.2809              3128.1707
 Red. masses --      1.1022                 1.0893                 1.0884
 Frc consts  --      6.1387                 6.2689                 6.2750
 IR Inten    --     35.0427                59.1208                24.9173

 - Thermochemistry -
 -------------------
 Temperature   298.150 Kelvin.  Pressure   1.00000 Atm.
 Atom     1 has atomic number  6 and mass  12.00000

 Molecular mass:   136.05243 amu.
 Principal axes and moments of inertia in atomic units:
                           1         2         3
     Eigenvalues --  1031.475751338.562882348.04729
           X            0.07231   0.99708  -0.02443
           Y            0.97189  -0.07594  -0.22283
           Z            0.22404   0.00763   0.97455
 This molecule is an asymmetric top.
 Rotational symmetry number  1.
 Warning -- assumption of classical behavior for rotation
           may cause significant error
 Rotational temperatures (Kelvin)      0.08397     0.06471     0.03689
 Rotational constants (GHZ):           1.74967     1.34827     0.76861
 Zero-point vibrational energy     361316.5 (Joules/Mol)
                                   86.35671 (Kcal/Mol)
 Warning -- explicit consideration of  14 degrees of freedom as
           vibrations may cause significant error
 Vibrational temperatures:    150.93   174.49   180.46   250.82   319.95
          (Kelvin)            390.62   429.40   489.92   543.88   667.22
                              668.56   714.49   832.04   892.48   917.29
                             1093.40  1144.39  1212.03  1258.14  1353.40
                             1369.20  1486.41  1486.45  1506.66  1510.32
                             1704.70  1722.83  1798.31  1921.46  2006.57
                             2006.79  2052.75  2106.38  2106.60  2125.14
                             2134.49  2154.38  2189.07  2217.34  2368.96
                             4321.82  4323.60  4382.27  4382.48  4423.00
                             4423.56  4496.58  4500.74

 Zero-point correction=                           0.137618 (Hartree/Particle)
 Thermal correction to Energy=                    0.147093
 Thermal correction to Enthalpy=                  0.148037
 Thermal correction to Gibbs Free Energy=         0.102558
 Sum of electronic and zero-point Energies=           -460.161102
 Sum of electronic and thermal Energies=              -460.151627
 Sum of electronic and thermal Enthalpies=            -460.150683
 Sum of electronic and thermal Free Energies=         -460.196162

                     E (Thermal)             CV                S
                      KCal/Mol        Cal/Mol-Kelvin    Cal/Mol-Kelvin
 Total                   92.302             35.239             95.718
 Electronic               0.000              0.000              1.377
 Translational            0.889              2.981             40.636
 Rotational               0.889              2.981             29.562
 Vibrational             90.525             29.278             24.143
 Vibration     1          0.605              1.945              3.361
 Vibration     2          0.609              1.931              3.080
 Vibration     3          0.610              1.928              3.015
 Vibration     4          0.627              1.874              2.388
 Vibration     5          0.648              1.807              1.940
 Vibration     6          0.675              1.726              1.587
 Vibration     7          0.692              1.677              1.426
 Vibration     8          0.720              1.595              1.210
 Vibration     9          0.748              1.517              1.047
 Vibration    10          0.821              1.330              0.755
 Vibration    11          0.822              1.328              0.753
 Vibration    12          0.852              1.258              0.667
 Vibration    13          0.935              1.078              0.489
 Vibration    14          0.980              0.989              0.416

 Optimization completed.
    -- Stationary point found.
 Normal termination of Gaussian 16 at Sun Dec 17 21:30:20 2023.
