 Gaussian 16, Revision A.03,
 Gaussian 16:  ES64L-G16RevA.03 25-Dec-2016

 --------------------------------------
 #P UB3LYP/6-311++G(d,p) nosym opt freq
 --------------------------------------

 -------
 Radical
 -------
 Symbolic Z-matrix:
 Charge = -1 Multiplicity = 2

 SCF Done:  E(UB3LYP) =  -3777.54546552     A.U. after   25 cycles
 SCF Done:  E(UB3LYP) =  -3777.55531187     A.U. after   17 cycles
 SCF Done:  E(UB3LYP) =  -3777.55622421     A.U. after   17 cycles
 SCF Done:  E(UB3LYP) =  -3777.55632552     A.U. after   16 cycles
 SCF Done:  E(UB3LYP) =  -3777.55634757     A.U. after   16 cycles
 SCF Done:  E(UB3LYP) =  -3777.55638007     A.U. after   14 cycles
 SCF Done:  E(UB3LYP) =  -3777.55638579     A.U. after   14 cycles
 SCF Done:  E(UB3LYP) =  -3777.55638678     A.U. after   11 cycles
 SCF Done:  E(UB3LYP) =  -3777.55638703     A.U. after   11 cycles
 Optimization completed.
    -- Stationary point found.
 Normal termination of Gaussian 16 at Thu Dec 21 06:59:48 2023.

 ----------------------------------------------------------------------
 #P Geom=AllCheck Guess=TCheck SCRF=Check GenChk UB3LYP/6-311++G(d,p) F
 req
 ----------------------------------------------------------------------

 Structure from the checkpoint file:  "160-rad.chk"
 -------
 Radical
 -------
 Charge = -1 Multiplicity = 2

                          Input orientation:
 ---------------------------------------------------------------------
 Center     Atomic      Atomic             Coordinates (Angstroms)
 Number     Number       Type             X           Y           Z
 ---------------------------------------------------------------------
      1          6           0       -1.769967    1.891102   -5.143978
      2          6           0       -1.679423    0.566439   -5.521164
      3          6           0       -1.301528   -0.414214   -4.577883
      4          6           0       -1.489525    2.296621   -3.819321
      5          6           0       -1.110387    1.307914   -2.873976
      6          6           0       -1.023628   -0.042089   -3.278366
      7          6           0       -1.605862    3.723853   -3.487312
      8          6           0       -0.810118    1.665351   -1.492524
      9          6           0       -1.303091    4.099492   -2.098602
     10          6           0       -0.923417    3.088356   -1.154178
     11          6           0       -1.361476    5.433875   -1.607481
     12          6           0       -1.084059    5.789210   -0.283669
     13          6           0       -0.709954    4.737119    0.590407
     14          6           0       -0.629003    3.437419    0.175315
     15          8           0       -1.950009    4.546756   -4.367854
     16          8           0       -0.472978    0.810552   -0.638951
     17          1           0       -2.058038    2.662047   -5.848526
     18          1           0       -1.899117    0.276910   -6.544605
     19          1           0       -1.230871   -1.456100   -4.875560
     20          1           0       -0.731412   -0.768917   -2.529382
     21         35           0       -0.270063    5.160614    2.432883
     22          1           0       -0.339068    2.637750    0.844219
     23          7           0       -1.214826    7.093336    0.182061
     24         17           0       -1.786694    6.800118   -2.656844
     25          1           0       -1.192473    7.797717   -0.540821
     26          1           0       -0.658832    7.310161    0.996100
 ---------------------------------------------------------------------

 SCF Done:  E(UB3LYP) =  -3777.55638703     A.U. after    2 cycles

 Alpha  occ. eigenvalues -- -482.73953-101.44072 -62.39241 -56.21255 -56.20898
 Alpha  occ. eigenvalues --  -56.20889 -18.95565 -18.95124 -14.23023 -10.13102
 Alpha  occ. eigenvalues --  -10.12689 -10.12617 -10.10781 -10.10696 -10.07783
 Alpha  occ. eigenvalues --  -10.07338 -10.06503 -10.06503 -10.06444 -10.05879
 Alpha  occ. eigenvalues --  -10.05814 -10.05679 -10.05670  -9.35543  -8.60208
 Alpha  occ. eigenvalues --   -7.11985  -7.11057  -7.10977  -6.43279  -6.42098
 Alpha  occ. eigenvalues --   -6.42066  -2.54384  -2.54051  -2.54024  -2.53088
 Alpha  occ. eigenvalues --   -2.53086  -0.88415  -0.88080  -0.84295  -0.76274
 Alpha  occ. eigenvalues --   -0.74572  -0.74185  -0.70279  -0.66281  -0.63751
 Alpha  occ. eigenvalues --   -0.62892  -0.62209  -0.55330  -0.52929  -0.50992
 Alpha  occ. eigenvalues --   -0.48762  -0.45292  -0.43574  -0.42750  -0.40606
 Alpha  occ. eigenvalues --   -0.38555  -0.35690  -0.35142  -0.34528  -0.32801
 Alpha  occ. eigenvalues --   -0.32257  -0.31413  -0.30921  -0.29948  -0.29118
 Alpha  occ. eigenvalues --   -0.28979  -0.28093  -0.26372  -0.25490  -0.24349
 Alpha  occ. eigenvalues --   -0.24215  -0.23817  -0.22506  -0.21543  -0.21180
 Alpha  occ. eigenvalues --   -0.20155  -0.19816  -0.14960  -0.14228  -0.13909
 Alpha  occ. eigenvalues --   -0.12420  -0.11750  -0.11116  -0.02266
 Alpha virt. eigenvalues --    0.05648   0.06270   0.07952   0.08075   0.08754
 Alpha virt. eigenvalues --    0.09775   0.10040   0.10394   0.10914   0.12037
 Alpha virt. eigenvalues --    0.12726   0.13111   0.13494   0.14096   0.14900

  Beta  occ. eigenvalues -- -482.73952-101.44070 -62.39240 -56.21255 -56.20897
  Beta  occ. eigenvalues --  -56.20888 -18.95025 -18.94454 -14.23006 -10.13052
  Beta  occ. eigenvalues --  -10.12652 -10.12563 -10.10658 -10.10567 -10.07660
  Beta  occ. eigenvalues --  -10.07363 -10.06460 -10.06423 -10.06395 -10.05891
  Beta  occ. eigenvalues --  -10.05739 -10.05675 -10.05590  -9.35542  -8.60207
  Beta  occ. eigenvalues --   -7.11987  -7.11048  -7.10976  -6.43280  -6.42097
  Beta  occ. eigenvalues --   -6.42063  -2.54385  -2.54051  -2.54022  -2.53085
  Beta  occ. eigenvalues --   -2.53083  -0.87470  -0.86965  -0.84210  -0.76134
  Beta  occ. eigenvalues --   -0.74454  -0.74067  -0.70115  -0.65984  -0.63559
  Beta  occ. eigenvalues --   -0.62733  -0.62010  -0.54665  -0.52768  -0.50754
  Beta  occ. eigenvalues --   -0.48680  -0.45108  -0.43444  -0.42631  -0.40450
  Beta  occ. eigenvalues --   -0.38392  -0.35535  -0.34961  -0.34416  -0.32760
  Beta  occ. eigenvalues --   -0.31806  -0.31250  -0.30794  -0.29737  -0.28626
  Beta  occ. eigenvalues --   -0.28164  -0.27615  -0.25386  -0.25038  -0.24184
  Beta  occ. eigenvalues --   -0.23656  -0.22718  -0.22366  -0.21311  -0.21071
  Beta  occ. eigenvalues --   -0.20116  -0.18950  -0.13942  -0.13191  -0.12847
  Beta  occ. eigenvalues --   -0.11906  -0.10991  -0.10529
  Beta virt. eigenvalues --    0.03674   0.06306   0.06474   0.07951   0.08103
  Beta virt. eigenvalues --    0.09734   0.09787   0.10038   0.10672   0.10931
  Beta virt. eigenvalues --    0.12035   0.12751   0.13114   0.13503   0.14117

 Mulliken charges and spin densities:
               1          2
     1  C    0.120056   0.022559
     2  C   -0.444175   0.031483
     3  C   -0.369155   0.039944
     4  C    0.097122   0.046995
     5  C    0.162458   0.026251
     6  C    0.051478   0.011970
     7  C   -1.265661   0.061837
     8  C   -0.793518   0.060080
     9  C    0.685550   0.095874
    10  C    0.243985   0.044762
    11  C    0.269154   0.039136
    12  C   -1.174694   0.038901
    13  C    0.613169   0.033935
    14  C    0.328615  -0.002238
    15  O   -0.252647   0.249047
    16  O   -0.353826   0.201343
    17  H    0.163694  -0.002102
    18  H    0.126672  -0.002814
    19  H    0.127620  -0.003277
    20  H    0.156108  -0.000724
    21  Br  -0.247878   0.000179
    22  H    0.221802  -0.000483
    23  N   -0.155803   0.007811
    24  Cl   0.255465  -0.000363
    25  H    0.211813  -0.000372
    26  H    0.222595   0.000265
 Sum of Mulliken charges =  -1.00000   1.00000

 Dipole moment (field-independent basis, Debye):
    X=              6.4325    Y=            -14.5379    Z=             10.2397  Tot=             18.9097
 Quadrupole moment (field-independent basis, Debye-Ang):
   XX=           -147.1413   YY=           -196.6320   ZZ=           -182.5414
   XY=             27.7026   XZ=            -18.4737   YZ=             37.1037

  Exact polarizability: 126.579 -10.668 333.089  44.240  76.763 329.184
 Approx polarizability: 208.801 -36.162 537.137  77.244  53.808 519.299

                      1                      2                      3
                      A                      A                      A
 Frequencies --     33.1594                37.5951                89.1747
 Red. masses --     11.8760                 8.1578                 7.2754
 Frc consts  --      0.0077                 0.0068                 0.0341
 IR Inten    --      0.7098                 4.6670                 0.4265

                      4                      5                      6
                      A                      A                      A
 Frequencies --    122.3671               126.3097               138.4162
 Red. masses --      5.3974                12.0050                 7.2217
 Frc consts  --      0.0476                 0.1128                 0.0815
 IR Inten    --      0.9789                 0.8755                 1.4979

                      7                      8                      9
                      A                      A                      A
 Frequencies --    187.4451               195.0979               217.0453
 Red. masses --      6.1823                12.4987                16.4173
 Frc consts  --      0.1280                 0.2803                 0.4557
 IR Inten    --      0.7396                 2.5452                 1.1090

                     10                     11                     12
                      A                      A                      A
 Frequencies --    272.1115               281.0494               322.0467
 Red. masses --      5.8699                 7.9550                 7.9875
 Frc consts  --      0.2561                 0.3702                 0.4881
 IR Inten    --      2.1317                 0.9243                 0.6648

                     13                     14                     15
                      A                      A                      A
 Frequencies --    323.6314               345.2507               366.9761
 Red. masses --      6.4635                 7.7976                 6.8541
 Frc consts  --      0.3989                 0.5476                 0.5438
 IR Inten    --      6.1035                 1.4052                 1.9954

                     16                     17                     18
                      A                      A                      A
 Frequencies --    379.7698               389.1863               432.9110
 Red. masses --      1.1177                 9.0314                 5.6588
 Frc consts  --      0.0950                 0.8060                 0.6248
 IR Inten    --     32.2450                 3.2352                 0.2819

                     19                     20                     21
                      A                      A                      A
 Frequencies --    445.6358               474.3778               490.7264
 Red. masses --      3.8532                 9.2178                 9.2563
 Frc consts  --      0.4508                 1.2221                 1.3133
 IR Inten    --      5.2887                 5.0096                 0.6313

                     22                     23                     24
                      A                      A                      A
 Frequencies --    501.2027               546.1744               554.0032
 Red. masses --      4.8676                 5.7782                 2.6561
 Frc consts  --      0.7204                 1.0156                 0.4803
 IR Inten    --      0.4025                13.4227                96.6764

                     25                     26                     27
                      A                      A                      A
 Frequencies --    586.6223               620.9205               667.7965
 Red. masses --      1.9890                 4.9886                 6.6945
 Frc consts  --      0.4033                 1.1332                 1.7590
 IR Inten    --    218.6303                14.3185                21.5578

                     28                     29                     30
                      A                      A                      A
 Frequencies --    672.6947               700.4548               707.3957
 Red. masses --      7.1373                 6.9364                 2.5558
 Frc consts  --      1.9029                 2.0052                 0.7535
 IR Inten    --     32.3489                 8.0635                54.2614

                     31                     32                     33
                      A                      A                      A
 Frequencies --    721.4504               765.5975               768.4975
 Red. masses --      5.6707                 6.6515                 8.5349
 Frc consts  --      1.7390                 2.2970                 2.9698
 IR Inten    --      2.5147                34.2471                53.2274

                     34                     35                     36
                      A                      A                      A
 Frequencies --    782.3745               802.4912               873.0245
 Red. masses --      1.9024                 4.4944                 1.5118
 Frc consts  --      0.6861                 1.7053                 0.6789
 IR Inten    --     22.9321                 0.3124                 0.1105

                     37                     38                     39
                      A                      A                      A
 Frequencies --    881.7629               935.7392               970.5761
 Red. masses --      6.3328                 1.3702                 8.8063
 Frc consts  --      2.9010                 0.7069                 4.8877
 IR Inten    --      3.7090                 9.7370                 1.4294

                     40                     41                     42
                      A                      A                      A
 Frequencies --    983.3261               988.8935              1015.0074
 Red. masses --      1.3310                 1.2986                 3.9743
 Frc consts  --      0.7583                 0.7482                 2.4124
 IR Inten    --      1.9726                 1.0269                24.8544

                     43                     44                     45
                      A                      A                      A
 Frequencies --   1040.7197              1109.7600              1126.7920
 Red. masses --      1.9419                 2.1600                 1.9637
 Frc consts  --      1.2392                 1.5673                 1.4690
 IR Inten    --     33.8092                21.2823                 8.6080

                     46                     47                     48
                      A                      A                      A
 Frequencies --   1144.2845              1149.8971              1185.0974
 Red. masses --      1.5625                 4.5517                 1.7863
 Frc consts  --      1.2054                 3.5461                 1.4781
 IR Inten    --     23.0706                50.4063                 0.9899

                     49                     50                     51
                      A                      A                      A
 Frequencies --   1215.0284              1228.7628              1283.1623
 Red. masses --      2.4384                 1.8783                 3.2443
 Frc consts  --      2.1210                 1.6709                 3.1473
 IR Inten    --     39.4474                20.4412                 2.6536

                     52                     53                     54
                      A                      A                      A
 Frequencies --   1305.7554              1347.3556              1366.7312
 Red. masses --      2.7849                 5.8658                10.7396
 Frc consts  --      2.7976                 6.2740                11.8197
 IR Inten    --     36.6983                23.0401                 5.6578

                     55                     56                     57
                      A                      A                      A
 Frequencies --   1386.6911              1437.8342              1472.2788
 Red. masses --      4.0009                 3.9689                 3.6501
 Frc consts  --      4.5328                 4.8344                 4.6616
 IR Inten    --    216.7809               254.0091               118.9364

                     58                     59                     60
                      A                      A                      A
 Frequencies --   1481.8660              1510.2584              1529.2029
 Red. masses --      2.6227                 5.8008                 7.9681
 Frc consts  --      3.3933                 7.7955                10.9783
 IR Inten    --      3.3721               378.2169               299.0158

                     61                     62                     63
                      A                      A                      A
 Frequencies --   1552.7570              1588.1541              1612.2390
 Red. masses --      6.7099                 3.7727                 9.2586
 Frc consts  --      9.5318                 5.6064                14.1793
 IR Inten    --     32.3458                24.7614                12.9375

                     64                     65                     66
                      A                      A                      A
 Frequencies --   1627.1357              1634.2148              3136.1254
 Red. masses --      2.8519                 1.9449                 1.0849
 Frc consts  --      4.4487                 3.0603                 6.2867
 IR Inten    --     90.1516                84.6852                17.7146

                     67                     68                     69
                      A                      A                      A
 Frequencies --   3155.1615              3185.1774              3189.8299
 Red. masses --      1.0914                 1.0919                 1.0921
 Frc consts  --      6.4014                 6.5270                 6.5473
 IR Inten    --     53.7499                16.0472                24.6794

                     70                     71                     72
                      A                      A                      A
 Frequencies --   3203.6600              3553.1529              3659.4408
 Red. masses --      1.0905                 1.0463                 1.0996
 Frc consts  --      6.5942                 7.7825                 8.6762
 IR Inten    --      6.6373                16.6667                35.2338

 - Thermochemistry -
 -------------------
 Temperature   298.150 Kelvin.  Pressure   1.00000 Atm.
 Atom     1 has atomic number  6 and mass  12.00000

 Molecular mass:   334.93487 amu.
 Principal axes and moments of inertia in atomic units:
                           1         2         3
     Eigenvalues --  3676.61918********************
           X            0.12685  -0.24910   0.96013
           Y            0.57832   0.80499   0.13244
           Z            0.80589  -0.53846  -0.24618
 This molecule is an asymmetric top.
 Rotational symmetry number  1.
 Warning -- assumption of classical behavior for rotation
           may cause significant error
 Rotational temperatures (Kelvin)      0.02356     0.00809     0.00602
 Rotational constants (GHZ):           0.49087     0.16856     0.12549
 Zero-point vibrational energy     455387.3 (Joules/Mol)
                                  108.84018 (Kcal/Mol)
 Warning -- explicit consideration of  25 degrees of freedom as
           vibrations may cause significant error
 Vibrational temperatures:     47.71    54.09   128.30   176.06   181.73
          (Kelvin)            199.15   269.69   280.70   312.28   391.51
                              404.37   463.35   465.63   496.74   528.00
                              546.40   559.95   622.86   641.17   682.52
                              706.05   721.12   785.82   797.09   844.02
                              893.37   960.81   967.86  1007.80  1017.78
                             1038.01  1101.52  1105.70  1125.66  1154.61
                             1256.09  1268.66  1346.32  1396.44  1414.79
                             1422.80  1460.37  1497.36  1596.70  1621.20
                             1646.37  1654.45  1705.09  1748.15  1767.92
                             1846.18  1878.69  1938.54  1966.42  1995.14
                             2068.72  2118.28  2132.07  2172.93  2200.18
                             2234.07  2285.00  2319.65  2341.09  2351.27
                             4512.19  4539.57  4582.76  4589.45  4609.35
                             5112.19  5265.12

 Zero-point correction=                           0.173448 (Hartree/Particle)
 Thermal correction to Energy=                    0.188970
 Thermal correction to Enthalpy=                  0.189914
 Thermal correction to Gibbs Free Energy=         0.128606
 Sum of electronic and zero-point Energies=          -3777.382939
 Sum of electronic and thermal Energies=             -3777.367417
 Sum of electronic and thermal Enthalpies=           -3777.366473
 Sum of electronic and thermal Free Energies=        -3777.427781

                     E (Thermal)             CV                S
                      KCal/Mol        Cal/Mol-Kelvin    Cal/Mol-Kelvin
 Total                  118.580             60.200            129.033
 Electronic               0.000              0.000              1.377
 Translational            0.889              2.981             43.321
 Rotational               0.889              2.981             34.692
 Vibrational            116.803             54.238             49.643
 Vibration     1          0.594              1.983              5.631
 Vibration     2          0.594              1.982              5.382
 Vibration     3          0.602              1.957              3.678
 Vibration     4          0.610              1.930              3.063
 Vibration     5          0.611              1.927              3.001
 Vibration     6          0.614              1.915              2.826
 Vibration     7          0.632              1.857              2.253
 Vibration     8          0.636              1.847              2.179
 Vibration     9          0.646              1.815              1.984
 Vibration    10          0.675              1.725              1.583
 Vibration    11          0.681              1.709              1.527
 Vibration    12          0.707              1.631              1.300
 Vibration    13          0.708              1.628              1.292
 Vibration    14          0.724              1.585              1.188
 Vibration    15          0.740              1.540              1.092
 Vibration    16          0.750              1.513              1.040
 Vibration    17          0.757              1.493              1.003
 Vibration    18          0.794              1.399              0.849
 Vibration    19          0.805              1.371              0.809
 Vibration    20          0.831              1.307              0.725
 Vibration    21          0.847              1.271              0.682
 Vibration    22          0.857              1.247              0.655
 Vibration    23          0.901              1.148              0.552
 Vibration    24          0.909              1.131              0.536
 Vibration    25          0.944              1.060              0.473

                           ! Non-Optimized Parameters !
 Normal termination of Gaussian 16 at Thu Dec 21 08:26:00 2023.
