 Q-Chem 5.4, Q-Chem, Inc., Pleasanton, CA (2021)
 Q-Chem 5.4.0 for Intel X86 EM64T Linux

User input:
--------------------------------------------------------------
$molecule
-2 1
C                  3.3069160000     -1.9484020000      0.3656000000
C                  2.0029770000     -1.7445610000     -0.3758880000
O                  1.9114400000     -1.6942570000     -1.5827070000
O                  2.0307350000      0.7857280000      0.4388250000
C                  0.8410730000      1.2373370000      0.2622500000
C                  0.5695460000      2.6320190000      0.2176560000
C                 -0.7170560000      3.1497050000      0.0032810000
C                 -1.8071020000      2.3161720000     -0.1752020000
C                 -1.6379510000      0.9095140000     -0.1344710000
C                 -2.8447040000      0.0640440000     -0.3102200000
O                 -3.9990740000      0.5791800000     -0.5068430000
C                 -2.6211140000     -1.3360200000     -0.2362270000
C                 -1.3432560000     -1.8765120000     -0.0116160000
C                 -0.2399000000     -1.0694240000      0.1391980000
O                  0.9833340000     -1.7113630000      0.4979860000
C                 -0.3320080000      0.3510340000      0.0884840000
H                  3.5509090000     -0.9738930000      0.7960890000
H                  4.0868720000     -2.2726600000     -0.3260190000
H                  3.1847030000     -2.6722390000      1.1767450000
H                  1.4236630000      3.2946900000      0.3457770000
H                 -0.8549240000      4.2327600000     -0.0263400000
H                 -2.8090630000      2.6927770000     -0.3434310000
H                 -3.4813300000     -1.9912610000     -0.3572930000
H                 -1.2046840000     -2.9543680000      0.0543620000
$end
$rem
MAX_SCF_CYCLES=200
BASIS  =  6-311++G(d,p)
GUI  =  2
JOB_TYPE  =  SP
METHOD  =  B3LYP
SOLVENT_METHOD = PCM
$end
$pcm
theory = CPCM
$end
$solvent
dielectric 37.219
opticaldielectric 1.43
$end

--------------------------------------------------------------

             Standard Nuclear Orientation (Angstroms)
    I     Atom           X                Y                Z
 ----------------------------------------------------------------
    1      C       3.3069160000    -1.9484020000     0.3656000000
    2      C       2.0029770000    -1.7445610000    -0.3758880000
    3      O       1.9114400000    -1.6942570000    -1.5827070000
    4      O       2.0307350000     0.7857280000     0.4388250000
    5      C       0.8410730000     1.2373370000     0.2622500000
    6      C       0.5695460000     2.6320190000     0.2176560000
    7      C      -0.7170560000     3.1497050000     0.0032810000
    8      C      -1.8071020000     2.3161720000    -0.1752020000
    9      C      -1.6379510000     0.9095140000    -0.1344710000
   10      C      -2.8447040000     0.0640440000    -0.3102200000
   11      O      -3.9990740000     0.5791800000    -0.5068430000
   12      C      -2.6211140000    -1.3360200000    -0.2362270000
   13      C      -1.3432560000    -1.8765120000    -0.0116160000
   14      C      -0.2399000000    -1.0694240000     0.1391980000
   15      O       0.9833340000    -1.7113630000     0.4979860000
   16      C      -0.3320080000     0.3510340000     0.0884840000
   17      H       3.5509090000    -0.9738930000     0.7960890000
   18      H       4.0868720000    -2.2726600000    -0.3260190000
   19      H       3.1847030000    -2.6722390000     1.1767450000
   20      H       1.4236630000     3.2946900000     0.3457770000
   21      H      -0.8549240000     4.2327600000    -0.0263400000
   22      H      -2.8090630000     2.6927770000    -0.3434310000
   23      H      -3.4813300000    -1.9912610000    -0.3572930000
   24      H      -1.2046840000    -2.9543680000     0.0543620000
 ----------------------------------------------------------------

    9    -763.4792643503      4.56e-06  Convergence criterion met
 Total energy in the final basis set =     -763.4792643503

                    Orbital Energies (a.u.)
 --------------------------------------------------------------

 Alpha MOs
 -- Occupied --
-19.1523 -19.1046 -19.0340 -19.0322 -10.2964 -10.1954 -10.1954 -10.1918
-10.1579 -10.1525 -10.1479 -10.1460 -10.1458 -10.1283 -10.1279 -10.1260
 -1.0944  -1.0154  -0.9533  -0.9511  -0.8229  -0.7846  -0.7405  -0.7100
 -0.6975  -0.6680  -0.5970  -0.5891  -0.5708  -0.5066  -0.4851  -0.4834
 -0.4696  -0.4690  -0.4533  -0.4274  -0.4193  -0.4008  -0.3955  -0.3861
 -0.3784  -0.3749  -0.3684  -0.3606  -0.3551  -0.3424  -0.3258  -0.3208
 -0.3039  -0.2841  -0.2840  -0.2737  -0.2233  -0.2170  -0.2005  -0.1835
 -0.1408

          Ground-State Mulliken Net Atomic Charges

     Atom                 Charge (a.u.)
  ----------------------------------------
      1 C                    -0.473299
      2 C                     0.122178
      3 O                    -0.358803
      4 O                    -0.639317
      5 C                    -0.048489
      6 C                    -0.311310
      7 C                    -0.368518
      8 C                    -0.169273
      9 C                     0.357081
     10 C                    -0.534630
     11 O                    -0.665579
     12 C                    -0.131250
     13 C                     0.014398
     14 C                    -0.728966
     15 O                    -0.047597
     16 C                     0.659899
     17 H                     0.204759
     18 H                     0.156233
     19 H                     0.170126
     20 H                     0.147114
     21 H                     0.171440
     22 H                     0.135157
     23 H                     0.155378
     24 H                     0.183267
  ----------------------------------------
  Sum of atomic charges =    -2.000000

                    Cartesian Multipole Moments
 -----------------------------------------------------------------
    Charge (ESU x 10^10)
                -9.6064
    Dipole Moment (Debye)
         X       8.7970      Y      -4.7225      Z       3.3392
       Tot      10.5280
    Quadrupole Moments (Debye-Ang)
        XX    -170.5456     XY       4.9058     YY    -111.1975
        XZ      -3.4803     YZ      -5.1627     ZZ    -111.8889

 Total job time:  50.81s(wall), 272.89s(cpu)
        *  Thank you very much for using Q-Chem.  Have a nice day.  *
