 Gaussian 16, Revision A.03,
 Gaussian 16:  ES64L-G16RevA.03 25-Dec-2016

 -------------------------------
 #P UB3LYP/genecp nosym opt freq
 -------------------------------

 -------
 Reduced
 -------
 Symbolic Z-matrix:
 Charge = -2 Multiplicity = 1

 SCF Done:  E(UB3LYP) =  -986.140318972     A.U. after   21 cycles
 SCF Done:  E(UB3LYP) =  -986.140318838     A.U. after   16 cycles
 SCF Done:  E(UB3LYP) =  -986.140319201     A.U. after   14 cycles
 Optimization completed.
    -- Stationary point found.
 Normal termination of Gaussian 16 at Thu Dec 28 20:09:02 2023.

 ------------------------------------------------------------------
 #P Geom=AllCheck Guess=TCheck SCRF=Check GenChk UB3LYP/GenECP Freq
 ------------------------------------------------------------------

 Structure from the checkpoint file:  "119-an.chk"
 -------
 Reduced
 -------
 Charge = -2 Multiplicity = 1

                          Input orientation:
 ---------------------------------------------------------------------
 Center     Atomic      Atomic             Coordinates (Angstroms)
 Number     Number       Type             X           Y           Z
 ---------------------------------------------------------------------
      1          6           0        6.887093   -1.644358   -0.249826
      2          6           0        7.452936   -0.690072   -1.069126
      3          6           0        6.631309    0.324052   -1.639204
      4          6           0        5.279636    0.338431   -1.364244
      5          6           0        4.663077   -0.626695   -0.526290
      6          6           0        5.500524   -1.660398    0.054830
      7          6           0        4.985529   -2.698618    0.924984
      8          6           0        3.565883   -2.611530    1.161349
      9          6           0        2.721386   -1.574665    0.579367
     10          6           0        3.236363   -0.542283   -0.286750
     11          6           0        2.957184   -3.584194    2.003831
     12          6           0        1.613302   -3.539158    2.255053
     13          6           0        0.758324   -2.542624    1.704732
     14          6           0        1.338762   -1.594391    0.886237
     15          8           0        5.730987   -3.613860    1.438365
     16          8           0        2.495683    0.375564   -0.803087
     17          1           0        7.485094   -2.430881    0.200586
     18          1           0        4.624814    1.097208   -1.782250
     19          1           0        3.615129   -4.339164    2.418657
     20          1           0        0.735286   -0.809936    0.438345
     21         53           0        0.712927   -5.025967    3.537584
     22          1           0        8.521139   -0.710195   -1.280022
     23          1           0        7.069068    1.081841   -2.287272
     24          1           0       -0.303435   -2.532116    1.921611
 ---------------------------------------------------------------------

 SCF Done:  E(UB3LYP) =  -986.140319201     A.U. after    1 cycles

 Alpha  occ. eigenvalues --  -18.77999 -18.77916  -9.98113  -9.94102  -9.94068
 Alpha  occ. eigenvalues --   -9.94013  -9.93457  -9.93215  -9.93168  -9.93056
 Alpha  occ. eigenvalues --   -9.92302  -9.92281  -9.91055  -9.90818  -9.90754
 Alpha  occ. eigenvalues --   -9.90739  -6.63202  -4.65459  -4.64573  -4.64552
 Alpha  occ. eigenvalues --   -1.70291  -1.69997  -1.69969  -1.69208  -1.69207
 Alpha  occ. eigenvalues --   -0.69843  -0.69422  -0.61157  -0.59828  -0.53410
 Alpha  occ. eigenvalues --   -0.51318  -0.49779  -0.49393  -0.46292  -0.40833
 Alpha  occ. eigenvalues --   -0.38567  -0.35990  -0.33754  -0.30073  -0.28506
 Alpha  occ. eigenvalues --   -0.26664  -0.22283  -0.21442  -0.20391  -0.19463
 Alpha  occ. eigenvalues --   -0.18075  -0.17379  -0.15141  -0.14770  -0.14357
 Alpha  occ. eigenvalues --   -0.13008  -0.12478  -0.11711  -0.09790  -0.08858
 Alpha  occ. eigenvalues --   -0.08831  -0.08470  -0.06888  -0.06054  -0.05718
 Alpha  occ. eigenvalues --   -0.01242   0.00183   0.01048   0.01335   0.03905
 Alpha  occ. eigenvalues --    0.04516   0.12846
 Alpha virt. eigenvalues --    0.15963   0.16745   0.17433   0.17720   0.19579
 Alpha virt. eigenvalues --    0.19964   0.20155   0.21524   0.21803   0.21940
 Alpha virt. eigenvalues --    0.23918   0.25179   0.26080   0.26274   0.26796

  Beta  occ. eigenvalues --  -18.77999 -18.77916  -9.98113  -9.94102  -9.94068
  Beta  occ. eigenvalues --   -9.94013  -9.93457  -9.93215  -9.93168  -9.93056
  Beta  occ. eigenvalues --   -9.92302  -9.92281  -9.91055  -9.90818  -9.90754
  Beta  occ. eigenvalues --   -9.90739  -6.63202  -4.65459  -4.64573  -4.64552
  Beta  occ. eigenvalues --   -1.70291  -1.69997  -1.69969  -1.69208  -1.69207
  Beta  occ. eigenvalues --   -0.69843  -0.69422  -0.61157  -0.59828  -0.53410
  Beta  occ. eigenvalues --   -0.51318  -0.49779  -0.49393  -0.46292  -0.40833
  Beta  occ. eigenvalues --   -0.38567  -0.35990  -0.33754  -0.30073  -0.28506
  Beta  occ. eigenvalues --   -0.26664  -0.22283  -0.21442  -0.20391  -0.19463
  Beta  occ. eigenvalues --   -0.18075  -0.17379  -0.15141  -0.14770  -0.14357
  Beta  occ. eigenvalues --   -0.13008  -0.12478  -0.11711  -0.09790  -0.08858
  Beta  occ. eigenvalues --   -0.08831  -0.08470  -0.06888  -0.06054  -0.05718
  Beta  occ. eigenvalues --   -0.01242   0.00183   0.01048   0.01335   0.03905
  Beta  occ. eigenvalues --    0.04516   0.12846
  Beta virt. eigenvalues --    0.15963   0.16745   0.17433   0.17720   0.19579
  Beta virt. eigenvalues --    0.19964   0.20155   0.21524   0.21803   0.21940
  Beta virt. eigenvalues --    0.23918   0.25179   0.26080   0.26274   0.26796

 Mulliken charges and spin densities:
               1          2
     1  C   -0.011982  -0.000000
     2  C   -0.438407  -0.000000
     3  C   -0.445134  -0.000000
     4  C    0.007920  -0.000000
     5  C    0.408762  -0.000000
     6  C    0.459570  -0.000000
     7  C   -0.663723   0.000000
     8  C    0.368134  -0.000000
     9  C    0.255927   0.000000
    10  C   -0.799275   0.000000
    11  C    0.125658  -0.000000
    12  C    0.282044   0.000000
    13  C   -0.821376  -0.000000
    14  C   -0.053595   0.000000
    15  O   -0.512011  -0.000000
    16  O   -0.513440  -0.000000
    17  H    0.130847  -0.000000
    18  H    0.131988  -0.000000
    19  H    0.084441   0.000000
    20  H    0.141851   0.000000
    21  I   -0.324880   0.000000
    22  H    0.075329   0.000000
    23  H    0.075049  -0.000000
    24  H    0.036308  -0.000000
 Sum of Mulliken charges =  -2.00000  -0.00000

 Dipole moment (field-independent basis, Debye):
    X=            -36.3534    Y=             19.0672    Z=             -6.3001  Tot=             41.5309
 Quadrupole moment (field-independent basis, Debye-Ang):
   XX=           -319.4263   YY=           -212.0775   ZZ=           -163.4487
   XY=             66.2274   XZ=             -9.2076   YZ=             43.8203

  Exact polarizability: 393.300  71.878 278.642-105.072-112.807 250.562
 Approx polarizability: 690.395  78.935 468.247-156.915-197.337 399.880

                      1                      2                      3
                      A                      A                      A
 Frequencies --     32.2722                68.3791               102.4449
 Red. masses --      8.5460                 6.1769                10.3872
 Frc consts  --      0.0052                 0.0170                 0.0642
 IR Inten    --      3.0397                 3.2608                 2.6304

                      4                      5                      6
                      A                      A                      A
 Frequencies --    126.0761               159.0443               173.1280
 Red. masses --      4.1570                 6.6668                16.9245
 Frc consts  --      0.0389                 0.0994                 0.2989
 IR Inten    --      0.0021                 3.3762                 1.2964

                      7                      8                      9
                      A                      A                      A
 Frequencies --    184.4809               242.7295               261.9515
 Red. masses --      7.1688                 5.6548                 5.6755
 Frc consts  --      0.1437                 0.1963                 0.2295
 IR Inten    --      2.7554                 1.0207                 4.5452

                     10                     11                     12
                      A                      A                      A
 Frequencies --    315.0755               362.8956               387.7247
 Red. masses --      6.8490                11.2640                 5.7119
 Frc consts  --      0.4006                 0.8740                 0.5059
 IR Inten    --      1.2802                 1.8920                 0.7983

                     13                     14                     15
                      A                      A                      A
 Frequencies --    400.9569               404.1419               446.4388
 Red. masses --      7.1693                 4.4843                 7.6803
 Frc consts  --      0.6791                 0.4315                 0.9019
 IR Inten    --      1.7952                 1.0700                 3.6062

                     16                     17                     18
                      A                      A                      A
 Frequencies --    461.6381               498.0283               499.3744
 Red. masses --      3.2696                 4.6819                11.5154
 Frc consts  --      0.4105                 0.6842                 1.6919
 IR Inten    --      0.8693                 1.7992                 2.6776

                     19                     20                     21
                      A                      A                      A
 Frequencies --    594.9626               616.9265               627.1634
 Red. masses --      4.4682                 6.9652                 7.2477
 Frc consts  --      0.9319                 1.5619                 1.6796
 IR Inten    --      1.0335                78.3615                 9.3845

                     22                     23                     24
                      A                      A                      A
 Frequencies --    653.7090               681.1485               684.0322
 Red. masses --      1.7977                 7.2236                 6.4360
 Frc consts  --      0.4526                 1.9746                 1.7743
 IR Inten    --     42.3095                14.5699                17.2736

                     25                     26                     27
                      A                      A                      A
 Frequencies --    688.0489               724.5563               756.6549
 Red. masses --      1.9280                 2.0741                 2.6147
 Frc consts  --      0.5378                 0.6415                 0.8820
 IR Inten    --     52.7641                 0.0060                12.4748

                     28                     29                     30
                      A                      A                      A
 Frequencies --    780.5101               805.9538               829.5201
 Red. masses --      1.6366                 6.8513                 4.0555
 Frc consts  --      0.5874                 2.6220                 1.6442
 IR Inten    --      2.7897                64.7841                 0.3400

                     31                     32                     33
                      A                      A                      A
 Frequencies --    924.4958               924.6987               930.2199
 Red. masses --      6.1506                 1.3889                 7.4937
 Frc consts  --      3.0973                 0.6997                 3.8205
 IR Inten    --      5.1737                 6.7842                59.9516

                     34                     35                     36
                      A                      A                      A
 Frequencies --    953.7324               955.8040               962.1670
 Red. masses --      1.2965                 1.2376                 1.3728
 Frc consts  --      0.6949                 0.6662                 0.7488
 IR Inten    --      0.7372                 0.0121                 5.6851

                     37                     38                     39
                      A                      A                      A
 Frequencies --   1012.2509              1025.1934              1089.2388
 Red. masses --      2.0806                 2.1706                 2.6242
 Frc consts  --      1.2561                 1.3441                 1.8344
 IR Inten    --    106.6046                18.1134               190.2326

                     40                     41                     42
                      A                      A                      A
 Frequencies --   1100.7919              1123.5897              1160.9290
 Red. masses --      1.7045                 1.5442                 2.4912
 Frc consts  --      1.2169                 1.1486                 1.9782
 IR Inten    --    129.2407                96.7721                51.3708

                     43                     44                     45
                      A                      A                      A
 Frequencies --   1177.1544              1199.7723              1205.6787
 Red. masses --      2.2112                 1.8169                 2.1276
 Frc consts  --      1.8053                 1.5409                 1.8222
 IR Inten    --     71.9535                89.0449               131.1828

                     46                     47                     48
                      A                      A                      A
 Frequencies --   1236.3875              1312.4719              1327.6818
 Red. masses --      2.1819                 2.4722                 6.7357
 Frc consts  --      1.9651                 2.5091                 6.9955
 IR Inten    --    221.8726               197.4810                22.9559

                     49                     50                     51
                      A                      A                      A
 Frequencies --   1348.1636              1366.3610              1425.6225
 Red. masses --      6.7128                 2.5756                 2.9781
 Frc consts  --      7.1885                 2.8331                 3.5662
 IR Inten    --    501.9769               662.1215               149.6285

                     52                     53                     54
                      A                      A                      A
 Frequencies --   1458.3353              1464.3499              1467.5254
 Red. masses --      3.4528                 3.7470                 6.5565
 Frc consts  --      4.3265                 4.7340                 8.3195
 IR Inten    --    149.1872               108.1334               198.2198

                     55                     56                     57
                      A                      A                      A
 Frequencies --   1480.0091              1510.2123              1535.3346
 Red. masses --      4.2614                 5.5339                 6.6094
 Frc consts  --      5.4996                 7.4363                 9.1795
 IR Inten    --     66.5401                32.1816               161.2590

                     58                     59                     60
                      A                      A                      A
 Frequencies --   1579.1494              1587.1231              3088.5237
 Red. masses --      8.9245                 5.2695                 1.0825
 Frc consts  --     13.1124                 7.8207                 6.0837
 IR Inten    --      7.1087                 2.4720                44.1577

                     61                     62                     63
                      A                      A                      A
 Frequencies --   3112.5556              3146.4952              3155.3005
 Red. masses --      1.0904                 1.0853                 1.0903
 Frc consts  --      6.2238                 6.3305                 6.3953
 IR Inten    --    134.5594                 4.5761                26.9922

                     64                     65                     66
                      A                      A                      A
 Frequencies --   3158.0153              3169.1333              3178.1449
 Red. masses --      1.0914                 1.0928                 1.0895
 Frc consts  --      6.4128                 6.4663                 6.4837
 IR Inten    --     65.5405                32.9249                11.3915

 - Thermochemistry -
 -------------------
 Temperature   298.150 Kelvin.  Pressure   1.00000 Atm.
 Atom     1 has atomic number  6 and mass  12.00000

 Molecular mass:   333.94500 amu.
 Principal axes and moments of inertia in atomic units:
                           1         2         3
     Eigenvalues --  1887.86580********************
           X            0.63187   0.75662   0.16813
           Y            0.55508  -0.59314   0.58316
           Z           -0.54095   0.27516   0.79477
 This molecule is an asymmetric top.
 Rotational symmetry number  1.
 Warning -- assumption of classical behavior for rotation
           may cause significant error
 Rotational temperatures (Kelvin)      0.04588     0.00655     0.00573
 Rotational constants (GHZ):           0.95597     0.13642     0.11938
 Zero-point vibrational energy     427201.9 (Joules/Mol)
                                  102.10370 (Kcal/Mol)
 Warning -- explicit consideration of  20 degrees of freedom as
           vibrations may cause significant error
 Vibrational temperatures:     46.43    98.38   147.40   181.40   228.83
          (Kelvin)            249.09   265.43   349.23   376.89   453.32
                              522.13   557.85   576.89   581.47   642.33
                              664.19   716.55   718.49   856.02   887.62
                              902.35   940.54   980.02   984.17   989.95
                             1042.47  1088.66  1122.98  1159.59  1193.49
                             1330.14  1330.44  1338.38  1372.21  1375.19
                             1384.34  1456.40  1475.02  1567.17  1583.79
                             1616.60  1670.32  1693.66  1726.20  1734.70
                             1778.89  1888.35  1910.24  1939.71  1965.89
                             2051.15  2098.22  2106.87  2111.44  2129.40
                             2172.86  2209.00  2272.04  2283.52  4443.70
                             4478.27  4527.10  4539.77  4543.68  4559.68
                             4572.64

 Zero-point correction=                           0.162713 (Hartree/Particle)
 Thermal correction to Energy=                    0.176033
 Thermal correction to Enthalpy=                  0.176977
 Thermal correction to Gibbs Free Energy=         0.120880
 Sum of electronic and zero-point Energies=           -985.977607
 Sum of electronic and thermal Energies=              -985.964286
 Sum of electronic and thermal Enthalpies=            -985.963342
 Sum of electronic and thermal Free Energies=         -986.019440

                     E (Thermal)             CV                S
                      KCal/Mol        Cal/Mol-Kelvin    Cal/Mol-Kelvin
 Total                  110.463             52.174            118.068
 Electronic               0.000              0.000              0.000
 Translational            0.889              2.981             43.312
 Rotational               0.889              2.981             34.289
 Vibrational            108.685             46.213             40.466
 Vibration     1          0.594              1.983              5.685
 Vibration     2          0.598              1.969              4.199
 Vibration     3          0.605              1.947              3.407
 Vibration     4          0.611              1.927              3.005
 Vibration     5          0.621              1.892              2.561
 Vibration     6          0.627              1.876              2.401
 Vibration     7          0.631              1.861              2.283
 Vibration     8          0.659              1.775              1.783
 Vibration     9          0.669              1.742              1.649
 Vibration    10          0.702              1.645              1.336
 Vibration    11          0.737              1.549              1.110
 Vibration    12          0.756              1.496              1.009
 Vibration    13          0.767              1.468              0.959
 Vibration    14          0.769              1.461              0.948
 Vibration    15          0.806              1.369              0.807
 Vibration    16          0.819              1.335              0.761
 Vibration    17          0.854              1.254              0.663
 Vibration    18          0.855              1.251              0.660
 Vibration    19          0.953              1.043              0.458
 Vibration    20          0.977              0.996              0.421

 Optimization completed.
    -- Stationary point found.
 Normal termination of Gaussian 16 at Thu Dec 28 20:58:41 2023.
