 Gaussian 16, Revision A.03,
 Gaussian 16:  ES64L-G16RevA.03 25-Dec-2016

 ---------------------------------------------------------
 #P UB3LYP/genecp SCRF=(PCM,Solvent=n,n-DiMethylFormamide)
 ---------------------------------------------------------

 -------
 Reduced
 -------
 Symbolic Z-matrix:
 Charge = -2 Multiplicity = 1

                         Standard orientation:
 ---------------------------------------------------------------------
 Center     Atomic      Atomic             Coordinates (Angstroms)
 Number     Number       Type             X           Y           Z
 ---------------------------------------------------------------------
      1          6           0       -3.950642   -1.803674   -0.000171
      2          6           0       -5.276931   -1.425455   -0.000629
      3          6           0       -5.613586   -0.041558   -0.000802
      4          6           0       -4.608101    0.902808   -0.000482
      5          6           0       -3.233360    0.550859   -0.000002
      6          6           0       -2.890159   -0.859734    0.000153
      7          6           0       -1.523048   -1.340667    0.000591
      8          6           0       -0.534670   -0.290926    0.000613
      9          6           0       -0.875555    1.127088    0.000484
     10          6           0       -2.237281    1.603400    0.000245
     11          6           0        0.841607   -0.654557    0.000568
     12          6           0        1.812524    0.309018    0.000567
     13          6           0        1.517497    1.701814    0.000556
     14          6           0        0.185615    2.065240    0.000535
     15          8           0       -1.222342   -2.592270    0.000967
     16          8           0       -2.544065    2.853815   -0.000104
     17          1           0       -3.659974   -2.849908   -0.000021
     18          1           0       -4.829741    1.965888   -0.000655
     19          1           0        1.057450   -1.716802    0.000523
     20          1           0       -0.099059    3.113629    0.000508
     21         53           0        3.894193   -0.267885   -0.000360
     22          1           0       -6.063303   -2.178821   -0.000861
     23          1           0       -6.658009    0.266742   -0.001231
     24          1           0        2.308233    2.442905    0.000556
 ---------------------------------------------------------------------

 SCF Done:  E(UB3LYP) =  -986.390870598     A.U. after   19 cycles

 The electronic state is 1-A.
 Alpha  occ. eigenvalues --  -19.02265 -19.02211 -10.19942 -10.17736 -10.17656
 Alpha  occ. eigenvalues --  -10.16040 -10.15810 -10.15536 -10.15158 -10.15104
 Alpha  occ. eigenvalues --  -10.14772 -10.14749 -10.14269 -10.14017 -10.14010
 Alpha  occ. eigenvalues --  -10.13952  -6.83201  -4.85544  -4.84517  -4.84515
 Alpha  occ. eigenvalues --   -1.90353  -1.90020  -1.90009  -1.89132  -1.89131
 Alpha  occ. eigenvalues --   -0.94124  -0.93773  -0.83734  -0.82483  -0.76033
 Alpha  occ. eigenvalues --   -0.73711  -0.72466  -0.71627  -0.67623  -0.63817
 Alpha  occ. eigenvalues --   -0.61020  -0.58492  -0.56270  -0.52886  -0.50909
 Alpha  occ. eigenvalues --   -0.49049  -0.44432  -0.44225  -0.42993  -0.41797
 Alpha  occ. eigenvalues --   -0.40542  -0.39918  -0.38515  -0.37667  -0.37256
 Alpha  occ. eigenvalues --   -0.36508  -0.34995  -0.34605  -0.32840  -0.32322
 Alpha  occ. eigenvalues --   -0.31257  -0.31156  -0.30109  -0.26880  -0.25868
 Alpha  occ. eigenvalues --   -0.23861  -0.22878  -0.22480  -0.21511  -0.20508
 Alpha  occ. eigenvalues --   -0.19780  -0.10942
 Alpha virt. eigenvalues --   -0.03212  -0.02942  -0.00310   0.00099   0.00845
 Alpha virt. eigenvalues --    0.01503   0.01572   0.02595   0.02758   0.04851
 Alpha virt. eigenvalues --    0.04976   0.05239   0.05361   0.06147   0.06855

  Beta  occ. eigenvalues --  -19.02265 -19.02211 -10.19942 -10.17736 -10.17656
  Beta  occ. eigenvalues --  -10.16040 -10.15810 -10.15536 -10.15158 -10.15104
  Beta  occ. eigenvalues --  -10.14772 -10.14749 -10.14269 -10.14017 -10.14010
  Beta  occ. eigenvalues --  -10.13952  -6.83201  -4.85544  -4.84517  -4.84515
  Beta  occ. eigenvalues --   -1.90353  -1.90020  -1.90009  -1.89132  -1.89131
  Beta  occ. eigenvalues --   -0.94124  -0.93773  -0.83734  -0.82483  -0.76033
  Beta  occ. eigenvalues --   -0.73711  -0.72466  -0.71627  -0.67623  -0.63817
  Beta  occ. eigenvalues --   -0.61020  -0.58492  -0.56270  -0.52886  -0.50909
  Beta  occ. eigenvalues --   -0.49049  -0.44432  -0.44225  -0.42993  -0.41797
  Beta  occ. eigenvalues --   -0.40542  -0.39918  -0.38515  -0.37667  -0.37256
  Beta  occ. eigenvalues --   -0.36508  -0.34995  -0.34605  -0.32840  -0.32322
  Beta  occ. eigenvalues --   -0.31257  -0.31156  -0.30109  -0.26880  -0.25868
  Beta  occ. eigenvalues --   -0.23861  -0.22878  -0.22480  -0.21511  -0.20508
  Beta  occ. eigenvalues --   -0.19780  -0.10942
  Beta virt. eigenvalues --   -0.03212  -0.02942  -0.00310   0.00099   0.00845
  Beta virt. eigenvalues --    0.01503   0.01572   0.02595   0.02758   0.04851
  Beta virt. eigenvalues --    0.04976   0.05239   0.05361   0.06147   0.06855

 Mulliken charges and spin densities:
               1          2
     1  C   -0.002305  -0.000000
     2  C   -0.503477   0.000000
     3  C   -0.497874   0.000000
     4  C    0.001856  -0.000000
     5  C    0.254015  -0.000000
     6  C    0.291821   0.000000
     7  C   -0.350677   0.000000
     8  C    0.247080  -0.000000
     9  C    0.131187  -0.000000
    10  C   -0.453864  -0.000000
    11  C    0.053690   0.000000
    12  C    0.195689  -0.000000
    13  C   -0.832723  -0.000000
    14  C   -0.065771  -0.000000
    15  O   -0.651194  -0.000000
    16  O   -0.649597  -0.000000
    17  H    0.145521  -0.000000
    18  H    0.146596   0.000000
    19  H    0.120544   0.000000
    20  H    0.155223   0.000000
    21  I   -0.193808   0.000000
    22  H    0.159698   0.000000
    23  H    0.159670  -0.000000
    24  H    0.138697  -0.000000
 Sum of Mulliken charges =  -2.00000   0.00000

 Dipole moment (field-independent basis, Debye):
    X=             13.9717    Y=             -0.6450    Z=             -0.0034  Tot=             13.9866
 Quadrupole moment (field-independent basis, Debye-Ang):
   XX=           -188.5016   YY=           -177.4995   ZZ=           -132.3656
   XY=             11.9544   XZ=              0.0020   YZ=              0.0095

 Normal termination of Gaussian 16 at Sun Jan 14 01:33:03 2024.
