 Gaussian 16, Revision A.03,
 Gaussian 16:  ES64L-G16RevA.03 25-Dec-2016

 ----------------------------------------------------------------------
 #P UB3LYP/6-311++G(d,p) nosym opt freq SCRF=(PCM,Solvent=n,n-DiMethylF
 ormamide)
 ----------------------------------------------------------------------

 --------
 Oxidized
 --------
 Symbolic Z-matrix:
 Charge =  0 Multiplicity = 1

 SCF Done:  E(UB3LYP) =  -766.849448818     A.U. after   14 cycles
 SCF Done:  E(UB3LYP) =  -766.845131575     A.U. after   13 cycles
 SCF Done:  E(UB3LYP) =  -766.848589750     A.U. after   14 cycles
 SCF Done:  E(UB3LYP) =  -766.849613737     A.U. after   10 cycles
 SCF Done:  E(UB3LYP) =  -766.848377652     A.U. after   14 cycles
 SCF Done:  E(UB3LYP) =  -766.849232264     A.U. after   13 cycles
 SCF Done:  E(UB3LYP) =  -766.849784942     A.U. after    9 cycles
 SCF Done:  E(UB3LYP) =  -766.850021524     A.U. after   12 cycles
 SCF Done:  E(UB3LYP) =  -766.850018895     A.U. after   11 cycles
 SCF Done:  E(UB3LYP) =  -766.850034891     A.U. after   11 cycles
 SCF Done:  E(UB3LYP) =  -766.850284134     A.U. after   11 cycles
 SCF Done:  E(UB3LYP) =  -766.850290868     A.U. after   11 cycles
 SCF Done:  E(UB3LYP) =  -766.850292934     A.U. after   10 cycles
 SCF Done:  E(UB3LYP) =  -766.850293215     A.U. after    8 cycles
 SCF Done:  E(UB3LYP) =  -766.850293392     A.U. after    8 cycles
 SCF Done:  E(UB3LYP) =  -766.850293552     A.U. after    8 cycles
 SCF Done:  E(UB3LYP) =  -766.850293652     A.U. after    7 cycles
 SCF Done:  E(UB3LYP) =  -766.850293795     A.U. after    8 cycles
 SCF Done:  E(UB3LYP) =  -766.850293850     A.U. after    7 cycles
 Optimization completed.
    -- Stationary point found.
 Normal termination of Gaussian 16 at Tue Feb 20 22:28:58 2024.

 ----------------------------------------------------------------------
 #P Geom=AllCheck Guess=TCheck SCRF=Check GenChk UB3LYP/6-311++G(d,p) F
 req
 ----------------------------------------------------------------------

 Structure from the checkpoint file:  "051.chk"
 --------
 Oxidized
 --------
 Charge =  0 Multiplicity = 1

                          Input orientation:
 ---------------------------------------------------------------------
 Center     Atomic      Atomic             Coordinates (Angstroms)
 Number     Number       Type             X           Y           Z
 ---------------------------------------------------------------------
      1          6           0        3.447538    5.935151    0.726532
      2          6           0        2.109718    5.405758    1.146599
      3          6           0        1.970361    4.084488    1.390173
      4          6           0        3.131657    3.178154    1.179963
      5          6           0        4.472783    3.699533    0.801633
      6          6           0        4.624851    5.024504    0.578406
      7          8           0        3.578063    7.132652    0.510898
      8          8           0        2.987418    1.959357    1.319342
      9          6           0        5.899293    5.705342    0.174838
     10          6           0        5.548747    2.658298    0.686125
     11          6           0        1.027775    6.436731    1.268732
     12          6           0        0.702769    3.416037    1.860372
     13          6           0       -0.035569    2.609952    0.744235
     14          6           0       -0.313835    1.159932    1.099704
     15          8           0       -1.413701    0.652478    1.047943
     16          8           0        0.747377    0.427504    1.469027
     17          1           0        6.161046    6.477951    0.902835
     18          1           0        5.767726    6.215296   -0.783503
     19          1           0        6.732866    5.014011    0.087174
     20          1           0        5.641548    2.103363    1.623309
     21          1           0        6.516325    3.087234    0.440705
     22          1           0        5.287621    1.926999   -0.083776
     23          1           0        0.967542    7.024954    0.350162
     24          1           0        1.262284    7.140795    2.072806
     25          1           0        0.052753    5.997680    1.464254
     26          1           0        0.019162    4.156191    2.267885
     27          1           0        0.958415    2.756084    2.692572
     28          1           0        0.556688    2.604282   -0.176202
     29          1           0       -0.988595    3.077765    0.503934
     30          1           0        1.573539    0.967854    1.449437
 ---------------------------------------------------------------------

 SCF Done:  E(UB3LYP) =  -766.850293850     A.U. after    1 cycles

 Alpha  occ. eigenvalues --  -19.16636 -19.15270 -19.14249 -19.12025 -10.31519
 Alpha  occ. eigenvalues --  -10.29438 -10.28590 -10.22175 -10.21821 -10.21803
 Alpha  occ. eigenvalues --  -10.21706 -10.19932 -10.19891 -10.17922 -10.17733
 Alpha  occ. eigenvalues --  -10.17730  -1.11131  -1.08129  -1.07335  -1.02836
 Alpha  occ. eigenvalues --   -0.87656  -0.84107  -0.79567  -0.75719  -0.74128
 Alpha  occ. eigenvalues --   -0.71076  -0.66895  -0.66158  -0.62073  -0.58723
 Alpha  occ. eigenvalues --   -0.58615  -0.55328  -0.53083  -0.49476  -0.49180
 Alpha  occ. eigenvalues --   -0.47794  -0.47309  -0.46495  -0.45520  -0.44311
 Alpha  occ. eigenvalues --   -0.43653  -0.42973  -0.42776  -0.41617  -0.41543
 Alpha  occ. eigenvalues --   -0.41361  -0.40278  -0.39958  -0.39681  -0.39273
 Alpha  occ. eigenvalues --   -0.38664  -0.37856  -0.36002  -0.33175  -0.30580
 Alpha  occ. eigenvalues --   -0.30326  -0.29123  -0.28119  -0.27327
 Alpha virt. eigenvalues --   -0.13663  -0.02156  -0.01730  -0.01033  -0.00607
 Alpha virt. eigenvalues --    0.00305   0.00669   0.01423   0.02152   0.02250
 Alpha virt. eigenvalues --    0.03402   0.03564   0.03845   0.04676   0.04971

  Beta  occ. eigenvalues --  -19.16636 -19.15270 -19.14249 -19.12025 -10.31519
  Beta  occ. eigenvalues --  -10.29438 -10.28590 -10.22175 -10.21821 -10.21803
  Beta  occ. eigenvalues --  -10.21706 -10.19932 -10.19891 -10.17922 -10.17733
  Beta  occ. eigenvalues --  -10.17730  -1.11131  -1.08129  -1.07335  -1.02836
  Beta  occ. eigenvalues --   -0.87656  -0.84107  -0.79567  -0.75719  -0.74128
  Beta  occ. eigenvalues --   -0.71076  -0.66895  -0.66158  -0.62073  -0.58723
  Beta  occ. eigenvalues --   -0.58615  -0.55328  -0.53083  -0.49476  -0.49180
  Beta  occ. eigenvalues --   -0.47794  -0.47309  -0.46495  -0.45520  -0.44311
  Beta  occ. eigenvalues --   -0.43653  -0.42973  -0.42776  -0.41617  -0.41543
  Beta  occ. eigenvalues --   -0.41361  -0.40278  -0.39958  -0.39681  -0.39273
  Beta  occ. eigenvalues --   -0.38664  -0.37856  -0.36002  -0.33175  -0.30580
  Beta  occ. eigenvalues --   -0.30326  -0.29123  -0.28119  -0.27327
  Beta virt. eigenvalues --   -0.13663  -0.02156  -0.01730  -0.01033  -0.00607
  Beta virt. eigenvalues --    0.00305   0.00669   0.01423   0.02152   0.02250
  Beta virt. eigenvalues --    0.03402   0.03564   0.03845   0.04676   0.04971

 Mulliken charges and spin densities:
               1          2
     1  C   -1.007215  -0.000000
     2  C    0.531763   0.000000
     3  C    1.281174   0.000000
     4  C   -0.866868  -0.000000
     5  C    0.491410   0.000000
     6  C    0.270846  -0.000000
     7  O   -0.242935   0.000000
     8  O   -0.278162   0.000000
     9  C   -0.452875  -0.000000
    10  C   -0.567839  -0.000000
    11  C   -0.417313  -0.000000
    12  C   -0.474359  -0.000000
    13  C   -0.398694   0.000000
    14  C   -0.060815  -0.000000
    15  O   -0.359619   0.000000
    16  O   -0.296598   0.000000
    17  H    0.193516   0.000000
    18  H    0.193123   0.000000
    19  H    0.129003  -0.000000
    20  H    0.190170   0.000000
    21  H    0.128520  -0.000000
    22  H    0.194769   0.000000
    23  H    0.189817  -0.000000
    24  H    0.206011   0.000000
    25  H    0.128656   0.000000
    26  H    0.192694  -0.000000
    27  H    0.229115   0.000000
    28  H    0.226982  -0.000000
    29  H    0.227077   0.000000
    30  H    0.418645  -0.000000
 Sum of Mulliken charges =  -0.00000  -0.00000

 Dipole moment (field-independent basis, Debye):
    X=              5.5106    Y=              5.6650    Z=             -0.2473  Tot=              7.9070
 Quadrupole moment (field-independent basis, Debye-Ang):
   XX=            -76.8245   YY=            -89.7217   ZZ=            -92.2627
   XY=              7.2588   XZ=              3.7398   YZ=              9.8565

  Exact polarizability: 210.640  22.721 290.916 -11.677 -20.554 134.318
 Approx polarizability: 215.326  24.500 363.585  -8.710 -31.355 157.551

                      1                      2                      3
                      A                      A                      A
 Frequencies --     39.5544                46.0400                68.0038
 Red. masses --      4.5414                 5.8394                 1.3001
 Frc consts  --      0.0042                 0.0073                 0.0035
 IR Inten    --     10.1790                 1.1886                 0.1060

                      4                      5                      6
                      A                      A                      A
 Frequencies --     76.6928                82.6576                88.5689
 Red. masses --      3.0834                 1.8619                 1.2012
 Frc consts  --      0.0107                 0.0075                 0.0056
 IR Inten    --      3.2794                 7.7731                 5.8916

                      7                      8                      9
                      A                      A                      A
 Frequencies --     96.7135               104.3099               118.3801
 Red. masses --      1.5254                 3.9989                 2.6139
 Frc consts  --      0.0084                 0.0256                 0.0216
 IR Inten    --      4.2893                 6.6882                 0.8960

                     10                     11                     12
                      A                      A                      A
 Frequencies --    165.9608               201.1495               229.8030
 Red. masses --      4.6680                 6.8420                 3.9641
 Frc consts  --      0.0758                 0.1631                 0.1233
 IR Inten    --      4.2315                11.9790                 0.5983

                     13                     14                     15
                      A                      A                      A
 Frequencies --    294.3816               335.2050               354.7838
 Red. masses --      2.6826                 4.0608                 3.2947
 Frc consts  --      0.1370                 0.2688                 0.2443
 IR Inten    --      2.8991                 0.1474                 1.0829

                     16                     17                     18
                      A                      A                      A
 Frequencies --    359.8722               379.3572               398.5729
 Red. masses --      3.2947                 2.6638                 3.7161
 Frc consts  --      0.2514                 0.2259                 0.3478
 IR Inten    --      2.5796                 4.6420                 2.0863

                     19                     20                     21
                      A                      A                      A
 Frequencies --    428.7735               435.8650               453.4315
 Red. masses --      5.2576                 7.9286                 2.6195
 Frc consts  --      0.5695                 0.8875                 0.3173
 IR Inten    --      3.1179                45.8515                13.0930

                     22                     23                     24
                      A                      A                      A
 Frequencies --    464.6991               539.3249               565.8820
 Red. masses --      6.6621                 4.6481                 5.1923
 Frc consts  --      0.8476                 0.7966                 0.9796
 IR Inten    --     12.5044                 1.3913                 2.8905

                     25                     26                     27
                      A                      A                      A
 Frequencies --    605.1833               629.1577               672.3325
 Red. masses --      5.0120                 4.0217                 3.1677
 Frc consts  --      1.0815                 0.9379                 0.8437
 IR Inten    --      6.1718                19.2021                 8.8888

                     28                     29                     30
                      A                      A                      A
 Frequencies --    699.6443               731.1407               795.0329
 Red. masses --      3.7576                 5.1877                 3.4556
 Frc consts  --      1.0837                 1.6339                 1.2869
 IR Inten    --     19.2857                17.2499                21.3920

                     31                     32                     33
                      A                      A                      A
 Frequencies --    801.1758               849.2334               853.7485
 Red. masses --      3.8703                 1.3768                 1.9715
 Frc consts  --      1.4637                 0.5850                 0.8467
 IR Inten    --     14.7905                92.2590                81.7393

                     34                     35                     36
                      A                      A                      A
 Frequencies --    864.7336               941.9779               964.8472
 Red. masses --      2.9133                 2.8158                 1.7905
 Frc consts  --      1.2835                 1.4721                 0.9821
 IR Inten    --     31.1575                20.8181                 8.2156

                     37                     38                     39
                      A                      A                      A
 Frequencies --    995.5243              1013.9527              1025.2184
 Red. masses --      3.4698                 3.4237                 1.5380
 Frc consts  --      2.0261                 2.0739                 0.9524
 IR Inten    --      5.4144                 4.3726                 0.2300

                     40                     41                     42
                      A                      A                      A
 Frequencies --   1039.4057              1046.9543              1059.3362
 Red. masses --      2.0341                 1.6068                 1.5835
 Frc consts  --      1.2948                 1.0377                 1.0470
 IR Inten    --     55.0667                 2.6494                 0.1677

                     43                     44                     45
                      A                      A                      A
 Frequencies --   1081.5180              1122.8295              1144.7476
 Red. masses --      1.9393                 2.4077                 2.9736
 Frc consts  --      1.3365                 1.7885                 2.2959
 IR Inten    --     11.3865                91.2102                22.0169

                     46                     47                     48
                      A                      A                      A
 Frequencies --   1187.3809              1249.2476              1275.8977
 Red. masses --      1.7835                 1.5117                 2.3189
 Frc consts  --      1.4815                 1.3900                 2.2242
 IR Inten    --     52.8213                97.2629               200.1154

                     49                     50                     51
                      A                      A                      A
 Frequencies --   1291.0318              1300.4494              1332.5754
 Red. masses --      2.2004                 7.5884                 1.3289
 Frc consts  --      2.1609                 7.5612                 1.3904
 IR Inten    --     48.3781               214.5495                 1.2083

                     52                     53                     54
                      A                      A                      A
 Frequencies --   1354.8408              1367.4464              1403.2882
 Red. masses --      2.4193                 1.6218                 1.3476
 Frc consts  --      2.6164                 1.7868                 1.5635
 IR Inten    --      4.2212                15.4160               469.9973

                     55                     56                     57
                      A                      A                      A
 Frequencies --   1405.9259              1410.1603              1412.9712
 Red. masses --      1.3364                 1.3440                 1.2164
 Frc consts  --      1.5563                 1.5747                 1.4308
 IR Inten    --     56.4080                12.4647                 0.9502

                     58                     59                     60
                      A                      A                      A
 Frequencies --   1463.1361              1463.6218              1464.6454
 Red. masses --      1.0504                 1.0443                 1.0460
 Frc consts  --      1.3249                 1.3180                 1.3221
 IR Inten    --     10.0871                 1.7745                30.5377

                     61                     62                     63
                      A                      A                      A
 Frequencies --   1465.2687              1466.2557              1475.8854
 Red. masses --      1.0842                 1.0428                 1.0748
 Frc consts  --      1.3716                 1.3209                 1.3794
 IR Inten    --      7.2326                10.6266                 9.4150

                     64                     65                     66
                      A                      A                      A
 Frequencies --   1481.2567              1507.5389              1638.4849
 Red. masses --      1.1049                 1.0902                12.1272
 Frc consts  --      1.4284                 1.4597                19.1820
 IR Inten    --      6.6779                19.3147              1209.1100

                     67                     68                     69
                      A                      A                      A
 Frequencies --   1659.9300              1687.6516              1705.0415
 Red. masses --      7.3534                12.5492                 7.9820
 Frc consts  --     11.9376                21.0587                13.6719
 IR Inten    --    121.1494               373.3447                 4.7502

                     70                     71                     72
                      A                      A                      A
 Frequencies --   1767.9326              3041.5668              3041.8132
 Red. masses --      7.6732                 1.0421                 1.0405
 Frc consts  --     14.1305                 5.6799                 5.6722
 IR Inten    --    697.0566                 4.9949                15.7393

                     73                     74                     75
                      A                      A                      A
 Frequencies --   3044.2471              3049.0623              3066.1838
 Red. masses --      1.0419                 1.0685                 1.0707
 Frc consts  --      5.6888                 5.8527                 5.9307
 IR Inten    --      9.5032                 5.1268                15.1493

                     76                     77                     78
                      A                      A                      A
 Frequencies --   3085.7872              3087.4531              3089.9628
 Red. masses --      1.0989                 1.0990                 1.0962
 Frc consts  --      6.1649                 6.1723                 6.1665
 IR Inten    --     10.6785                13.1668                10.3081

                     79                     80                     81
                      A                      A                      A
 Frequencies --   3122.2415              3137.8789              3149.2934
 Red. masses --      1.0952                 1.0955                 1.0997
 Frc consts  --      6.2904                 6.3552                 6.4259
 IR Inten    --      8.8163                 8.5995                 4.3865

                     82                     83                     84
                      A                      A                      A
 Frequencies --   3154.3034              3164.8797              3355.2377
 Red. masses --      1.0959                 1.0943                 1.0720
 Frc consts  --      6.4245                 6.4582                 7.1105
 IR Inten    --     22.8679                34.1757              1935.6083

 - Thermochemistry -
 -------------------
 Temperature   298.150 Kelvin.  Pressure   1.00000 Atm.
 Atom     1 has atomic number  6 and mass  12.00000

 Molecular mass:   222.08921 amu.
 Principal axes and moments of inertia in atomic units:
                           1         2         3
     Eigenvalues --  1946.428775543.183487253.92047
           X            0.72311  -0.68259   0.10578
           Y            0.68338   0.72926   0.03423
           Z           -0.10051   0.04754   0.99380
 This molecule is an asymmetric top.
 Rotational symmetry number  1.
 Warning -- assumption of classical behavior for rotation
           may cause significant error
 Rotational temperatures (Kelvin)      0.04450     0.01563     0.01194
 Rotational constants (GHZ):           0.92721     0.32558     0.24880
 Zero-point vibrational energy     628598.4 (Joules/Mol)
                                  150.23863 (Kcal/Mol)
 Warning -- explicit consideration of  25 degrees of freedom as
           vibrations may cause significant error
 Vibrational temperatures:     56.91    66.24    97.84   110.34   118.93
          (Kelvin)            127.43   139.15   150.08   170.32   238.78
                              289.41   330.64   423.55   482.29   510.45
                              517.78   545.81   573.46   616.91   627.11
                              652.39   668.60   775.97   814.18   870.72
                              905.22   967.34  1006.63  1051.95  1143.88
                             1152.71  1221.86  1228.35  1244.16  1355.30
                             1388.20  1432.34  1458.85  1475.06  1495.47
                             1506.33  1524.15  1556.06  1615.50  1647.04
                             1708.38  1797.39  1835.73  1857.51  1871.06
                             1917.28  1949.31  1967.45  2019.02  2022.81
                             2028.91  2032.95  2105.13  2105.83  2107.30
                             2108.19  2109.61  2123.47  2131.20  2169.01
                             2357.41  2388.27  2428.15  2453.17  2543.66
                             4376.14  4376.49  4379.99  4386.92  4411.55
                             4439.76  4442.16  4445.77  4492.21  4514.71
                             4531.13  4538.34  4553.56  4827.44

 Zero-point correction=                           0.239421 (Hartree/Particle)
 Thermal correction to Energy=                    0.256036
 Thermal correction to Enthalpy=                  0.256980
 Thermal correction to Gibbs Free Energy=         0.193988
 Sum of electronic and zero-point Energies=           -766.610873
 Sum of electronic and thermal Energies=              -766.594258
 Sum of electronic and thermal Enthalpies=            -766.593313
 Sum of electronic and thermal Free Energies=         -766.656306

                     E (Thermal)             CV                S
                      KCal/Mol        Cal/Mol-Kelvin    Cal/Mol-Kelvin
 Total                  160.665             59.968            132.578
 Electronic               0.000              0.000              0.000
 Translational            0.889              2.981             42.096
 Rotational               0.889              2.981             32.726
 Vibrational            158.888             54.006             57.756
 Vibration     1          0.594              1.981              5.281
 Vibration     2          0.595              1.979              4.981
 Vibration     3          0.598              1.969              4.210
 Vibration     4          0.599              1.965              3.974
 Vibration     5          0.600              1.961              3.827
 Vibration     6          0.601              1.957              3.691
 Vibration     7          0.603              1.952              3.519
 Vibration     8          0.605              1.946              3.372
 Vibration     9          0.609              1.934              3.127
 Vibration    10          0.624              1.884              2.481
 Vibration    11          0.638              1.838              2.123
 Vibration    12          0.652              1.795              1.880
 Vibration    13          0.689              1.684              1.449
 Vibration    14          0.716              1.605              1.235
 Vibration    15          0.731              1.565              1.145
 Vibration    16          0.734              1.555              1.123
 Vibration    17          0.749              1.514              1.042
 Vibration    18          0.765              1.473              0.968
 Vibration    19          0.790              1.408              0.863
 Vibration    20          0.796              1.392              0.840
 Vibration    21          0.812              1.353              0.785
 Vibration    22          0.822              1.328              0.753
 Vibration    23          0.894              1.163              0.567
 Vibration    24          0.922              1.105              0.512
 Vibration    25          0.964              1.021              0.441

 Optimization completed.
    -- Stationary point found.
 Normal termination of Gaussian 16 at Tue Feb 20 23:26:17 2024.
