 Gaussian 16, Revision A.03,
 Gaussian 16:  ES64L-G16RevA.03 25-Dec-2016

 --------------------------------------
 #P UB3LYP/6-311++G(d,p) nosym opt freq
 --------------------------------------

 -------
 Radical
 -------
 Symbolic Z-matrix:
 Charge = -1 Multiplicity = 2

 SCF Done:  E(UB3LYP) =  -727.299770780     A.U. after   22 cycles
 SCF Done:  E(UB3LYP) =  -727.299771318     A.U. after   10 cycles
 SCF Done:  E(UB3LYP) =  -727.299773915     A.U. after   12 cycles
 SCF Done:  E(UB3LYP) =  -727.299784992     A.U. after   14 cycles
 SCF Done:  E(UB3LYP) =  -727.299775164     A.U. after   16 cycles
 SCF Done:  E(UB3LYP) =  -727.299793713     A.U. after   15 cycles
 SCF Done:  E(UB3LYP) =  -727.299799119     A.U. after   14 cycles
 SCF Done:  E(UB3LYP) =  -727.299832280     A.U. after   13 cycles
 SCF Done:  E(UB3LYP) =  -727.262910155     A.U. after   20 cycles
 SCF Done:  E(UB3LYP) =  -727.300584969     A.U. after   17 cycles
 SCF Done:  E(UB3LYP) =  -727.297554446     A.U. after   20 cycles
 SCF Done:  E(UB3LYP) =  -727.297813242     A.U. after   18 cycles
 SCF Done:  E(UB3LYP) =  -727.300907533     A.U. after   13 cycles
 SCF Done:  E(UB3LYP) =  -727.301054459     A.U. after   17 cycles
 SCF Done:  E(UB3LYP) =  -727.301120805     A.U. after   14 cycles
 SCF Done:  E(UB3LYP) =  -727.301135812     A.U. after   13 cycles
 SCF Done:  E(UB3LYP) =  -727.301145043     A.U. after   14 cycles
 SCF Done:  E(UB3LYP) =  -727.301146755     A.U. after   13 cycles
 SCF Done:  E(UB3LYP) =  -727.301146869     A.U. after   11 cycles
 Optimization completed.
    -- Stationary point found.
 Normal termination of Gaussian 16 at Mon Jan 15 17:41:52 2024.

 ----------------------------------------------------------------------
 #P Geom=AllCheck Guess=TCheck SCRF=Check GenChk UB3LYP/6-311++G(d,p) F
 req
 ----------------------------------------------------------------------

 Structure from the checkpoint file:  "266-rad.chk"
 -------
 Radical
 -------
 Charge = -1 Multiplicity = 2

                          Input orientation:
 ---------------------------------------------------------------------
 Center     Atomic      Atomic             Coordinates (Angstroms)
 Number     Number       Type             X           Y           Z
 ---------------------------------------------------------------------
      1          6           0       -1.235340    2.874471   -0.082185
      2          6           0       -2.533563    2.399508   -0.097040
      3          6           0       -2.778550    1.011798   -0.049862
      4          6           0       -0.135913    1.991397   -0.020661
      5          6           0       -0.385349    0.591842    0.027191
      6          6           0       -1.714674    0.129216    0.011338
      7          6           0        1.223842    2.545734   -0.004857
      8          6           0        2.285674    1.555820    0.058307
      9          6           0        2.046275    0.196626    0.103919
     10          6           0        0.726014   -0.372192    0.092703
     11          8           0        1.449450    3.782599   -0.040294
     12          8           0        0.530079   -1.615664    0.134542
     13          1           0       -1.020471    3.936478   -0.117383
     14          1           0       -1.868337   -0.943558    0.048875
     15          8           0        3.547265    2.103617    0.068543
     16          6           0        4.653950    1.235662    0.225442
     17          6           0        5.890387    2.078863    0.311252
     18          6           0        7.025160    1.826602   -0.336367
     19          1           0       -3.366266    3.095616   -0.145292
     20          1           0       -3.798599    0.638813   -0.061514
     21          1           0        2.856204   -0.521390    0.146957
     22          1           0        4.726771    0.524862   -0.608611
     23          1           0        4.539621    0.648894    1.150389
     24          1           0        5.813345    2.938185    0.972969
     25          1           0        7.116177    0.986507   -1.019031
     26          1           0        7.902757    2.451404   -0.210021
 ---------------------------------------------------------------------

 SCF Done:  E(UB3LYP) =  -727.301146869     A.U. after    1 cycles

 Alpha  occ. eigenvalues --  -19.03519 -18.93890 -18.93659 -10.13047 -10.10033
 Alpha  occ. eigenvalues --  -10.09640 -10.08948 -10.08859 -10.08720 -10.05317
 Alpha  occ. eigenvalues --  -10.05216 -10.04589 -10.04539 -10.04483 -10.04298
 Alpha  occ. eigenvalues --  -10.03115  -0.95205  -0.86209  -0.85977  -0.73144
 Alpha  occ. eigenvalues --   -0.71110  -0.67276  -0.62451  -0.62081  -0.59637
 Alpha  occ. eigenvalues --   -0.53997  -0.49785  -0.48732  -0.47585  -0.43620
 Alpha  occ. eigenvalues --   -0.41248  -0.39598  -0.38677  -0.36638  -0.35856
 Alpha  occ. eigenvalues --   -0.33585  -0.33330  -0.30808  -0.29927  -0.29110
 Alpha  occ. eigenvalues --   -0.28607  -0.27602  -0.26784  -0.26614  -0.24700
 Alpha  occ. eigenvalues --   -0.23424  -0.23237  -0.22486  -0.21000  -0.20729
 Alpha  occ. eigenvalues --   -0.18630  -0.13581  -0.12993  -0.11288  -0.10660
 Alpha  occ. eigenvalues --   -0.10117  -0.01497
 Alpha virt. eigenvalues --    0.06861   0.07390   0.08560   0.08940   0.09340
 Alpha virt. eigenvalues --    0.09959   0.10507   0.11308   0.11977   0.12231
 Alpha virt. eigenvalues --    0.12826   0.13931   0.14536   0.15121   0.16036

  Beta  occ. eigenvalues --  -19.03451 -18.93163 -18.93067 -10.13051 -10.09863
  Beta  occ. eigenvalues --  -10.09640 -10.08860 -10.08842 -10.08562 -10.05292
  Beta  occ. eigenvalues --  -10.05153 -10.04614 -10.04523 -10.04431 -10.04201
  Beta  occ. eigenvalues --  -10.03041  -0.95041  -0.85108  -0.84810  -0.72931
  Beta  occ. eigenvalues --   -0.71059  -0.66833  -0.62273  -0.61917  -0.59481
  Beta  occ. eigenvalues --   -0.53200  -0.49636  -0.48577  -0.47459  -0.43422
  Beta  occ. eigenvalues --   -0.41064  -0.39493  -0.38549  -0.36394  -0.35758
  Beta  occ. eigenvalues --   -0.33426  -0.33191  -0.30630  -0.29877  -0.28932
  Beta  occ. eigenvalues --   -0.27404  -0.27377  -0.26479  -0.26028  -0.23748
  Beta  occ. eigenvalues --   -0.23297  -0.22373  -0.21499  -0.20681  -0.19612
  Beta  occ. eigenvalues --   -0.18293  -0.12358  -0.11427  -0.10110  -0.10029
  Beta  occ. eigenvalues --   -0.09503
  Beta virt. eigenvalues --    0.05150   0.06862   0.07412   0.08553   0.08961
  Beta virt. eigenvalues --    0.09831   0.10066   0.10500   0.11985   0.12235
  Beta virt. eigenvalues --    0.12482   0.12835   0.13932   0.14552   0.15134

 Mulliken charges and spin densities:
               1          2
     1  C    0.132444   0.051543
     2  C   -0.372415   0.017435
     3  C   -0.288976   0.051317
     4  C    0.158801   0.019694
     5  C    0.602050   0.063414
     6  C    0.151494   0.001195
     7  C   -0.628229   0.083395
     8  C   -0.464451   0.135677
     9  C    0.413980   0.036009
    10  C   -0.478922   0.051459
    11  O   -0.388891   0.276398
    12  O   -0.392967   0.214572
    13  H    0.152303  -0.003093
    14  H    0.149502  -0.000859
    15  O   -0.074222   0.011867
    16  C   -0.372209   0.002402
    17  C    0.030522   0.000453
    18  C   -0.420853  -0.000971
    19  H    0.120928  -0.001829
    20  H    0.121073  -0.003993
    21  H    0.167296  -0.006460
    22  H    0.118957   0.000351
    23  H    0.145086   0.000079
    24  H    0.181953  -0.000064
    25  H    0.112289   0.000022
    26  H    0.123456  -0.000011
 Sum of Mulliken charges =  -1.00000   1.00000

 Dipole moment (field-independent basis, Debye):
    X=             -3.4848    Y=             -6.2032    Z=              0.1017  Tot=              7.1157
 Quadrupole moment (field-independent basis, Debye-Ang):
   XX=           -108.5486   YY=           -139.2822   ZZ=            -99.4891
   XY=            -12.3567   XZ=              0.8120   YZ=              2.5873

  Exact polarizability: 280.344   3.140 202.186  -2.780  -1.929 102.000
 Approx polarizability: 371.877  12.330 373.679  -6.485  -3.998 159.080

                      1                      2                      3
                      A                      A                      A
 Frequencies --     29.9697                66.5412                83.9980
 Red. masses --      5.2019                 2.7633                 5.7162
 Frc consts  --      0.0028                 0.0072                 0.0238
 IR Inten    --      2.6437                 0.3851                 5.9685

                      4                      5                      6
                      A                      A                      A
 Frequencies --    107.9228               128.9947               134.9606
 Red. masses --      2.4987                 3.4966                 4.3951
 Frc consts  --      0.0171                 0.0343                 0.0472
 IR Inten    --      1.9705                 0.1094                 0.1498

                      7                      8                      9
                      A                      A                      A
 Frequencies --    180.4588               235.4646               261.0087
 Red. masses --      7.6309                 5.3987                 4.8556
 Frc consts  --      0.1464                 0.1764                 0.1949
 IR Inten    --      3.0352                 0.9967                 2.9509

                     10                     11                     12
                      A                      A                      A
 Frequencies --    265.6237               298.2833               366.3983
 Red. masses --      4.8088                 4.1574                10.6432
 Frc consts  --      0.1999                 0.2179                 0.8418
 IR Inten    --      3.1677                 0.7484                 6.9254

                     13                     14                     15
                      A                      A                      A
 Frequencies --    400.5726               443.7728               457.3104
 Red. masses --      5.1767                 3.8785                 2.5836
 Frc consts  --      0.4894                 0.4500                 0.3183
 IR Inten    --      0.0380                 2.3848                 2.9228

                     16                     17                     18
                      A                      A                      A
 Frequencies --    470.0112               473.8628               511.9113
 Red. masses --     10.4016                 6.5654                 3.8896
 Frc consts  --      1.3538                 0.8686                 0.6005
 IR Inten    --      1.0859                 3.3807                 2.9506

                     19                     20                     21
                      A                      A                      A
 Frequencies --    555.0666               622.3076               655.2977
 Red. masses --      5.2500                 2.0818                 3.1944
 Frc consts  --      0.9530                 0.4750                 0.8082
 IR Inten    --      1.7994                12.1539                 1.7485

                     22                     23                     24
                      A                      A                      A
 Frequencies --    683.5089               699.3813               713.1151
 Red. masses --      3.9406                 5.7612                 2.9520
 Frc consts  --      1.0847                 1.6603                 0.8845
 IR Inten    --      3.3383                 4.0442                26.9316

                     25                     26                     27
                      A                      A                      A
 Frequencies --    727.7179               767.3601               784.1883
 Red. masses --      6.1883                 1.7293                 3.6653
 Frc consts  --      1.9308                 0.6000                 1.3280
 IR Inten    --      9.1540                47.2926                 5.3521

                     28                     29                     30
                      A                      A                      A
 Frequencies --    828.3108               841.0283               864.9414
 Red. masses --      1.7878                 4.6126                 1.4233
 Frc consts  --      0.7227                 1.9223                 0.6274
 IR Inten    --     16.9968                 4.8560                 0.0353

                     31                     32                     33
                      A                      A                      A
 Frequencies --    931.3040               937.0532               960.0021
 Red. masses --      1.3292                 1.6276                 4.1537
 Frc consts  --      0.6792                 0.8420                 2.2555
 IR Inten    --     48.8622                17.7678                24.8883

                     34                     35                     36
                      A                      A                      A
 Frequencies --    976.4138               978.4403               999.7561
 Red. masses --      1.3417                 1.2707                 1.5645
 Frc consts  --      0.7537                 0.7167                 0.9213
 IR Inten    --      2.2667                 0.5006                11.1347

                     37                     38                     39
                      A                      A                      A
 Frequencies --   1034.6182              1036.9815              1083.5593
 Red. masses --      1.4358                 1.8438                 4.7288
 Frc consts  --      0.9055                 1.1682                 3.2712
 IR Inten    --      6.6600                42.1818                77.1802

                     40                     41                     42
                      A                      A                      A
 Frequencies --   1102.4243              1140.5401              1154.6679
 Red. masses --      2.7159                 1.6534                 1.6103
 Frc consts  --      1.9447                 1.2672                 1.2650
 IR Inten    --     36.5907                10.9986                13.9716

                     43                     44                     45
                      A                      A                      A
 Frequencies --   1169.7847              1199.6319              1224.0386
 Red. masses --      1.8897                 3.8008                 2.7607
 Frc consts  --      1.5235                 3.2227                 2.4370
 IR Inten    --     40.4350               457.8515                14.0868

                     46                     47                     48
                      A                      A                      A
 Frequencies --   1245.1036              1257.9137              1295.6997
 Red. masses --      1.8361                 1.1578                 1.8610
 Frc consts  --      1.6771                 1.0794                 1.8408
 IR Inten    --     62.0768                 5.9898                34.9367

                     49                     50                     51
                      A                      A                      A
 Frequencies --   1309.2679              1354.4344              1371.8966
 Red. masses --      1.2803                 9.6570                 1.4902
 Frc consts  --      1.2931                10.4378                 1.6525
 IR Inten    --      1.7421                28.7910               102.4068

                     52                     53                     54
                      A                      A                      A
 Frequencies --   1408.8675              1455.9807              1462.3945
 Red. masses --      2.4422                 1.5069                 2.5273
 Frc consts  --      2.8561                 1.8821                 3.1845
 IR Inten    --     45.3383                47.6520               118.3614

                     55                     56                     57
                      A                      A                      A
 Frequencies --   1470.9999              1500.8403              1515.9314
 Red. masses --      2.4801                 1.1901                 5.3365
 Frc consts  --      3.1619                 1.5794                 7.2255
 IR Inten    --     12.9281                37.4005                31.2509

                     58                     59                     60
                      A                      A                      A
 Frequencies --   1534.7332              1550.7503              1617.8567
 Red. masses --      6.3768                 5.0701                 7.6652
 Frc consts  --      8.8495                 7.1838                11.8210
 IR Inten    --    397.4907               193.6100                20.2870

                     61                     62                     63
                      A                      A                      A
 Frequencies --   1627.5792              1703.2941              2956.0636
 Red. masses --      6.2484                 4.7267                 1.0619
 Frc consts  --      9.7523                 8.0796                 5.4671
 IR Inten    --     46.4614                14.8177                44.9218

                     64                     65                     66
                      A                      A                      A
 Frequencies --   3001.5724              3118.5909              3130.7355
 Red. masses --      1.0969                 1.0582                 1.0845
 Frc consts  --      5.8226                 6.0634                 6.2629
 IR Inten    --     34.3419                17.5586                17.1779

                     67                     68                     69
                      A                      A                      A
 Frequencies --   3144.5943              3150.3047              3178.2113
 Red. masses --      1.0920                 1.0910                 1.0914
 Frc consts  --      6.3619                 6.3797                 6.4954
 IR Inten    --      5.1031                51.7943                17.6823

                     70                     71                     72
                      A                      A                      A
 Frequencies --   3180.6777              3181.8358              3200.8040
 Red. masses --      1.0883                 1.0923                 1.1146
 Frc consts  --      6.4867                 6.5155                 6.7280
 IR Inten    --     29.5774                15.2927                26.2821

 - Thermochemistry -
 -------------------
 Temperature   298.150 Kelvin.  Pressure   1.00000 Atm.
 Atom     1 has atomic number  6 and mass  12.00000

 Molecular mass:   214.06299 amu.
 Principal axes and moments of inertia in atomic units:
                           1         2         3
     Eigenvalues --  1488.688986135.617117573.34605
           X            0.99629  -0.08548  -0.01006
           Y            0.08578   0.99574   0.03376
           Z            0.00713  -0.03450   0.99938
 This molecule is an asymmetric top.
 Rotational symmetry number  1.
 Warning -- assumption of classical behavior for rotation
           may cause significant error
 Rotational temperatures (Kelvin)      0.05818     0.01412     0.01144
 Rotational constants (GHZ):           1.21230     0.29414     0.23830
 Zero-point vibrational energy     511495.9 (Joules/Mol)
                                  122.25046 (Kcal/Mol)
 Warning -- explicit consideration of  19 degrees of freedom as
           vibrations may cause significant error
 Vibrational temperatures:     43.12    95.74   120.85   155.28   185.59
          (Kelvin)            194.18   259.64   338.78   375.53   382.17
                              429.16   527.17   576.33   638.49   657.97
                              676.24   681.78   736.53   798.62   895.36
                              942.83   983.42  1006.25  1026.01  1047.02
                             1104.06  1128.27  1191.75  1210.05  1244.46
                             1339.94  1348.21  1381.23  1404.84  1407.76
                             1438.43  1488.58  1491.99  1559.00  1586.14
                             1640.98  1661.31  1683.06  1726.00  1761.12
                             1791.43  1809.86  1864.22  1883.74  1948.73
                             1973.85  2027.05  2094.83  2104.06  2116.44
                             2159.37  2181.09  2208.14  2231.18  2327.73
                             2341.72  2450.66  4253.12  4318.59  4486.96
                             4504.43  4524.37  4532.59  4572.74  4576.29
                             4577.95  4605.24

 Zero-point correction=                           0.194819 (Hartree/Particle)
 Thermal correction to Energy=                    0.208368
 Thermal correction to Enthalpy=                  0.209312
 Thermal correction to Gibbs Free Energy=         0.152993
 Sum of electronic and zero-point Energies=           -727.106328
 Sum of electronic and thermal Energies=              -727.092779
 Sum of electronic and thermal Enthalpies=            -727.091835
 Sum of electronic and thermal Free Energies=         -727.148154

                     E (Thermal)             CV                S
                      KCal/Mol        Cal/Mol-Kelvin    Cal/Mol-Kelvin
 Total                  130.753             51.995            118.533
 Electronic               0.000              0.000              1.377
 Translational            0.889              2.981             41.987
 Rotational               0.889              2.981             32.603
 Vibrational            128.975             46.034             42.566
 Vibration     1          0.594              1.984              5.831
 Vibration     2          0.598              1.970              4.253
 Vibration     3          0.601              1.960              3.795
 Vibration     4          0.606              1.943              3.306
 Vibration     5          0.611              1.924              2.961
 Vibration     6          0.613              1.918              2.874
 Vibration     7          0.629              1.866              2.324
 Vibration     8          0.655              1.787              1.837
 Vibration     9          0.669              1.744              1.655
 Vibration    10          0.671              1.736              1.625
 Vibration    11          0.691              1.677              1.427
 Vibration    12          0.739              1.541              1.095
 Vibration    13          0.766              1.469              0.961
 Vibration    14          0.803              1.375              0.815
 Vibration    15          0.815              1.345              0.774
 Vibration    16          0.827              1.317              0.738
 Vibration    17          0.831              1.308              0.727
 Vibration    18          0.867              1.224              0.629
 Vibration    19          0.911              1.129              0.534

 Optimization completed.
    -- Stationary point found.
 Normal termination of Gaussian 16 at Mon Jan 15 18:02:02 2024.
