 Gaussian 16, Revision A.03,
 Gaussian 16:  ES64L-G16RevA.03 25-Dec-2016

 ----------------------------------------------------------------
 #P UB3LYP/6-311++G(d,p) SCRF=(PCM,Solvent=n,n-DiMethylFormamide)
 ----------------------------------------------------------------

 ------------------
 Radical PCM in DMF
 ------------------
 Symbolic Z-matrix:
 Charge = -1 Multiplicity = 2

                         Standard orientation:
 ---------------------------------------------------------------------
 Center     Atomic      Atomic             Coordinates (Angstroms)
 Number     Number       Type             X           Y           Z
 ---------------------------------------------------------------------
      1          6           0        2.520807   -1.679786   -0.039087
      2          6           0        3.851798   -1.306513   -0.057094
      3          6           0        4.202535    0.059109   -0.050519
      4          6           0        1.492220   -0.713480   -0.014507
      5          6           0        1.848299    0.663626   -0.007583
      6          6           0        3.209356    1.022187   -0.025933
      7          6           0        0.093767   -1.161103    0.006350
      8          6           0       -0.889128   -0.091157    0.029610
      9          6           0       -0.546147    1.246427    0.035449
     10          6           0        0.814015    1.711655    0.018383
     11          8           0       -0.226117   -2.377518    0.007035
     12          8           0        1.104781    2.937131    0.023632
     13          1           0        2.225085   -2.722761   -0.043454
     14          1           0        3.444869    2.080660   -0.020100
     15          8           0       -2.189171   -0.539969    0.045568
     16          6           0       -3.226773    0.414821    0.165875
     17          6           0       -4.524955   -0.327935    0.266689
     18          6           0       -5.632757   -0.009819   -0.398393
     19          1           0        4.628760   -2.065619   -0.076524
     20          1           0        5.248314    0.352194   -0.064641
     21          1           0       -1.298683    2.025454    0.049194
     22          1           0       -3.239307    1.102582   -0.690286
     23          1           0       -3.073591    1.019833    1.073284
     24          1           0       -4.518531   -1.169440    0.955215
     25          1           0       -5.654459    0.812939   -1.107386
     26          1           0       -6.556626   -0.561183   -0.260621
 ---------------------------------------------------------------------

 SCF Done:  E(UB3LYP) =  -727.384386015     A.U. after   20 cycles

 The electronic state is 2-A.
 Alpha  occ. eigenvalues --  -19.15514 -19.07726 -19.07382 -10.22921 -10.22898
 Alpha  occ. eigenvalues --  -10.22374 -10.22216 -10.18243 -10.17353 -10.17262
 Alpha  occ. eigenvalues --  -10.17229 -10.17175 -10.17151 -10.16958 -10.16918
 Alpha  occ. eigenvalues --  -10.15829  -1.07148  -1.00002  -0.99780  -0.85744
 Alpha  occ. eigenvalues --   -0.81228  -0.78964  -0.74997  -0.73884  -0.70719
 Alpha  occ. eigenvalues --   -0.66314  -0.62014  -0.60403  -0.57313  -0.55894
 Alpha  occ. eigenvalues --   -0.52840  -0.51435  -0.49059  -0.48875  -0.46323
 Alpha  occ. eigenvalues --   -0.45494  -0.44065  -0.42688  -0.42176  -0.41573
 Alpha  occ. eigenvalues --   -0.40914  -0.40768  -0.39756  -0.37981  -0.37046
 Alpha  occ. eigenvalues --   -0.35743  -0.35451  -0.34244  -0.33438  -0.33070
 Alpha  occ. eigenvalues --   -0.27631  -0.26609  -0.25657  -0.24601  -0.23905
 Alpha  occ. eigenvalues --   -0.23830  -0.14910
 Alpha virt. eigenvalues --   -0.03325  -0.01122  -0.01025  -0.00235   0.00399
 Alpha virt. eigenvalues --    0.01236   0.01842   0.02120   0.02820   0.03648
 Alpha virt. eigenvalues --    0.04342   0.04705   0.04836   0.05634   0.05735

  Beta  occ. eigenvalues --  -19.15431 -19.07060 -19.06841 -10.22925 -10.22735
  Beta  occ. eigenvalues --  -10.22234 -10.21999 -10.18243 -10.17319 -10.17244
  Beta  occ. eigenvalues --  -10.17229 -10.17115 -10.17069 -10.16969 -10.16890
  Beta  occ. eigenvalues --  -10.15765  -1.06948  -0.98945  -0.98724  -0.85525
  Beta  occ. eigenvalues --   -0.80964  -0.78727  -0.74795  -0.73708  -0.70470
  Beta  occ. eigenvalues --   -0.65596  -0.61835  -0.60154  -0.57247  -0.55696
  Beta  occ. eigenvalues --   -0.52648  -0.51254  -0.48809  -0.48712  -0.46102
  Beta  occ. eigenvalues --   -0.45395  -0.43876  -0.42494  -0.41814  -0.41088
  Beta  occ. eigenvalues --   -0.40335  -0.40052  -0.39465  -0.36967  -0.35948
  Beta  occ. eigenvalues --   -0.35334  -0.34874  -0.34176  -0.33206  -0.31792
  Beta  occ. eigenvalues --   -0.27552  -0.24990  -0.24599  -0.24023  -0.23361
  Beta  occ. eigenvalues --   -0.22957
  Beta virt. eigenvalues --   -0.08337  -0.02574  -0.01078  -0.00224   0.00094
  Beta virt. eigenvalues --    0.00402   0.01252   0.01863   0.02125   0.02844
  Beta virt. eigenvalues --    0.03666   0.04369   0.04849   0.05280   0.05704

 Mulliken charges and spin densities:
               1          2
     1  C    0.167736   0.064978
     2  C   -0.433230   0.010882
     3  C   -0.364424   0.050412
     4  C    0.062421   0.000750
     5  C    0.498597   0.051904
     6  C    0.182265   0.008687
     7  C   -0.483939   0.129285
     8  C   -0.527908   0.129052
     9  C    0.362135   0.023858
    10  C   -0.265220   0.079837
    11  O   -0.492567   0.251221
    12  O   -0.487128   0.194093
    13  H    0.160908  -0.003500
    14  H    0.159097  -0.000928
    15  O   -0.126208   0.016875
    16  C   -0.366342   0.001453
    17  C    0.017712   0.000423
    18  C   -0.470892  -0.000853
    19  H    0.181372  -0.001346
    20  H    0.181551  -0.003693
    21  H    0.207841  -0.005626
    22  H    0.157449   0.001221
    23  H    0.172579   0.001019
    24  H    0.197919  -0.000039
    25  H    0.144792   0.000016
    26  H    0.163482   0.000022
 Sum of Mulliken charges =  -1.00000   1.00000

 Dipole moment (field-independent basis, Debye):
    X=             -3.1543    Y=             -0.0401    Z=              0.1582  Tot=              3.1585
 Quadrupole moment (field-independent basis, Debye-Ang):
   XX=            -90.7830   YY=           -132.7005   ZZ=            -98.9102
   XY=            -14.2622   XZ=             -0.2577   YZ=             -1.5463

 Normal termination of Gaussian 16 at Sun Jan 21 08:30:59 2024.
