 Q-Chem 5.4, Q-Chem, Inc., Pleasanton, CA (2021)
 Q-Chem 5.4.0 for Intel X86 EM64T Linux

User input:
--------------------------------------------------------------
$molecule
-1 2
C                 -3.4596210000      5.5162530000      3.5165240000
C                 -2.4494110000      6.0207020000      4.3161600000
C                 -2.0230450000      5.2992700000      5.4487760000
C                 -4.0755860000      4.2845640000      3.8153580000
C                 -3.6460240000      3.5591830000      4.9550040000
C                 -2.6163070000      4.0882390000      5.7581220000
C                 -5.1482170000      3.7747270000      2.9470540000
C                 -5.7386120000      2.5030100000      3.3178420000
C                 -5.3044250000      1.7886310000      4.4286260000
C                 -4.2592910000      2.2705160000      5.3052300000
O                 -5.5240160000      4.4264040000      1.9330440000
O                 -3.8858130000      1.6221430000      6.3234710000
H                 -1.9849040000      6.9718790000      4.0722360000
H                 -1.2299720000      5.6943770000      6.0771950000
C                 -6.8471780000      1.9903620000      2.4295770000
H                 -3.8082190000      6.0490380000      2.6392090000
H                 -2.3105080000      3.5108930000      6.6232190000
H                 -6.5492220000      1.0818970000      1.8893920000
H                 -7.0932270000      2.7539580000      1.6914090000
H                 -7.7461960000      1.7442050000      3.0041910000
C                 -5.9136090000      0.4487590000      4.8079090000
C                 -7.0450840000      0.5945840000      5.7943300000
C                 -8.2799930000      0.0732670000      5.7538210000
C                 -9.2599920000      0.3542730000      6.8757110000
C                 -9.5837680000     -0.8783960000      7.7590150000
C                -10.6053210000     -0.5735600000      8.8180100000
C                -10.4592040000     -0.5488460000     10.1507490000
C                 -8.8023570000     -0.8054590000      4.6415600000
C                -11.6314530000     -0.1789200000     11.0377860000
C                -11.4795220000      1.1878910000     11.7524380000
C                -12.6435550000      1.4923280000     12.6533830000
C                -13.5387990000      2.4867880000     12.5675600000
C                 -9.1743690000     -0.8734960000     10.8737300000
C                -13.5229640000      3.5610110000     11.5072390000
C                -14.6554330000      2.5939510000     13.5870740000
C                -16.0649050000      2.2892890000     13.0192760000
C                -17.1446180000      2.4638980000     14.0506350000
C                -17.9675000000      1.5437560000     14.5738760000
C                -17.9798420000      0.0865620000     14.1801110000
C                -18.9819170000      1.9424730000     15.6272180000
C                -18.6831290000      1.3829500000     17.0411670000
C                -19.7441000000      1.7587380000     18.0379580000
C                -19.6389990000      2.5293210000     19.1300650000
C                -18.3578650000      3.1739940000     19.6006580000
C                -20.8564790000      2.7940390000     19.9932990000
C                -21.3726320000      4.2539560000     19.9326710000
C                -22.5438780000      4.4821940000     20.8473900000
C                -23.8053200000      4.8116300000     20.5347840000
C                -24.3020220000      5.0535090000     19.1300970000
C                -24.8405320000      4.9787420000     21.6291860000
C                -25.9309260000      3.8780380000     21.6465630000
C                -26.9658210000      4.1181790000     22.7105160000
C                -27.2536820000      3.3696070000     23.7837120000
C                -26.5694390000      2.0737840000     24.1404880000
C                -28.3347980000      3.7878140000     24.7510860000
H                 -5.1235810000     -0.1310600000      5.2990790000
H                 -6.2288820000     -0.0988430000      3.9179450000
H                 -6.7876190000      1.2144700000      6.6510160000
H                -10.2024730000      0.7354810000      6.4557400000
H                 -8.8615450000      1.1448520000      7.5179150000
H                 -8.6516560000     -1.2504710000      8.1898600000
H                 -9.9729170000     -1.6809680000      7.1200830000
H                -11.5911450000     -0.3158420000      8.4281310000
H                 -8.1117120000     -0.8662750000      3.8009580000
H                 -9.7590050000     -0.4231170000      4.2629020000
H                 -8.9893020000     -1.8297470000      4.9875800000
H                -11.7715650000     -0.9560210000     11.8026140000
H                -12.5489010000     -0.1578280000     10.4419770000
H                -11.3383970000      1.9633590000     10.9967600000
H                -10.5642370000      1.1744730000     12.3564840000
H                -12.7677820000      0.7885120000     13.4774890000
H                 -8.3780880000     -1.1873980000     10.2002110000
H                 -9.3373190000     -1.6764020000     11.6034830000
H                 -8.8039570000     -0.0094350000     11.4360590000
H                -12.6797070000      3.4713390000     10.8238130000
H                -13.4753930000      4.5538460000     11.9705830000
H                -14.4380480000      3.5407600000     10.9054200000
H                -14.6644560000      3.6071330000     14.0122360000
H                -14.4610780000      1.9086710000     14.4174270000
H                -16.0632090000      1.2799160000     12.6021550000
H                -16.2674350000      2.9697420000     12.1833950000
H                -17.2484810000      3.4844380000     14.4208880000
H                -17.2666380000     -0.1465430000     13.3903750000
H                -18.9771190000     -0.2055480000     13.8297410000
H                -17.7478540000     -0.5584740000     15.0344850000
H                -19.9791820000      1.5973920000     15.3211520000
H                -19.0351970000      3.0332150000     15.6905350000
H                -17.6951390000      1.7288620000     17.3526730000
H                -18.6259770000      0.2889450000     16.9877300000
H                -20.7302230000      1.3483330000     17.8178620000
H                -17.5013640000      2.9262120000     18.9747840000
H                -18.1273620000      2.8601180000     20.6257460000
H                -18.4462580000      4.2654860000     19.6211810000
H                -20.6203960000      2.5524890000     21.0387620000
H                -21.6699370000      2.1263310000     19.6949080000
H                -21.6161270000      4.4961950000     18.8959240000
H                -20.5624260000      4.9319470000     20.2273210000
H                -22.3180910000      4.3460130000     21.9055320000
H                -23.5186400000      4.9601520000     18.3788240000
H                -24.7306580000      6.0592380000     19.0455590000
H                -25.0994490000      4.3513630000     18.8642630000
H                -25.3337310000      5.9539850000     21.5168220000
H                -24.3449990000      4.9908400000     22.6042550000
H                -25.4470910000      2.9061730000     21.7670420000
H                -26.4318480000      3.8549040000     20.6710670000
H                -27.5396420000      5.0359690000     22.5798340000
H                -25.7778250000      1.7974880000     23.4448090000
H                -27.2945850000      1.2516680000     24.1699310000
H                -26.1304180000      2.1362440000     25.1432190000
H                -28.8025880000      4.7290000000     24.4550630000
H                -27.9305090000      3.9104980000     25.7631450000
H                -29.1185860000      3.0235970000     24.8188010000
$end

$rem
MAX_SCF_CYCLES=200
BASIS  =  6-311++G(d,p)
GUI  =  2
JOB_TYPE  =  SP
METHOD  =  B3LYP
THRESH      14
SCF_CONVERGENCE  = 5
SOLVENT_METHOD = sm12
$end

$smx
solvent dimethylformamide
charges CM5
$end

--------------------------------------------------------------

             Standard Nuclear Orientation (Angstroms)
    I     Atom           X                Y                Z
 ----------------------------------------------------------------
    1      C      -3.4596210000     5.5162530000     3.5165240000
    2      C      -2.4494110000     6.0207020000     4.3161600000
    3      C      -2.0230450000     5.2992700000     5.4487760000
    4      C      -4.0755860000     4.2845640000     3.8153580000
    5      C      -3.6460240000     3.5591830000     4.9550040000
    6      C      -2.6163070000     4.0882390000     5.7581220000
    7      C      -5.1482170000     3.7747270000     2.9470540000
    8      C      -5.7386120000     2.5030100000     3.3178420000
    9      C      -5.3044250000     1.7886310000     4.4286260000
   10      C      -4.2592910000     2.2705160000     5.3052300000
   11      O      -5.5240160000     4.4264040000     1.9330440000
   12      O      -3.8858130000     1.6221430000     6.3234710000
   13      H      -1.9849040000     6.9718790000     4.0722360000
   14      H      -1.2299720000     5.6943770000     6.0771950000
   15      C      -6.8471780000     1.9903620000     2.4295770000
   16      H      -3.8082190000     6.0490380000     2.6392090000
   17      H      -2.3105080000     3.5108930000     6.6232190000
   18      H      -6.5492220000     1.0818970000     1.8893920000
   19      H      -7.0932270000     2.7539580000     1.6914090000
   20      H      -7.7461960000     1.7442050000     3.0041910000
   21      C      -5.9136090000     0.4487590000     4.8079090000
   22      C      -7.0450840000     0.5945840000     5.7943300000
   23      C      -8.2799930000     0.0732670000     5.7538210000
   24      C      -9.2599920000     0.3542730000     6.8757110000
   25      C      -9.5837680000    -0.8783960000     7.7590150000
   26      C     -10.6053210000    -0.5735600000     8.8180100000
   27      C     -10.4592040000    -0.5488460000    10.1507490000
   28      C      -8.8023570000    -0.8054590000     4.6415600000
   29      C     -11.6314530000    -0.1789200000    11.0377860000
   30      C     -11.4795220000     1.1878910000    11.7524380000
   31      C     -12.6435550000     1.4923280000    12.6533830000
   32      C     -13.5387990000     2.4867880000    12.5675600000
   33      C      -9.1743690000    -0.8734960000    10.8737300000
   34      C     -13.5229640000     3.5610110000    11.5072390000
   35      C     -14.6554330000     2.5939510000    13.5870740000
   36      C     -16.0649050000     2.2892890000    13.0192760000
   37      C     -17.1446180000     2.4638980000    14.0506350000
   38      C     -17.9675000000     1.5437560000    14.5738760000
   39      C     -17.9798420000     0.0865620000    14.1801110000
   40      C     -18.9819170000     1.9424730000    15.6272180000
   41      C     -18.6831290000     1.3829500000    17.0411670000
   42      C     -19.7441000000     1.7587380000    18.0379580000
   43      C     -19.6389990000     2.5293210000    19.1300650000
   44      C     -18.3578650000     3.1739940000    19.6006580000
   45      C     -20.8564790000     2.7940390000    19.9932990000
   46      C     -21.3726320000     4.2539560000    19.9326710000
   47      C     -22.5438780000     4.4821940000    20.8473900000
   48      C     -23.8053200000     4.8116300000    20.5347840000
   49      C     -24.3020220000     5.0535090000    19.1300970000
   50      C     -24.8405320000     4.9787420000    21.6291860000
   51      C     -25.9309260000     3.8780380000    21.6465630000
   52      C     -26.9658210000     4.1181790000    22.7105160000
   53      C     -27.2536820000     3.3696070000    23.7837120000
   54      C     -26.5694390000     2.0737840000    24.1404880000
   55      C     -28.3347980000     3.7878140000    24.7510860000
   56      H      -5.1235810000    -0.1310600000     5.2990790000
   57      H      -6.2288820000    -0.0988430000     3.9179450000
   58      H      -6.7876190000     1.2144700000     6.6510160000
   59      H     -10.2024730000     0.7354810000     6.4557400000
   60      H      -8.8615450000     1.1448520000     7.5179150000
   61      H      -8.6516560000    -1.2504710000     8.1898600000
   62      H      -9.9729170000    -1.6809680000     7.1200830000
   63      H     -11.5911450000    -0.3158420000     8.4281310000
   64      H      -8.1117120000    -0.8662750000     3.8009580000
   65      H      -9.7590050000    -0.4231170000     4.2629020000
   66      H      -8.9893020000    -1.8297470000     4.9875800000
   67      H     -11.7715650000    -0.9560210000    11.8026140000
   68      H     -12.5489010000    -0.1578280000    10.4419770000
   69      H     -11.3383970000     1.9633590000    10.9967600000
   70      H     -10.5642370000     1.1744730000    12.3564840000
   71      H     -12.7677820000     0.7885120000    13.4774890000
   72      H      -8.3780880000    -1.1873980000    10.2002110000
   73      H      -9.3373190000    -1.6764020000    11.6034830000
   74      H      -8.8039570000    -0.0094350000    11.4360590000
   75      H     -12.6797070000     3.4713390000    10.8238130000
   76      H     -13.4753930000     4.5538460000    11.9705830000
   77      H     -14.4380480000     3.5407600000    10.9054200000
   78      H     -14.6644560000     3.6071330000    14.0122360000
   79      H     -14.4610780000     1.9086710000    14.4174270000
   80      H     -16.0632090000     1.2799160000    12.6021550000
   81      H     -16.2674350000     2.9697420000    12.1833950000
   82      H     -17.2484810000     3.4844380000    14.4208880000
   83      H     -17.2666380000    -0.1465430000    13.3903750000
   84      H     -18.9771190000    -0.2055480000    13.8297410000
   85      H     -17.7478540000    -0.5584740000    15.0344850000
   86      H     -19.9791820000     1.5973920000    15.3211520000
   87      H     -19.0351970000     3.0332150000    15.6905350000
   88      H     -17.6951390000     1.7288620000    17.3526730000
   89      H     -18.6259770000     0.2889450000    16.9877300000
   90      H     -20.7302230000     1.3483330000    17.8178620000
   91      H     -17.5013640000     2.9262120000    18.9747840000
   92      H     -18.1273620000     2.8601180000    20.6257460000
   93      H     -18.4462580000     4.2654860000    19.6211810000
   94      H     -20.6203960000     2.5524890000    21.0387620000
   95      H     -21.6699370000     2.1263310000    19.6949080000
   96      H     -21.6161270000     4.4961950000    18.8959240000
   97      H     -20.5624260000     4.9319470000    20.2273210000
   98      H     -22.3180910000     4.3460130000    21.9055320000
   99      H     -23.5186400000     4.9601520000    18.3788240000
  100      H     -24.7306580000     6.0592380000    19.0455590000
  101      H     -25.0994490000     4.3513630000    18.8642630000
  102      H     -25.3337310000     5.9539850000    21.5168220000
  103      H     -24.3449990000     4.9908400000    22.6042550000
  104      H     -25.4470910000     2.9061730000    21.7670420000
  105      H     -26.4318480000     3.8549040000    20.6710670000
  106      H     -27.5396420000     5.0359690000    22.5798340000
  107      H     -25.7778250000     1.7974880000    23.4448090000
  108      H     -27.2945850000     1.2516680000    24.1699310000
  109      H     -26.1304180000     2.1362440000    25.1432190000
  110      H     -28.8025880000     4.7290000000    24.4550630000
  111      H     -27.9305090000     3.9104980000    25.7631450000
  112      H     -29.1185860000     3.0235970000    24.8188010000
 ----------------------------------------------------------------

    7   -1942.3968821983      8.06e-06  Convergence criterion met
 Total energy in the final basis set =    -1942.5015160100

                    Orbital Energies (a.u.)
 --------------------------------------------------------------

 Alpha MOs
 -- Occupied --
-19.0721 -19.0720 -10.2200 -10.2191 -10.1821 -10.1816 -10.1784 -10.1775
-10.1774 -10.1770 -10.1766 -10.1763 -10.1761 -10.1760 -10.1758 -10.1758
-10.1757 -10.1725 -10.1714 -10.1710 -10.1708 -10.1702 -10.1700 -10.1700
-10.1699 -10.1699 -10.1697 -10.1695 -10.1695 -10.1694 -10.1693 -10.1691
-10.1656 -10.1640 -10.1637 -10.1635 -10.1629 -10.1629 -10.1629 -10.1628
-10.1627 -10.1626 -10.1625 -10.1625 -10.1623 -10.1622 -10.1620 -10.1613
 -0.9971  -0.9946  -0.8628  -0.8341  -0.8326  -0.8298  -0.8259  -0.8209
 -0.8150  -0.8092  -0.8054  -0.7792  -0.7718  -0.7643  -0.7565  -0.7557
 -0.7469  -0.7377  -0.7299  -0.7239  -0.6948  -0.6935  -0.6901  -0.6896
 -0.6881  -0.6853  -0.6802  -0.6727  -0.6641  -0.6540  -0.6425  -0.6291
 -0.6161  -0.6066  -0.6013  -0.5936  -0.5880  -0.5854  -0.5574  -0.5260
 -0.5252  -0.5242  -0.5223  -0.5196  -0.5166  -0.5142  -0.5120  -0.4968
 -0.4816  -0.4811  -0.4800  -0.4798  -0.4762  -0.4714  -0.4687  -0.4665
 -0.4520  -0.4493  -0.4481  -0.4450  -0.4408  -0.4375  -0.4358  -0.4327
 -0.4324  -0.4310  -0.4271  -0.4235  -0.4198  -0.4178  -0.4158  -0.4153
 -0.4119  -0.4115  -0.4089  -0.4072  -0.4049  -0.4047  -0.4024  -0.4019
 -0.3969  -0.3951  -0.3936  -0.3864  -0.3851  -0.3805  -0.3755  -0.3752
 -0.3746  -0.3744  -0.3742  -0.3729  -0.3716  -0.3712  -0.3695  -0.3678
 -0.3671  -0.3658  -0.3642  -0.3631  -0.3604  -0.3583  -0.3568  -0.3520
 -0.3496  -0.3426  -0.3414  -0.3406  -0.3395  -0.3378  -0.3371  -0.3320
 -0.3318  -0.3306  -0.3290  -0.3224  -0.3161  -0.3117  -0.2698  -0.2624
 -0.2545  -0.2526  -0.2492  -0.2456  -0.2428  -0.2419  -0.2368  -0.2317
 -0.2280  -0.2253  -0.1509

 Beta MOs
 -- Occupied --
-19.0661 -19.0661 -10.2184 -10.2175 -10.1817 -10.1812 -10.1784 -10.1774
-10.1773 -10.1765 -10.1763 -10.1761 -10.1760 -10.1760 -10.1758 -10.1757
-10.1757 -10.1714 -10.1711 -10.1710 -10.1708 -10.1702 -10.1700 -10.1700
-10.1699 -10.1697 -10.1695 -10.1695 -10.1694 -10.1693 -10.1692 -10.1685
-10.1656 -10.1639 -10.1637 -10.1635 -10.1629 -10.1629 -10.1629 -10.1628
-10.1627 -10.1626 -10.1625 -10.1625 -10.1623 -10.1622 -10.1620 -10.1614
 -0.9865  -0.9838  -0.8609  -0.8339  -0.8323  -0.8293  -0.8252  -0.8201
 -0.8142  -0.8084  -0.8050  -0.7790  -0.7712  -0.7634  -0.7559  -0.7541
 -0.7464  -0.7370  -0.7293  -0.7237  -0.6935  -0.6929  -0.6901  -0.6895
 -0.6880  -0.6852  -0.6801  -0.6726  -0.6610  -0.6504  -0.6420  -0.6289
 -0.6159  -0.6061  -0.6007  -0.5930  -0.5871  -0.5838  -0.5548  -0.5256
 -0.5251  -0.5240  -0.5221  -0.5194  -0.5164  -0.5142  -0.5110  -0.4946
 -0.4816  -0.4811  -0.4799  -0.4797  -0.4760  -0.4712  -0.4665  -0.4663
 -0.4510  -0.4493  -0.4478  -0.4446  -0.4402  -0.4373  -0.4352  -0.4324
 -0.4321  -0.4305  -0.4236  -0.4216  -0.4196  -0.4176  -0.4153  -0.4144
 -0.4117  -0.4111  -0.4066  -0.4049  -0.4046  -0.4037  -0.4018  -0.3970
 -0.3962  -0.3936  -0.3927  -0.3851  -0.3844  -0.3795  -0.3755  -0.3751
 -0.3744  -0.3742  -0.3729  -0.3724  -0.3715  -0.3705  -0.3684  -0.3677
 -0.3657  -0.3649  -0.3633  -0.3605  -0.3584  -0.3567  -0.3507  -0.3455
 -0.3427  -0.3412  -0.3404  -0.3387  -0.3384  -0.3377  -0.3357  -0.3319
 -0.3317  -0.3306  -0.3287  -0.3221  -0.3160  -0.3117  -0.2559  -0.2543
 -0.2522  -0.2493  -0.2481  -0.2429  -0.2376  -0.2367  -0.2323  -0.2304
 -0.2262  -0.2237

          Ground-State Mulliken Net Atomic Charges

     Atom                 Charge (a.u.)    Spin (a.u.)
  --------------------------------------------------------
      1 C                    -0.059646       0.028247
      2 C                     0.960700       0.026857
      3 C                     0.845915       0.028339
      4 C                    -1.573828       0.008181
      5 C                    -0.900167       0.021080
      6 C                    -0.092751       0.028682
      7 C                    -1.943181       0.083633
      8 C                     0.061661       0.104002
      9 C                    -0.129264       0.101463
     10 C                    -1.997119       0.079789
     11 O                    -0.321685       0.237812
     12 O                    -0.272330       0.234441
     13 H                     0.358930      -0.002202
     14 H                     0.357364      -0.002243
     15 C                     0.486016       0.000939
     16 H                     0.149619      -0.002510
     17 H                     0.151098      -0.002523
     18 H                     0.227491       0.006464
     19 H                     0.176663      -0.002112
     20 H                     0.157155       0.004595
     21 C                     0.183071       0.013172
     22 C                    -1.102968       0.003210
     23 C                     0.542436       0.004029
     24 C                     0.569826      -0.002516
     25 C                    -0.568266       0.000823
     26 C                    -0.921264      -0.000130
     27 C                     0.838200      -0.000451
     28 C                     0.125995      -0.003974
     29 C                     0.253349       0.000159
     30 C                    -0.488016      -0.000030
     31 C                    -0.735477       0.000008
     32 C                     0.459252       0.000009
     33 C                    -0.430569      -0.000072
     34 C                    -0.537515       0.000002
     35 C                     0.109363       0.000001
     36 C                    -0.365139      -0.000001
     37 C                    -0.679110       0.000001
     38 C                     0.393090      -0.000000
     39 C                    -0.441804       0.000000
     40 C                    -0.060109      -0.000000
     41 C                    -0.252583       0.000000
     42 C                    -0.679887      -0.000000
     43 C                     0.334346      -0.000000
     44 C                    -0.491348       0.000000
     45 C                    -0.080578      -0.000000
     46 C                    -0.137517       0.000000
     47 C                    -0.466646       0.000000
     48 C                     0.228692       0.000000
     49 C                    -0.524250       0.000000
     50 C                    -0.339208      -0.000000
     51 C                    -0.241102       0.000000
     52 C                    -0.131279      -0.000000
     53 C                    -0.060815       0.000000
     54 C                    -0.494626       0.000000
     55 C                    -0.399985       0.000000
     56 H                     0.191621       0.003425
     57 H                     0.041017      -0.000227
     58 H                     0.113219      -0.000480
     59 H                     0.237343       0.000248
     60 H                     0.125977      -0.000517
     61 H                     0.047357       0.000196
     62 H                     0.175453       0.000152
     63 H                     0.138313       0.000018
     64 H                     0.286680       0.000066
     65 H                     0.199917       0.000126
     66 H                     0.228989      -0.000145
     67 H                     0.167066       0.000000
     68 H                     0.241487      -0.000010
     69 H                     0.031427       0.000015
     70 H                     0.135435       0.000001
     71 H                     0.166432      -0.000000
     72 H                     0.146976      -0.000037
     73 H                     0.205824      -0.000001
     74 H                     0.168137      -0.000002
     75 H                     0.151095      -0.000003
     76 H                     0.184380       0.000000
     77 H                     0.178197       0.000000
     78 H                     0.147354       0.000000
     79 H                     0.206173       0.000000
     80 H                     0.058232      -0.000000
     81 H                     0.133163      -0.000000
     82 H                     0.167011      -0.000000
     83 H                     0.165465      -0.000000
     84 H                     0.181901       0.000000
     85 H                     0.182419       0.000000
     86 H                     0.146833      -0.000000
     87 H                     0.181596       0.000000
     88 H                     0.062831       0.000000
     89 H                     0.132412      -0.000000
     90 H                     0.170436       0.000000
     91 H                     0.159489      -0.000000
     92 H                     0.180176       0.000000
     93 H                     0.181436       0.000000
     94 H                     0.135640      -0.000000
     95 H                     0.180866       0.000000
     96 H                     0.075922       0.000000
     97 H                     0.122718       0.000000
     98 H                     0.196122       0.000000
     99 H                     0.157998      -0.000000
    100 H                     0.179548      -0.000000
    101 H                     0.185839      -0.000000
    102 H                     0.138143      -0.000000
    103 H                     0.159269       0.000000
    104 H                     0.078310       0.000000
    105 H                     0.124634      -0.000000
    106 H                     0.175425      -0.000000
    107 H                     0.169314      -0.000000
    108 H                     0.164976       0.000000
    109 H                     0.165303       0.000000
    110 H                     0.181002      -0.000000
    111 H                     0.172603       0.000000
    112 H                     0.166900       0.000000
  --------------------------------------------------------
  Sum of atomic charges =    -1.000000

                    Cartesian Multipole Moments
 -----------------------------------------------------------------
    Charge (ESU x 10^10)
                -4.8032
    Dipole Moment (Debye)
         X      22.5632      Y     -15.2678      Z     -20.3163
       Tot      33.9846
    Quadrupole Moments (Debye-Ang)
        XX    -420.7400     XY      77.2891     YY    -364.7770
        XZ      91.4252     YZ     -53.5082     ZZ    -411.6398

 Total job time:  12344.08s(wall), 36666.96s(cpu)
        *  Thank you very much for using Q-Chem.  Have a nice day.  *
