 Gaussian 16, Revision A.03,
 Gaussian 16:  ES64L-G16RevA.03 25-Dec-2016

 --------------------------------------
 #P UB3LYP/6-311++G(d,p) nosym opt freq
 --------------------------------------

 -------
 Radical
 -------
 Symbolic Z-matrix:
 Charge = -1 Multiplicity = 2

 SCF Done:  E(UB3LYP) =  -914.782078978     A.U. after   24 cycles
 Optimization completed.
    -- Stationary point found.
 Normal termination of Gaussian 16 at Sun Jan  7 05:04:55 2024.

 ----------------------------------------------------------------------
 #P Geom=AllCheck Guess=TCheck SCRF=Check GenChk UB3LYP/6-311++G(d,p) F
 req
 ----------------------------------------------------------------------

 Structure from the checkpoint file:  "199-rad.chk"
 -------
 Radical
 -------
 Charge = -1 Multiplicity = 2

                          Input orientation:
 ---------------------------------------------------------------------
 Center     Atomic      Atomic             Coordinates (Angstroms)
 Number     Number       Type             X           Y           Z
 ---------------------------------------------------------------------
      1          8           0       -4.337428    0.965839   -1.554218
      2          6           0       -3.168654    0.557808   -0.948929
      3          6           0       -1.920988    0.974996   -1.379129
      4          6           0       -0.746296    0.540021   -0.739232
      5          6           0        0.556887    1.002059   -1.221679
      6          8           0        0.661035    1.782050   -2.198688
      7          6           0        1.729332    0.500416   -0.498078
      8          6           0        3.017428    0.904240   -0.908471
      9          6           0        4.151025    0.458092   -0.257766
     10          6           0        4.032347   -0.420852    0.842651
     11          6           0        2.785262   -0.832104    1.265567
     12          6           0        1.610996   -0.388095    0.614449
     13          6           0        0.314699   -0.834120    1.077565
     14          8           0        0.184213   -1.633836    2.076818
     15          6           0       -0.845066   -0.344265    0.369417
     16          6           0       -2.135155   -0.756753    0.790347
     17          8           0       -2.300935   -1.598746    1.840354
     18          6           0       -3.284762   -0.316614    0.145855
     19          8           0       -4.515155   -0.737724    0.582315
     20          1           0       -4.098090    1.553864   -2.277737
     21          1           0       -1.817773    1.650071   -2.223295
     22          1           0        3.080018    1.578586   -1.754880
     23          1           0        5.133078    0.781173   -0.589807
     24          1           0        4.923533   -0.771766    1.354412
     25          1           0        2.668416   -1.505501    2.106664
     26          1           0       -1.343033   -1.787112    2.152112
     27          1           0       -4.334935   -1.321728    1.333385
 ---------------------------------------------------------------------

 SCF Done:  E(UB3LYP) =  -914.782078978     A.U. after    1 cycles

 Alpha  occ. eigenvalues --  -19.05398 -19.04288 -19.02025 -18.96964 -18.95455
 Alpha  occ. eigenvalues --  -10.12749 -10.11891 -10.11536 -10.11144 -10.10571
 Alpha  occ. eigenvalues --  -10.06495 -10.06419 -10.05976 -10.05903 -10.05889
 Alpha  occ. eigenvalues --  -10.05832 -10.05801 -10.05748 -10.05397  -0.96952
 Alpha  occ. eigenvalues --   -0.95464  -0.93053  -0.88302  -0.88017  -0.74799
 Alpha  occ. eigenvalues --   -0.73517  -0.67198  -0.63965  -0.62897  -0.62620
 Alpha  occ. eigenvalues --   -0.55551  -0.54570  -0.51525  -0.49506  -0.45958
 Alpha  occ. eigenvalues --   -0.45221  -0.43643  -0.41437  -0.39208  -0.38086
 Alpha  occ. eigenvalues --   -0.36924  -0.34918  -0.33563  -0.33529  -0.31698
 Alpha  occ. eigenvalues --   -0.31267  -0.30487  -0.30069  -0.30036  -0.28651
 Alpha  occ. eigenvalues --   -0.28330  -0.27060  -0.26594  -0.26007  -0.24977
 Alpha  occ. eigenvalues --   -0.24761  -0.24183  -0.23442  -0.22373  -0.19420
 Alpha  occ. eigenvalues --   -0.14940  -0.14417  -0.13916  -0.11882  -0.11660
 Alpha  occ. eigenvalues --   -0.10477  -0.02389
 Alpha virt. eigenvalues --    0.06579   0.07798   0.07938   0.09586   0.09845
 Alpha virt. eigenvalues --    0.09901   0.11312   0.11738   0.12650   0.13508
 Alpha virt. eigenvalues --    0.14721   0.14873   0.15038   0.16342   0.16425

  Beta  occ. eigenvalues --  -19.05382 -19.04271 -19.01998 -18.96448 -18.94898
  Beta  occ. eigenvalues --  -10.12723 -10.11853 -10.11495 -10.10882 -10.10455
  Beta  occ. eigenvalues --  -10.06457 -10.06334 -10.05957 -10.05858 -10.05844
  Beta  occ. eigenvalues --  -10.05818 -10.05798 -10.05622 -10.05356  -0.96908
  Beta  occ. eigenvalues --   -0.95411  -0.92936  -0.87435  -0.87060  -0.74528
  Beta  occ. eigenvalues --   -0.73404  -0.66816  -0.63718  -0.62710  -0.62459
  Beta  occ. eigenvalues --   -0.54895  -0.54390  -0.51295  -0.49351  -0.45875
  Beta  occ. eigenvalues --   -0.45028  -0.43590  -0.41221  -0.39080  -0.37913
  Beta  occ. eigenvalues --   -0.36822  -0.34747  -0.33391  -0.33203  -0.31560
  Beta  occ. eigenvalues --   -0.31226  -0.30276  -0.29869  -0.29056  -0.28239
  Beta  occ. eigenvalues --   -0.27823  -0.26939  -0.26522  -0.25099  -0.24677
  Beta  occ. eigenvalues --   -0.24036  -0.23688  -0.22541  -0.22198  -0.18402
  Beta  occ. eigenvalues --   -0.13751  -0.13486  -0.13171  -0.11362  -0.11111
  Beta  occ. eigenvalues --   -0.09704
  Beta virt. eigenvalues --    0.03395   0.07532   0.07794   0.07930   0.09592
  Beta virt. eigenvalues --    0.09896   0.10862   0.11314   0.12089   0.12650
  Beta virt. eigenvalues --    0.13504   0.14742   0.14949   0.15031   0.16435

 Mulliken charges and spin densities:
               1          2
     1  O   -0.265301   0.004113
     2  C   -0.318971   0.011917
     3  C    0.026580   0.046528
     4  C    0.850792   0.058460
     5  C   -0.769368   0.057119
     6  O   -0.360595   0.208939
     7  C    0.001628   0.072083
     8  C    0.060685   0.000011
     9  C   -0.429286   0.071310
    10  C   -0.444673   0.027769
    11  C    0.068523   0.043266
    12  C    0.236259   0.020313
    13  C   -0.442203   0.148610
    14  O   -0.437412   0.188343
    15  C    0.643159  -0.030796
    16  C   -0.029772   0.046271
    17  O   -0.458081   0.008926
    18  C   -0.254176   0.031326
    19  O   -0.299880   0.004348
    20  H    0.259440  -0.000337
    21  H    0.122472  -0.004551
    22  H    0.154986   0.000012
    23  H    0.125715  -0.005500
    24  H    0.124884  -0.002706
    25  H    0.156828  -0.001269
    26  H    0.394861  -0.004270
    27  H    0.282907  -0.000234
 Sum of Mulliken charges =  -1.00000   1.00000

 Dipole moment (field-independent basis, Debye):
    X=              1.7688    Y=              0.2402    Z=             -0.1659  Tot=              1.7927
 Quadrupole moment (field-independent basis, Debye-Ang):
   XX=           -145.8815   YY=           -122.7755   ZZ=           -126.2969
   XY=             -5.0323   XZ=              4.0046   YZ=              8.7915

  Exact polarizability: 337.073   5.032 147.298  12.309 -64.999 178.495
 Approx polarizability: 506.260   9.975 264.205  14.762-140.727 330.909

                      1                      2                      3
                      A                      A                      A
 Frequencies --     50.1107                84.4020               130.4023
 Red. masses --      7.6613                 6.7415                 7.6828
 Frc consts  --      0.0113                 0.0283                 0.0770
 IR Inten    --      2.7060                 0.4239                 0.5291

                      4                      5                      6
                      A                      A                      A
 Frequencies --    141.2383               164.8394               185.8545
 Red. masses --      5.8245                 9.3367                 5.9951
 Frc consts  --      0.0685                 0.1495                 0.1220
 IR Inten    --      0.0074                 0.4304                 1.0748

                      7                      8                      9
                      A                      A                      A
 Frequencies --    206.5678               259.9160               282.5092
 Red. masses --      5.6150                 1.1985                 6.6677
 Frc consts  --      0.1412                 0.0477                 0.3135
 IR Inten    --      2.5167                79.5945                 3.4778

                     10                     11                     12
                      A                      A                      A
 Frequencies --    289.6529               294.5838               332.9265
 Red. masses --      5.9645                 5.7880                 7.7395
 Frc consts  --      0.2948                 0.2959                 0.5054
 IR Inten    --     20.4459                 2.1633                 1.8159

                     13                     14                     15
                      A                      A                      A
 Frequencies --    351.5401               357.8394               380.9680
 Red. masses --      3.4815                 7.5804                 8.1016
 Frc consts  --      0.2535                 0.5719                 0.6928
 IR Inten    --      2.2636                 1.0442                 6.3361

                     16                     17                     18
                      A                      A                      A
 Frequencies --    411.1341               431.1490               438.8200
 Red. masses --      9.2408                 2.0100                 3.2059
 Frc consts  --      0.9203                 0.2201                 0.3637
 IR Inten    --     35.0017                65.1405                27.6958

                     19                     20                     21
                      A                      A                      A
 Frequencies --    452.3533               489.6769               526.9280
 Red. masses --      2.4425                12.1577                 7.1247
 Frc consts  --      0.2945                 1.7176                 1.1655
 IR Inten    --     24.1377                 1.3368                16.4605

                     22                     23                     24
                      A                      A                      A
 Frequencies --    538.8971               550.0089               583.8107
 Red. masses --     10.3159                 5.4202                 5.1888
 Frc consts  --      1.7651                 0.9661                 1.0420
 IR Inten    --     12.3772                 0.0633                 3.9242

                     25                     26                     27
                      A                      A                      A
 Frequencies --    623.3352               646.4091               657.1546
 Red. masses --      8.2449                 8.2176                 6.6605
 Frc consts  --      1.8875                 2.0231                 1.6947
 IR Inten    --      9.9533                 1.2910                25.3209

                     28                     29                     30
                      A                      A                      A
 Frequencies --    693.0952               700.5399               705.9023
 Red. masses --      7.4518                 4.9014                 2.4160
 Frc consts  --      2.1091                 1.4172                 0.7093
 IR Inten    --      1.6614                 7.1488                66.9308

                     31                     32                     33
                      A                      A                      A
 Frequencies --    743.0639               773.4775               781.8871
 Red. masses --      7.5006                 2.1022                 3.2272
 Frc consts  --      2.4400                 0.7410                 1.1624
 IR Inten    --      9.2361                17.2749                 1.0423

                     34                     35                     36
                      A                      A                      A
 Frequencies --    804.4268               841.5476               864.6811
 Red. masses --      7.2847                 1.4777                 1.4663
 Frc consts  --      2.7774                 0.6166                 0.6459
 IR Inten    --     43.0299                20.5917                 0.0007

                     37                     38                     39
                      A                      A                      A
 Frequencies --    892.2482               977.1252               980.8170
 Red. masses --      6.8067                 1.2683                 1.0964
 Frc consts  --      3.1927                 0.7134                 0.6214
 IR Inten    --      3.0684                19.4452                46.6560

                     40                     41                     42
                      A                      A                      A
 Frequencies --    982.7281               996.7329              1035.0395
 Red. masses --      1.2842                 4.8789                 2.3999
 Frc consts  --      0.7307                 2.8558                 1.5148
 IR Inten    --      4.7080                63.8661                66.3356

                     43                     44                     45
                      A                      A                      A
 Frequencies --   1060.1888              1099.7867              1132.1316
 Red. masses --      3.8431                 3.8919                 2.5169
 Frc consts  --      2.5451                 2.7735                 1.9007
 IR Inten    --     68.0426                 3.3905                50.6327

                     46                     47                     48
                      A                      A                      A
 Frequencies --   1152.9838              1177.4399              1204.1727
 Red. masses --      1.2887                 1.4120                 2.0803
 Frc consts  --      1.0094                 1.1533                 1.7773
 IR Inten    --      2.9915                14.9180                99.0285

                     49                     50                     51
                      A                      A                      A
 Frequencies --   1223.6033              1252.8120              1268.9588
 Red. masses --      2.0340                 2.3150                 3.3095
 Frc consts  --      1.7942                 2.1408                 3.1398
 IR Inten    --     30.9195               294.4370               127.2553

                     52                     53                     54
                      A                      A                      A
 Frequencies --   1292.0696              1326.7326              1357.5394
 Red. masses --      2.7817                 3.5695                 6.4170
 Frc consts  --      2.7361                 3.7019                 6.9677
 IR Inten    --     30.7898               180.8084                20.9534

                     55                     56                     57
                      A                      A                      A
 Frequencies --   1359.8593              1391.0553              1422.6166
 Red. masses --      2.6394                 3.9253                 2.9257
 Frc consts  --      2.8757                 4.4751                 3.4886
 IR Inten    --     41.9239               367.7681               244.0981

                     58                     59                     60
                      A                      A                      A
 Frequencies --   1458.3716              1475.8470              1485.9331
 Red. masses --      5.6287                 2.7109                 3.3799
 Frc consts  --      7.0533                 3.4789                 4.3970
 IR Inten    --    180.1114                44.5869                13.9179

                     61                     62                     63
                      A                      A                      A
 Frequencies --   1500.9360              1541.2400              1557.7960
 Red. masses --      2.9625                 6.9472                 3.8971
 Frc consts  --      3.9322                 9.7230                 5.5720
 IR Inten    --    463.9233               278.7060               123.6866

                     64                     65                     66
                      A                      A                      A
 Frequencies --   1597.9663              1622.4960              1632.9158
 Red. masses --      4.9174                 5.7908                 5.5322
 Frc consts  --      7.3980                 8.9817                 8.6912
 IR Inten    --     24.7614                33.8490                24.9234

                     67                     68                     69
                      A                      A                      A
 Frequencies --   1664.2090              2681.7849              3136.6479
 Red. masses --      3.6419                 1.0780                 1.0847
 Frc consts  --      5.9429                 4.5681                 6.2878
 IR Inten    --     71.1394               584.8226                17.1982

                     70                     71                     72
                      A                      A                      A
 Frequencies --   3155.3561              3158.3599              3183.0033
 Red. masses --      1.0910                 1.0892                 1.0916
 Frc consts  --      6.3996                 6.4017                 6.5163
 IR Inten    --     47.6023                17.0060                13.0111

                     73                     74                     75
                      A                      A                      A
 Frequencies --   3186.3444              3746.7534              3834.7272
 Red. masses --      1.0929                 1.0649                 1.0658
 Frc consts  --      6.5377                 8.8079                 9.2339
 IR Inten    --     26.2104                69.5110                48.6419

 - Thermochemistry -
 -------------------
 Temperature   298.150 Kelvin.  Pressure   1.00000 Atm.
 Atom     1 has atomic number  8 and mass  15.99491

 Molecular mass:   256.03717 amu.
 Principal axes and moments of inertia in atomic units:
                           1         2         3
     Eigenvalues --  2299.451616581.411828880.86341
           X            0.99872  -0.01592  -0.04791
           Y            0.02765  -0.62146   0.78295
           Z            0.04224   0.78328   0.62023
 This molecule is an asymmetric top.
 Rotational symmetry number  1.
 Warning -- assumption of classical behavior for rotation
           may cause significant error
 Rotational temperatures (Kelvin)      0.03767     0.01316     0.00975
 Rotational constants (GHZ):           0.78486     0.27422     0.20322
 Zero-point vibrational energy     496324.5 (Joules/Mol)
                                  118.62441 (Kcal/Mol)
 Warning -- explicit consideration of  24 degrees of freedom as
           vibrations may cause significant error
 Vibrational temperatures:     72.10   121.44   187.62   203.21   237.17
          (Kelvin)            267.40   297.21   373.96   406.47   416.75
                              423.84   479.01   505.79   514.85   548.13
                              591.53   620.33   631.36   650.84   704.54
                              758.13   775.35   791.34   839.97   896.84
                              930.04   945.50   997.21  1007.92  1015.64
                             1069.10  1112.86  1124.96  1157.39  1210.80
                             1244.08  1283.75  1405.87  1411.18  1413.93
                             1434.08  1489.19  1525.38  1582.35  1628.88
                             1658.89  1694.07  1732.54  1760.49  1802.52
                             1825.75  1859.00  1908.87  1953.20  1956.53
                             2001.42  2046.83  2098.27  2123.41  2137.93
                             2159.51  2217.50  2241.32  2299.12  2334.41
                             2349.40  2394.43  3858.49  4512.94  4539.85
                             4544.18  4579.63  4584.44  5390.74  5517.32

 Zero-point correction=                           0.189040 (Hartree/Particle)
 Thermal correction to Energy=                    0.203601
 Thermal correction to Enthalpy=                  0.204545
 Thermal correction to Gibbs Free Energy=         0.147594
 Sum of electronic and zero-point Energies=           -914.593039
 Sum of electronic and thermal Energies=              -914.578478
 Sum of electronic and thermal Enthalpies=            -914.577534
 Sum of electronic and thermal Free Energies=         -914.634485

                     E (Thermal)             CV                S
                      KCal/Mol        Cal/Mol-Kelvin    Cal/Mol-Kelvin
 Total                  127.762             58.880            119.864
 Electronic               0.000              0.000              1.377
 Translational            0.889              2.981             42.520
 Rotational               0.889              2.981             33.263
 Vibrational            125.984             52.918             42.703
 Vibration     1          0.595              1.978              4.813
 Vibration     2          0.601              1.960              3.786
 Vibration     3          0.612              1.923              2.940
 Vibration     4          0.615              1.912              2.787
 Vibration     5          0.623              1.886              2.494
 Vibration     6          0.632              1.859              2.269
 Vibration     7          0.641              1.831              2.074
 Vibration     8          0.668              1.746              1.662
 Vibration     9          0.682              1.706              1.518
 Vibration    10          0.686              1.693              1.476
 Vibration    11          0.689              1.684              1.447
 Vibration    12          0.715              1.610              1.246
 Vibration    13          0.728              1.572              1.159
 Vibration    14          0.733              1.559              1.131
 Vibration    15          0.751              1.511              1.035
 Vibration    16          0.775              1.446              0.923
 Vibration    17          0.792              1.402              0.855
 Vibration    18          0.799              1.386              0.830
 Vibration    19          0.811              1.356              0.789
 Vibration    20          0.846              1.273              0.684
 Vibration    21          0.882              1.190              0.594
 Vibration    22          0.894              1.164              0.568
 Vibration    23          0.905              1.140              0.544
 Vibration    24          0.941              1.066              0.478

 Optimization completed.
    -- Stationary point found.
 Normal termination of Gaussian 16 at Sun Jan  7 06:36:58 2024.
