 Q-Chem 5.4, Q-Chem, Inc., Pleasanton, CA (2021)
 Q-Chem 5.4.0 for Intel X86 EM64T Linux

User input:
--------------------------------------------------------------
$molecule
-1 2
O                 -4.3374280000      0.9658390000     -1.5542180000
C                 -3.1686540000      0.5578080000     -0.9489290000
C                 -1.9209880000      0.9749960000     -1.3791290000
C                 -0.7462960000      0.5400210000     -0.7392320000
C                  0.5568870000      1.0020590000     -1.2216790000
O                  0.6610350000      1.7820500000     -2.1986880000
C                  1.7293320000      0.5004160000     -0.4980780000
C                  3.0174280000      0.9042400000     -0.9084710000
C                  4.1510250000      0.4580920000     -0.2577660000
C                  4.0323470000     -0.4208520000      0.8426510000
C                  2.7852620000     -0.8321040000      1.2655670000
C                  1.6109960000     -0.3880950000      0.6144490000
C                  0.3146990000     -0.8341200000      1.0775650000
O                  0.1842130000     -1.6338360000      2.0768180000
C                 -0.8450660000     -0.3442650000      0.3694170000
C                 -2.1351550000     -0.7567530000      0.7903470000
O                 -2.3009350000     -1.5987460000      1.8403540000
C                 -3.2847620000     -0.3166140000      0.1458550000
O                 -4.5151550000     -0.7377240000      0.5823150000
H                 -4.0980900000      1.5538640000     -2.2777370000
H                 -1.8177730000      1.6500710000     -2.2232950000
H                  3.0800180000      1.5785860000     -1.7548800000
H                  5.1330780000      0.7811730000     -0.5898070000
H                  4.9235330000     -0.7717660000      1.3544120000
H                  2.6684160000     -1.5055010000      2.1066640000
H                 -1.3430330000     -1.7871120000      2.1521120000
H                 -4.3349350000     -1.3217280000      1.3333850000
$end
$rem
MAX_SCF_CYCLES=200
BASIS  =  6-311++G(d,p)
GUI  =  2
JOB_TYPE  =  SP
METHOD  =  B3LYP
SOLVENT_METHOD = COSMO
$end
$solvent
dielectric 37.219
opticaldielectric 1.43
$end

--------------------------------------------------------------

             Standard Nuclear Orientation (Angstroms)
    I     Atom           X                Y                Z
 ----------------------------------------------------------------
    1      O       4.0628134202    -1.7575611682     0.0000336475
    2      C       2.8781836087    -1.0536087968    -0.0000119493
    3      C       1.6414257870    -1.6750735214     0.0000274348
    4      C       0.4499791690    -0.9273919910     0.0000673968
    5      C      -0.8409556574    -1.6187727967     0.0001571675
    6      O      -0.9198453298    -2.8707934440    -0.0001081191
    7      C      -2.0323141259    -0.7640585953     0.0000227383
    8      C      -3.3100175470    -1.3625245546    -0.0000533323
    9      C      -4.4606391417    -0.5986023479    -0.0000889829
   10      C      -4.3704010103     0.8118591637    -0.0000615721
   11      C      -3.1340391584     1.4239184050     0.0000010502
   12      C      -1.9427313805     0.6618258539     0.0000542573
   13      C      -0.6581907442     1.3279759718     0.0001823084
   14      O      -0.5535214977     2.6102096358     0.0000621298
   15      C       0.5200939178     0.4924332694     0.0000642285
   16      C       1.7995230370     1.1045763622    -0.0000123410
   17      O       1.9381775754     2.4535481325    -0.0000632560
   18      C       2.9659994124     0.3495787496    -0.0000609182
   19      O       4.1853198338     0.9780336844    -0.0001159422
   20      H       3.8421401811    -2.6944918548     0.0002135727
   21      H       1.5600242499    -2.7578337055     0.0000559783
   22      H      -3.3507285228    -2.4457654546    -0.0000404006
   23      H      -5.4342741101    -1.0793263852    -0.0001241458
   24      H      -5.2749760717     1.4126889235    -0.0000970452
   25      H      -3.0389269020     2.5035082939     0.0000358713
   26      H       0.9720467894     2.7953702298    -0.0000758241
   27      H       3.9856453711     1.9255441975    -0.0001606021
 ----------------------------------------------------------------

   10    -914.7820650972      7.18e-06  Convergence criterion met
 Total energy in the final basis set =     -914.7820650972
    4    -914.8670534500      9.22e-06  Convergence criterion met
 Total energy in the final basis set =     -914.8670534500

                    Orbital Energies (a.u.)
 --------------------------------------------------------------

 Alpha MOs
 -- Occupied --
-19.1607 -19.1589 -19.1411 -19.0958 -19.0831 -10.2438 -10.2389 -10.2357
-10.2338 -10.2316 -10.1794 -10.1788 -10.1778 -10.1766 -10.1743 -10.1738
-10.1729 -10.1718 -10.1704  -1.0831  -1.0662  -1.0497  -1.0107  -1.0081
 -0.8665  -0.8521  -0.7890  -0.7561  -0.7469  -0.7426  -0.6748  -0.6608
 -0.6320  -0.6099  -0.5742  -0.5658  -0.5522  -0.5308  -0.5071  -0.5000
 -0.4863  -0.4669  -0.4543  -0.4500  -0.4318  -0.4283  -0.4253  -0.4222
 -0.4216  -0.4108  -0.4024  -0.3849  -0.3836  -0.3821  -0.3684  -0.3661
 -0.3563  -0.3531  -0.3398  -0.3163  -0.2681  -0.2655  -0.2613  -0.2478
 -0.2350  -0.2247  -0.1472

 Beta MOs
 -- Occupied --
-19.1606 -19.1586 -19.1408 -19.0911 -19.0781 -10.2436 -10.2385 -10.2333
-10.2329 -10.2300 -10.1792 -10.1785 -10.1773 -10.1755 -10.1739 -10.1731
-10.1727 -10.1719 -10.1698  -1.0825  -1.0655  -1.0484  -1.0021  -0.9999
 -0.8638  -0.8509  -0.7853  -0.7531  -0.7449  -0.7411  -0.6678  -0.6592
 -0.6297  -0.6083  -0.5729  -0.5643  -0.5516  -0.5286  -0.5057  -0.4982
 -0.4852  -0.4652  -0.4502  -0.4481  -0.4305  -0.4267  -0.4228  -0.4201
 -0.4105  -0.4088  -0.3959  -0.3841  -0.3812  -0.3694  -0.3651  -0.3618
 -0.3549  -0.3453  -0.3386  -0.3058  -0.2615  -0.2543  -0.2529  -0.2431
 -0.2292  -0.2175

          Ground-State Mulliken Net Atomic Charges

     Atom                 Charge (a.u.)    Spin (a.u.)
  --------------------------------------------------------
      1 O                    -0.323394       0.004729
      2 C                    -0.444422       0.009663
      3 C                     0.099973       0.063234
      4 C                     0.800180       0.042851
      5 C                    -0.523893       0.096662
      6 O                    -0.483621       0.186727
      7 C                    -0.062970       0.047681
      8 C                     0.060907       0.016824
      9 C                    -0.516617       0.060167
     10 C                    -0.493681       0.026724
     11 C                     0.046615       0.049749
     12 C                     0.131953       0.008441
     13 C                    -0.306382       0.166828
     14 O                    -0.531660       0.170245
     15 C                     0.649137      -0.032387
     16 C                     0.029896       0.049720
     17 O                    -0.491495       0.010188
     18 C                    -0.315880       0.034804
     19 O                    -0.347781       0.005545
     20 H                     0.330963      -0.000350
     21 H                     0.168666      -0.005010
     22 H                     0.175630      -0.000489
     23 H                     0.204102      -0.004588
     24 H                     0.204116      -0.002582
     25 H                     0.184165      -0.001478
     26 H                     0.421511      -0.003693
     27 H                     0.333980      -0.000207
  --------------------------------------------------------
  Sum of atomic charges =    -1.000000

                    Cartesian Multipole Moments
 -----------------------------------------------------------------
    Charge (ESU x 10^10)
                -4.8032
    Dipole Moment (Debye)
         X      -1.2092      Y      -0.1860      Z       0.0005
       Tot       1.2234
    Quadrupole Moments (Debye-Ang)
        XX    -130.7151     XY      -9.0542     YY    -134.2547
        XZ      -0.0030     YZ      -0.0026     ZZ    -115.4386

 Total job time:  145.05s(wall), 622.76s(cpu)
        *  Thank you very much for using Q-Chem.  Have a nice day.  *
