 Gaussian 16, Revision A.03,
 Gaussian 16:  ES64L-G16RevA.03 25-Dec-2016

 --------------------------------------
 #P UB3LYP/6-311++G(d,p) nosym opt freq
 --------------------------------------

 --------
 Oxidized
 --------
 Symbolic Z-matrix:
 Charge =  0 Multiplicity = 1

 SCF Done:  E(UB3LYP) =  -1004.13126718     A.U. after   21 cycles
 SCF Done:  E(UB3LYP) =  -1004.17645044     A.U. after   17 cycles
 SCF Done:  E(UB3LYP) =  -1004.20468639     A.U. after   16 cycles
 SCF Done:  E(UB3LYP) =  -1004.22770274     A.U. after   16 cycles
 SCF Done:  E(UB3LYP) =  -1004.25103117     A.U. after   17 cycles
 SCF Done:  E(UB3LYP) =  -1004.25893992     A.U. after   15 cycles
 SCF Done:  E(UB3LYP) =  -1004.26152753     A.U. after   16 cycles
 SCF Done:  E(UB3LYP) =  -1004.26430785     A.U. after   15 cycles
 SCF Done:  E(UB3LYP) =  -1004.26539275     A.U. after   15 cycles
 SCF Done:  E(UB3LYP) =  -1004.26621916     A.U. after   14 cycles
 SCF Done:  E(UB3LYP) =  -1004.26691015     A.U. after   10 cycles
 SCF Done:  E(UB3LYP) =  -1004.26691028     A.U. after   10 cycles
 SCF Done:  E(UB3LYP) =  -1004.26691050     A.U. after   11 cycles
 SCF Done:  E(UB3LYP) =  -1004.26691077     A.U. after   11 cycles
 SCF Done:  E(UB3LYP) =  -1004.26691118     A.U. after   11 cycles
 SCF Done:  E(UB3LYP) =  -1004.26691179     A.U. after   12 cycles
 SCF Done:  E(UB3LYP) =  -1004.26691243     A.U. after   11 cycles
 SCF Done:  E(UB3LYP) =  -1004.26691290     A.U. after   10 cycles
 SCF Done:  E(UB3LYP) =  -1004.26691298     A.U. after    9 cycles
 Optimization completed.
    -- Stationary point found.
 Normal termination of Gaussian 16 at Thu Dec 21 11:32:32 2023.

 ----------------------------------------------------------------------
 #P Geom=AllCheck Guess=TCheck SCRF=Check GenChk UB3LYP/6-311++G(d,p) F
 req
 ----------------------------------------------------------------------

 Structure from the checkpoint file:  "176.chk"
 --------
 Oxidized
 --------
 Charge =  0 Multiplicity = 1

                          Input orientation:
 ---------------------------------------------------------------------
 Center     Atomic      Atomic             Coordinates (Angstroms)
 Number     Number       Type             X           Y           Z
 ---------------------------------------------------------------------
      1          7           0       -2.895932   -2.542989   -0.084000
      2          6           0       -2.570794   -1.240939    0.126642
      3          6           0       -3.601297   -0.333751    0.505518
      4          6           0       -3.347422    0.986490    0.724722
      5          6           0       -2.037990    1.531607    0.589330
      6          7           0       -1.867259    2.863694    0.792338
      7          6           0       -0.984322    0.654615    0.239766
      8          6           0        0.371249    1.185681    0.127563
      9          8           0        0.635496    2.387644    0.257351
     10          6           0        1.477895    0.237878   -0.170726
     11          6           0        1.209112   -1.108358   -0.468000
     12          6           0        2.243258   -1.980386   -0.825716
     13          6           0        3.550842   -1.524624   -0.895036
     14          6           0        3.842708   -0.194308   -0.591767
     15          6           0        2.814017    0.657058   -0.224967
     16          7           0        3.234570    2.034999    0.147283
     17          8           0        3.331947    2.275362    1.338276
     18          8           0        3.543677    2.782711   -0.765578
     19          6           0       -0.178598   -1.646404   -0.387927
     20          8           0       -0.365552   -2.846654   -0.639216
     21          6           0       -1.254093   -0.740160   -0.000808
     22          1           0       -3.855339   -2.838176   -0.028332
     23          1           0       -2.164644   -3.174166   -0.390526
     24          1           0       -4.612386   -0.712583    0.615356
     25          1           0       -4.158928    1.650875    1.003834
     26          1           0       -2.631483    3.421032    1.133553
     27          1           0       -0.929673    3.242886    0.726379
     28          1           0        1.990212   -3.009410   -1.045281
     29          1           0        4.351482   -2.197245   -1.178873
     30          1           0        4.859247    0.177621   -0.631154
 ---------------------------------------------------------------------

 SCF Done:  E(UB3LYP) =  -1004.26691298     A.U. after    2 cycles

 Alpha  occ. eigenvalues --  -19.16297 -19.16265 -19.11993 -19.11982 -14.55533
 Alpha  occ. eigenvalues --  -14.34454 -14.34301 -10.27647 -10.27445 -10.25512
 Alpha  occ. eigenvalues --  -10.25272 -10.25220 -10.22324 -10.21579 -10.21490
 Alpha  occ. eigenvalues --  -10.21218 -10.21148 -10.21020 -10.20481 -10.20430
 Alpha  occ. eigenvalues --  -10.20375  -1.24085  -1.06845  -1.05608  -1.05247
 Alpha  occ. eigenvalues --   -0.95721  -0.94723  -0.90892  -0.86253  -0.82609
 Alpha  occ. eigenvalues --   -0.81497  -0.78374  -0.75368  -0.71835  -0.69438
 Alpha  occ. eigenvalues --   -0.67351  -0.66529  -0.61792  -0.59712  -0.58482
 Alpha  occ. eigenvalues --   -0.57915  -0.55989  -0.54380  -0.53989  -0.52913
 Alpha  occ. eigenvalues --   -0.51993  -0.51476  -0.50609  -0.49396  -0.48498
 Alpha  occ. eigenvalues --   -0.47709  -0.46007  -0.45445  -0.44701  -0.43907
 Alpha  occ. eigenvalues --   -0.42291  -0.41994  -0.41697  -0.41022  -0.39730
 Alpha  occ. eigenvalues --   -0.38938  -0.38248  -0.37352  -0.32212  -0.31810
 Alpha  occ. eigenvalues --   -0.31296  -0.30179  -0.29218  -0.28449  -0.28143
 Alpha  occ. eigenvalues --   -0.27578  -0.27250  -0.20955
 Alpha virt. eigenvalues --   -0.11565  -0.08034  -0.06864  -0.04676  -0.02215
 Alpha virt. eigenvalues --   -0.01724  -0.01061  -0.00534   0.00782   0.01821
 Alpha virt. eigenvalues --    0.02198   0.02473   0.03327   0.03867   0.04298

  Beta  occ. eigenvalues --  -19.16297 -19.16265 -19.11993 -19.11982 -14.55533
  Beta  occ. eigenvalues --  -14.34454 -14.34301 -10.27647 -10.27445 -10.25512
  Beta  occ. eigenvalues --  -10.25272 -10.25220 -10.22324 -10.21579 -10.21490
  Beta  occ. eigenvalues --  -10.21218 -10.21148 -10.21020 -10.20481 -10.20430
  Beta  occ. eigenvalues --  -10.20375  -1.24085  -1.06845  -1.05608  -1.05247
  Beta  occ. eigenvalues --   -0.95721  -0.94723  -0.90892  -0.86253  -0.82609
  Beta  occ. eigenvalues --   -0.81497  -0.78374  -0.75368  -0.71835  -0.69438
  Beta  occ. eigenvalues --   -0.67351  -0.66529  -0.61792  -0.59712  -0.58482
  Beta  occ. eigenvalues --   -0.57915  -0.55989  -0.54380  -0.53989  -0.52913
  Beta  occ. eigenvalues --   -0.51993  -0.51476  -0.50609  -0.49396  -0.48498
  Beta  occ. eigenvalues --   -0.47709  -0.46007  -0.45445  -0.44701  -0.43907
  Beta  occ. eigenvalues --   -0.42291  -0.41994  -0.41697  -0.41022  -0.39730
  Beta  occ. eigenvalues --   -0.38938  -0.38248  -0.37352  -0.32212  -0.31810
  Beta  occ. eigenvalues --   -0.31296  -0.30179  -0.29218  -0.28449  -0.28143
  Beta  occ. eigenvalues --   -0.27578  -0.27250  -0.20955
  Beta virt. eigenvalues --   -0.11565  -0.08034  -0.06864  -0.04676  -0.02215
  Beta virt. eigenvalues --   -0.01724  -0.01061  -0.00534   0.00782   0.01821
  Beta virt. eigenvalues --    0.02198   0.02473   0.03327   0.03867   0.04298

 Mulliken charges and spin densities:
               1          2
     1  N   -0.406995  -0.000000
     2  C    0.032838   0.000000
     3  C   -0.354142  -0.000000
     4  C   -0.236791  -0.000000
     5  C    0.006835   0.000000
     6  N   -0.405144  -0.000000
     7  C    0.355167   0.000000
     8  C   -0.528221  -0.000000
     9  O   -0.231904   0.000000
    10  C    0.359079  -0.000000
    11  C    0.494596   0.000000
    12  C   -0.246846  -0.000000
    13  C   -0.292852   0.000000
    14  C    0.064091   0.000000
    15  C   -0.267768  -0.000000
    16  N   -0.191066   0.000000
    17  O    0.039355   0.000000
    18  O    0.038515   0.000000
    19  C   -0.478613  -0.000000
    20  O   -0.284524   0.000000
    21  C    0.420007   0.000000
    22  H    0.269167   0.000000
    23  H    0.335786   0.000000
    24  H    0.155867  -0.000000
    25  H    0.158076   0.000000
    26  H    0.268134  -0.000000
    27  H    0.343454   0.000000
    28  H    0.186311   0.000000
    29  H    0.191844   0.000000
    30  H    0.205745  -0.000000
 Sum of Mulliken charges =  -0.00000  -0.00000

 Dipole moment (field-independent basis, Debye):
    X=             -5.5457    Y=             -3.0554    Z=              0.1550  Tot=              6.3336
 Quadrupole moment (field-independent basis, Debye-Ang):
   XX=            -94.0363   YY=           -125.3899   ZZ=           -125.2217
   XY=            -17.9668   XZ=             -9.1559   YZ=              3.3515

  Exact polarizability: 314.832   2.736 238.687 -33.336  28.356 119.901
 Approx polarizability: 511.777   1.770 436.156 -60.623  50.623 219.923

                      1                      2                      3
                      A                      A                      A
 Frequencies --     21.8247                44.5482                73.5554
 Red. masses --     10.5845                 6.3417                10.6945
 Frc consts  --      0.0030                 0.0074                 0.0341
 IR Inten    --      0.3799                15.6445                 0.7097

                      4                      5                      6
                      A                      A                      A
 Frequencies --     98.3600               114.6705               141.8436
 Red. masses --      5.9711                 8.7868                 7.7959
 Frc consts  --      0.0340                 0.0681                 0.0924
 IR Inten    --     32.0694                23.3056                 3.7883

                      7                      8                      9
                      A                      A                      A
 Frequencies --    158.7078               169.2246               198.4446
 Red. masses --      3.4278                 4.7863                 1.5337
 Frc consts  --      0.0509                 0.0808                 0.0356
 IR Inten    --     31.5768                18.8829                32.9088

                     10                     11                     12
                      A                      A                      A
 Frequencies --    219.1342               235.7538               253.2273
 Red. masses --      2.0077                 4.4072                 2.4726
 Frc consts  --      0.0568                 0.1443                 0.0934
 IR Inten    --     54.3326                29.0281               105.0043

                     13                     14                     15
                      A                      A                      A
 Frequencies --    319.2196               329.3195               345.8047
 Red. masses --      5.9455                 5.7037                 3.9669
 Frc consts  --      0.3570                 0.3645                 0.2795
 IR Inten    --      2.4648                 5.4713                 0.0697

                     16                     17                     18
                      A                      A                      A
 Frequencies --    370.5745               380.6796               406.3304
 Red. masses --      7.6523                 6.5196                 7.9749
 Frc consts  --      0.6191                 0.5567                 0.7758
 IR Inten    --      0.4784                 1.1531                 0.1545

                     19                     20                     21
                      A                      A                      A
 Frequencies --    409.6262               429.6574               443.0270
 Red. masses --      5.0524                 5.8798                10.0886
 Frc consts  --      0.4995                 0.6395                 1.1667
 IR Inten    --      4.7562                 0.0486                41.2640

                     22                     23                     24
                      A                      A                      A
 Frequencies --    458.9032               488.1373               491.3605
 Red. masses --      7.2036                 3.8629                 4.3756
 Frc consts  --      0.8938                 0.5423                 0.6224
 IR Inten    --      9.2446                 1.1819                 0.9095

                     25                     26                     27
                      A                      A                      A
 Frequencies --    519.5530               571.6156               599.7259
 Red. masses --      7.2729                 2.9963                 3.5858
 Frc consts  --      1.1567                 0.5768                 0.7599
 IR Inten    --      0.1795                42.3775                11.3153

                     28                     29                     30
                      A                      A                      A
 Frequencies --    609.8569               653.7112               666.8416
 Red. masses --      4.9623                 1.2614                 1.1788
 Frc consts  --      1.0874                 0.3176                 0.3088
 IR Inten    --      3.9124                 6.9502                 9.6712

                     31                     32                     33
                      A                      A                      A
 Frequencies --    687.3476               706.6023               723.7968
 Red. masses --      3.3800                 6.7905                 8.4619
 Frc consts  --      0.9408                 1.9976                 2.6119
 IR Inten    --      9.9132                 4.0746                44.4861

                     34                     35                     36
                      A                      A                      A
 Frequencies --    730.8463               749.7368               778.3192
 Red. masses --      4.0310                 7.5067                 4.3716
 Frc consts  --      1.2686                 2.4861                 1.5603
 IR Inten    --     12.3913                 4.0257                16.2988

                     37                     38                     39
                      A                      A                      A
 Frequencies --    785.6070               795.1055               832.5793
 Red. masses --      7.4320                 4.3372                 1.9466
 Frc consts  --      2.7025                 1.6155                 0.7950
 IR Inten    --      2.5743                 3.9451                39.1249

                     40                     41                     42
                      A                      A                      A
 Frequencies --    835.2183               858.4602               901.9053
 Red. masses --      1.8860                10.3833                 7.0328
 Frc consts  --      0.7752                 4.5085                 3.3705
 IR Inten    --      4.8357                17.6646                12.7880

                     43                     44                     45
                      A                      A                      A
 Frequencies --    946.0513               948.2278               961.7104
 Red. masses --      6.4310                 1.4253                 1.3055
 Frc consts  --      3.3913                 0.7550                 0.7114
 IR Inten    --      0.5599                 0.0930                 0.0089

                     46                     47                     48
                      A                      A                      A
 Frequencies --    978.7885              1011.7764              1026.3446
 Red. masses --      4.2355                 1.3313                 2.0450
 Frc consts  --      2.3908                 0.8030                 1.2692
 IR Inten    --      6.1122                 0.5361                39.3909

                     49                     50                     51
                      A                      A                      A
 Frequencies --   1090.5030              1093.8144              1161.1129
 Red. masses --      2.2296                 1.6129                 2.0416
 Frc consts  --      1.5622                 1.1369                 1.6217
 IR Inten    --     13.6200                12.5773                24.0521

                     52                     53                     54
                      A                      A                      A
 Frequencies --   1172.8663              1191.6381              1203.6852
 Red. masses --      2.2408                 1.8046                 1.2635
 Frc consts  --      1.8162                 1.5098                 1.0786
 IR Inten    --      1.1067                 2.6824               110.6712

                     55                     56                     57
                      A                      A                      A
 Frequencies --   1233.3033              1282.2870              1314.0126
 Red. masses --      2.0677                 5.6038                 4.2948
 Frc consts  --      1.8530                 5.4288                 4.3691
 IR Inten    --      2.9350               692.1489                 6.0849

                     58                     59                     60
                      A                      A                      A
 Frequencies --   1324.6356              1349.0301              1377.4400
 Red. masses --      2.3412                 8.4280                 3.1885
 Frc consts  --      2.4203                 9.0368                 3.5644
 IR Inten    --     39.2822                 1.4322                 0.5772

                     61                     62                     63
                      A                      A                      A
 Frequencies --   1411.9417              1435.8732              1444.7059
 Red. masses --     13.6666                 4.9514                 5.3914
 Frc consts  --     16.0525                 6.0146                 6.6299
 IR Inten    --    132.8173                96.8078                41.5340

                     64                     65                     66
                      A                      A                      A
 Frequencies --   1467.5506              1478.9141              1487.0050
 Red. masses --      2.3854                 3.4464                 2.5217
 Frc consts  --      3.0269                 4.4412                 3.2853
 IR Inten    --     10.5679                 2.0245                 4.0279

                     67                     68                     69
                      A                      A                      A
 Frequencies --   1565.3885              1571.9705              1605.3104
 Red. masses --      2.2983                 5.2860                 1.8040
 Frc consts  --      3.3182                 7.6961                 2.7390
 IR Inten    --     13.5726               115.6877               646.7985

                     70                     71                     72
                      A                      A                      A
 Frequencies --   1605.7673              1608.8892              1626.1451
 Red. masses --      4.7180                12.1688                 4.5575
 Frc consts  --      7.1676                18.5589                 7.1005
 IR Inten    --     14.9418               340.4359                54.8925

                     73                     74                     75
                      A                      A                      A
 Frequencies --   1643.0840              1668.3790              1692.1809
 Red. masses --      2.6660                 6.8681                 8.1185
 Frc consts  --      4.2407                11.2636                13.6968
 IR Inten    --    284.3022               189.3557                17.8648

                     76                     77                     78
                      A                      A                      A
 Frequencies --   3155.9233              3173.0382              3182.1566
 Red. masses --      1.0865                 1.0958                 1.0882
 Frc consts  --      6.3760                 6.5004                 6.4923
 IR Inten    --      7.7808                18.2286                 3.9648

                     79                     80                     81
                      A                      A                      A
 Frequencies --   3198.2389              3210.3069              3494.0294
 Red. masses --      1.0938                 1.0939                 1.0543
 Frc consts  --      6.5918                 6.6421                 7.5833
 IR Inten    --      1.2273                 4.4462                 5.7688

                     82                     83                     84
                      A                      A                      A
 Frequencies --   3496.8623              3696.9500              3699.5411
 Red. masses --      1.0540                 1.0966                 1.0966
 Frc consts  --      7.5935                 8.8308                 8.8431
 IR Inten    --    106.7920                70.8913                88.8731

 - Thermochemistry -
 -------------------
 Temperature   298.150 Kelvin.  Pressure   1.00000 Atm.
 Atom     1 has atomic number  7 and mass  14.00307

 Molecular mass:   283.05931 amu.
 Principal axes and moments of inertia in atomic units:
                           1         2         3
     Eigenvalues --  3435.749406735.448019896.83973
           X            0.95701  -0.25765   0.13322
           Y            0.28240   0.93247  -0.22526
           Z           -0.06619   0.25320   0.96515
 This molecule is an asymmetric top.
 Rotational symmetry number  1.
 Warning -- assumption of classical behavior for rotation
           may cause significant error
 Rotational temperatures (Kelvin)      0.02521     0.01286     0.00875
 Rotational constants (GHZ):           0.52528     0.26795     0.18236
 Zero-point vibrational energy     561623.7 (Joules/Mol)
                                  134.23128 (Kcal/Mol)
 Warning -- explicit consideration of  28 degrees of freedom as
           vibrations may cause significant error
 Vibrational temperatures:     31.40    64.09   105.83   141.52   164.99
          (Kelvin)            204.08   228.35   243.48   285.52   315.29
                              339.20   364.34   459.29   473.82   497.54
                              533.17   547.71   584.62   589.36   618.18
                              637.42   660.26   702.32   706.96   747.52
                              822.43   862.87   877.45   940.54   959.44
                              988.94  1016.64  1041.38  1051.52  1078.70
                             1119.83  1130.31  1143.98  1197.90  1201.69
                             1235.13  1297.64  1361.16  1364.29  1383.69
                             1408.26  1455.72  1476.68  1568.99  1573.75
                             1670.58  1687.49  1714.50  1731.83  1774.45
                             1844.92  1890.57  1905.86  1940.95  1981.83
                             2031.47  2065.90  2078.61  2111.48  2127.83
                             2139.47  2252.24  2261.71  2309.68  2310.34
                             2314.83  2339.66  2364.03  2400.43  2434.67
                             4540.67  4565.29  4578.41  4601.55  4618.92
                             5027.13  5031.20  5319.09  5322.81

 Zero-point correction=                           0.213911 (Hartree/Particle)
 Thermal correction to Energy=                    0.230868
 Thermal correction to Enthalpy=                  0.231812
 Thermal correction to Gibbs Free Energy=         0.168839
 Sum of electronic and zero-point Energies=          -1004.053002
 Sum of electronic and thermal Energies=             -1004.036045
 Sum of electronic and thermal Enthalpies=           -1004.035101
 Sum of electronic and thermal Free Energies=        -1004.098074

                     E (Thermal)             CV                S
                      KCal/Mol        Cal/Mol-Kelvin    Cal/Mol-Kelvin
 Total                  144.872             66.195            132.538
 Electronic               0.000              0.000              0.000
 Translational            0.889              2.981             42.819
 Rotational               0.889              2.981             33.793
 Vibrational            143.094             60.234             55.926
 Vibration     1          0.593              1.985              6.461
 Vibration     2          0.595              1.980              5.046
 Vibration     3          0.599              1.966              4.056
 Vibration     4          0.604              1.950              3.487
 Vibration     5          0.608              1.937              3.188
 Vibration     6          0.615              1.911              2.779
 Vibration     7          0.621              1.893              2.565
 Vibration     8          0.625              1.880              2.444
 Vibration     9          0.637              1.842              2.147
 Vibration    10          0.647              1.812              1.966
 Vibration    11          0.655              1.786              1.835
 Vibration    12          0.664              1.757              1.708
 Vibration    13          0.705              1.637              1.314
 Vibration    14          0.712              1.617              1.263
 Vibration    15          0.724              1.584              1.185
 Vibration    16          0.743              1.533              1.077
 Vibration    17          0.750              1.511              1.036
 Vibration    18          0.771              1.456              0.940
 Vibration    19          0.774              1.449              0.928
 Vibration    20          0.791              1.406              0.860
 Vibration    21          0.803              1.376              0.817
 Vibration    22          0.817              1.341              0.769
 Vibration    23          0.844              1.276              0.688
 Vibration    24          0.847              1.269              0.680
 Vibration    25          0.875              1.207              0.611
 Vibration    26          0.928              1.093              0.501
 Vibration    27          0.958              1.032              0.450
 Vibration    28          0.969              1.011              0.433

 Optimization completed.
    -- Stationary point found.
 Normal termination of Gaussian 16 at Thu Dec 21 13:12:56 2023.
