 Gaussian 16, Revision A.03,
 Gaussian 16:  ES64L-G16RevA.03 25-Dec-2016

 --------------------------------------
 #P UB3LYP/6-311++G(d,p) nosym opt freq
 --------------------------------------

 --------
 Oxidized
 --------
 Symbolic Z-matrix:
 Charge = -1 Multiplicity = 1

 SCF Done:  E(UB3LYP) =  -3941.24756043     A.U. after   18 cycles
 SCF Done:  E(UB3LYP) =  -3941.25305645     A.U. after   16 cycles
 SCF Done:  E(UB3LYP) =  -3941.25897066     A.U. after   14 cycles
 SCF Done:  E(UB3LYP) =  -3941.26124528     A.U. after   15 cycles
 SCF Done:  E(UB3LYP) =  -3941.26286322     A.U. after   15 cycles
 SCF Done:  E(UB3LYP) =  -3941.26394452     A.U. after   15 cycles
 SCF Done:  E(UB3LYP) =  -3941.26389822     A.U. after   15 cycles
 SCF Done:  E(UB3LYP) =  -3941.26437268     A.U. after   13 cycles
 SCF Done:  E(UB3LYP) =  -3941.26438676     A.U. after   14 cycles
 SCF Done:  E(UB3LYP) =  -3941.26443785     A.U. after   12 cycles
 SCF Done:  E(UB3LYP) =  -3941.26451984     A.U. after   14 cycles
 SCF Done:  E(UB3LYP) =  -3941.26451840     A.U. after   14 cycles
 SCF Done:  E(UB3LYP) =  -3941.26451016     A.U. after   15 cycles
 SCF Done:  E(UB3LYP) =  -3941.26452153     A.U. after   13 cycles
 SCF Done:  E(UB3LYP) =  -3941.26452335     A.U. after   12 cycles
 SCF Done:  E(UB3LYP) =  -3941.26452552     A.U. after   12 cycles
 SCF Done:  E(UB3LYP) =  -3941.26452627     A.U. after   13 cycles
 SCF Done:  E(UB3LYP) =  -3941.26452690     A.U. after   12 cycles
 SCF Done:  E(UB3LYP) =  -3941.26452701     A.U. after   10 cycles
 Optimization completed.
    -- Stationary point found.
 Normal termination of Gaussian 16 at Thu Dec 21 15:26:21 2023.

 ----------------------------------------------------------------------
 #P Geom=AllCheck Guess=TCheck SCRF=Check GenChk UB3LYP/6-311++G(d,p) F
 req
 ----------------------------------------------------------------------

 Structure from the checkpoint file:  "163.chk"
 --------
 Oxidized
 --------
 Charge = -1 Multiplicity = 1

                          Input orientation:
 ---------------------------------------------------------------------
 Center     Atomic      Atomic             Coordinates (Angstroms)
 Number     Number       Type             X           Y           Z
 ---------------------------------------------------------------------
      1          6           0       -1.794287    1.964204   -5.137858
      2          6           0       -1.740509    0.631902   -5.524027
      3          6           0       -1.432121   -0.359411   -4.585094
      4          6           0       -1.532320    2.323801   -3.809662
      5          6           0       -1.225679    1.333945   -2.872886
      6          6           0       -1.181961   -0.009818   -3.265425
      7          6           0       -1.597735    3.760910   -3.415805
      8          6           0       -0.961035    1.681155   -1.446140
      9          6           0       -1.245401    4.132322   -2.050165
     10          6           0       -0.873877    3.126127   -1.084458
     11          6           0       -1.227389    5.523194   -1.692093
     12          6           0       -0.828907    5.876329   -0.361055
     13          6           0       -0.431196    4.908161    0.518902
     14          6           0       -0.453687    3.544234    0.175663
     15          8           0       -1.935677    4.581313   -4.285448
     16          8           0       -0.829942    0.777726   -0.633013
     17          1           0       -2.036946    2.750132   -5.841819
     18          1           0       -1.939453    0.358933   -6.555011
     19          1           0       -1.391076   -1.400334   -4.887673
     20          1           0       -0.949656   -0.755639   -2.515420
     21         35           0        0.164788    2.387412    1.582847
     22          7           0       -1.555612    6.497689   -2.553464
     23         16           0       -0.932317    7.607973    0.258530
     24          8           0       -0.484923    8.427223   -0.907970
     25          8           0       -2.366394    7.774034    0.578449
     26          8           0       -0.019066    7.642360    1.417029
     27          1           0       -0.103824    5.215592    1.503764
     28          1           0       -1.801605    6.229159   -3.496777
     29          1           0       -1.350082    7.456992   -2.270541
 ---------------------------------------------------------------------

 SCF Done:  E(UB3LYP) =  -3941.26452701     A.U. after    1 cycles

 Alpha  occ. eigenvalues -- -482.73753 -88.92330 -62.39030 -56.21072 -56.20696
 Alpha  occ. eigenvalues --  -56.20643 -19.03221 -19.02680 -18.96673 -18.96492
 Alpha  occ. eigenvalues --  -18.96263 -14.22757 -10.18858 -10.18151 -10.15341
 Alpha  occ. eigenvalues --  -10.14990 -10.12331 -10.12287 -10.12255 -10.12229
 Alpha  occ. eigenvalues --  -10.12161 -10.11730 -10.11584 -10.10969 -10.10591
 Alpha  occ. eigenvalues --  -10.10036  -8.60000  -7.98167  -6.43156  -6.41904
 Alpha  occ. eigenvalues --   -6.41749  -5.94421  -5.94418  -5.94389  -2.54248
 Alpha  occ. eigenvalues --   -2.53920  -2.53802  -2.52804  -2.52802  -0.98622
 Alpha  occ. eigenvalues --   -0.96860  -0.95915  -0.85451  -0.84779  -0.84164
 Alpha  occ. eigenvalues --   -0.80755  -0.78362  -0.73014  -0.70448  -0.69609
 Alpha  occ. eigenvalues --   -0.68497  -0.64057  -0.59538  -0.58190  -0.56447
 Alpha  occ. eigenvalues --   -0.52858  -0.49906  -0.48894  -0.47388  -0.45410
 Alpha  occ. eigenvalues --   -0.43379  -0.41661  -0.40844  -0.39595  -0.37960
 Alpha  occ. eigenvalues --   -0.37345  -0.36982  -0.36507  -0.36120  -0.35434
 Alpha  occ. eigenvalues --   -0.34098  -0.32741  -0.32443  -0.32104  -0.31668
 Alpha  occ. eigenvalues --   -0.31171  -0.30127  -0.29261  -0.28472  -0.28446
 Alpha  occ. eigenvalues --   -0.25783  -0.21368  -0.20855  -0.20708  -0.20418
 Alpha  occ. eigenvalues --   -0.19738  -0.19615  -0.19593  -0.18566  -0.17472
 Alpha  occ. eigenvalues --   -0.17142  -0.16021  -0.15877  -0.12740  -0.12340
 Alpha virt. eigenvalues --   -0.02330   0.01856   0.04902   0.05061   0.06896
 Alpha virt. eigenvalues --    0.07199   0.07259   0.08455   0.10157   0.10537
 Alpha virt. eigenvalues --    0.11485   0.11556   0.11867   0.12045   0.12793

  Beta  occ. eigenvalues -- -482.73753 -88.92330 -62.39030 -56.21072 -56.20696
  Beta  occ. eigenvalues --  -56.20643 -19.03221 -19.02680 -18.96673 -18.96492
  Beta  occ. eigenvalues --  -18.96263 -14.22757 -10.18858 -10.18151 -10.15341
  Beta  occ. eigenvalues --  -10.14990 -10.12331 -10.12287 -10.12255 -10.12229
  Beta  occ. eigenvalues --  -10.12161 -10.11730 -10.11584 -10.10969 -10.10591
  Beta  occ. eigenvalues --  -10.10036  -8.60000  -7.98167  -6.43156  -6.41904
  Beta  occ. eigenvalues --   -6.41749  -5.94421  -5.94418  -5.94389  -2.54248
  Beta  occ. eigenvalues --   -2.53920  -2.53802  -2.52804  -2.52802  -0.98622
  Beta  occ. eigenvalues --   -0.96860  -0.95915  -0.85451  -0.84779  -0.84164
  Beta  occ. eigenvalues --   -0.80755  -0.78362  -0.73014  -0.70448  -0.69609
  Beta  occ. eigenvalues --   -0.68497  -0.64057  -0.59538  -0.58190  -0.56447
  Beta  occ. eigenvalues --   -0.52858  -0.49906  -0.48894  -0.47388  -0.45410
  Beta  occ. eigenvalues --   -0.43379  -0.41661  -0.40844  -0.39595  -0.37960
  Beta  occ. eigenvalues --   -0.37345  -0.36982  -0.36507  -0.36120  -0.35434
  Beta  occ. eigenvalues --   -0.34098  -0.32741  -0.32443  -0.32104  -0.31668
  Beta  occ. eigenvalues --   -0.31171  -0.30127  -0.29261  -0.28472  -0.28446
  Beta  occ. eigenvalues --   -0.25783  -0.21368  -0.20855  -0.20708  -0.20418
  Beta  occ. eigenvalues --   -0.19738  -0.19615  -0.19593  -0.18566  -0.17472
  Beta  occ. eigenvalues --   -0.17142  -0.16021  -0.15877  -0.12740  -0.12340
  Beta virt. eigenvalues --   -0.02330   0.01856   0.04902   0.05061   0.06896
  Beta virt. eigenvalues --    0.07199   0.07259   0.08455   0.10157   0.10537
  Beta virt. eigenvalues --    0.11485   0.11556   0.11867   0.12045   0.12793

 Mulliken charges and spin densities:
               1          2
     1  C    0.182454  -0.000000
     2  C   -0.422809   0.000000
     3  C   -0.317115  -0.000000
     4  C   -0.107787  -0.000000
     5  C    0.215560   0.000000
     6  C    0.147864   0.000000
     7  C   -0.454301  -0.000000
     8  C   -1.210444  -0.000000
     9  C    0.287396   0.000000
    10  C    0.827522  -0.000000
    11  C    0.276320   0.000000
    12  C   -0.716538  -0.000000
    13  C   -0.233313   0.000000
    14  C    0.319173   0.000000
    15  O   -0.287839   0.000000
    16  O   -0.156499   0.000000
    17  H    0.177425   0.000000
    18  H    0.154652   0.000000
    19  H    0.152466  -0.000000
    20  H    0.175632  -0.000000
    21  Br  -0.174336  -0.000000
    22  N   -0.399893  -0.000000
    23  S    0.463612   0.000000
    24  O   -0.342450  -0.000000
    25  O   -0.245291  -0.000000
    26  O   -0.231404  -0.000000
    27  H    0.277120  -0.000000
    28  H    0.339763   0.000000
    29  H    0.303060   0.000000
 Sum of Mulliken charges =  -1.00000  -0.00000

 Dipole moment (field-independent basis, Debye):
    X=              4.7776    Y=            -31.0982    Z=             -1.0733  Tot=             31.4813
 Quadrupole moment (field-independent basis, Debye-Ang):
   XX=           -163.5048   YY=           -387.6640   ZZ=           -159.1754
   XY=             31.8690   XZ=             -1.1433   YZ=             -5.7503

  Exact polarizability: 140.642  -6.470 335.246  46.365  50.779 304.760
 Approx polarizability: 239.611 -23.262 532.237  82.089  19.043 503.086

                      1                      2                      3
                      A                      A                      A
 Frequencies --     16.0452                32.3703                46.4228
 Red. masses --      8.6627                12.6281                12.9165
 Frc consts  --      0.0013                 0.0078                 0.0164
 IR Inten    --      0.3955                 1.7652                 0.1137

                      4                      5                      6
                      A                      A                      A
 Frequencies --     83.1452               107.6535               121.8820
 Red. masses --      9.0519                 5.8299                 7.1421
 Frc consts  --      0.0369                 0.0398                 0.0625
 IR Inten    --      3.6656                 0.5240                 0.8432

                      7                      8                      9
                      A                      A                      A
 Frequencies --    130.4871               139.9066               171.1137
 Red. masses --     12.5744                12.0217                 8.4102
 Frc consts  --      0.1261                 0.1386                 0.1451
 IR Inten    --      2.3994                 1.0563                 1.3305

                     10                     11                     12
                      A                      A                      A
 Frequencies --    211.1524               226.7731               242.9193
 Red. masses --      9.9387                11.1700                10.4175
 Frc consts  --      0.2611                 0.3384                 0.3622
 IR Inten    --      3.2564                 0.2517                 1.8454

                     13                     14                     15
                      A                      A                      A
 Frequencies --    259.0961               271.2708               318.6251
 Red. masses --     11.1534                 6.2658                 9.0656
 Frc consts  --      0.4411                 0.2717                 0.5423
 IR Inten    --      2.8391                 1.0221                 7.7184

                     16                     17                     18
                      A                      A                      A
 Frequencies --    362.8073               386.8832               401.4502
 Red. masses --      6.2397                 9.6751                 7.6952
 Frc consts  --      0.4839                 0.8532                 0.7307
 IR Inten    --      1.4035                 0.2585                 2.7315

                     19                     20                     21
                      A                      A                      A
 Frequencies --    413.3177               430.7427               444.7585
 Red. masses --      8.1327                 3.6768                 6.8379
 Frc consts  --      0.8186                 0.4019                 0.7969
 IR Inten    --     13.8329                 4.0507                 2.3768

                     22                     23                     24
                      A                      A                      A
 Frequencies --    447.7823               480.7488               490.8603
 Red. masses --      9.0664                 8.0490                 6.1100
 Frc consts  --      1.0711                 1.0960                 0.8674
 IR Inten    --     18.1906                 3.3496                 3.1660

                     25                     26                     27
                      A                      A                      A
 Frequencies --    505.6053               526.6130               531.4237
 Red. masses --      8.9156                 7.3524                 6.2889
 Frc consts  --      1.3428                 1.2013                 1.0464
 IR Inten    --     17.9766                 7.4312                33.9206

                     28                     29                     30
                      A                      A                      A
 Frequencies --    592.3052               605.9264               611.5297
 Red. masses --      6.0395                 2.3724                 2.2131
 Frc consts  --      1.2484                 0.5132                 0.4876
 IR Inten    --     14.9819               111.6086               222.1862

                     31                     32                     33
                      A                      A                      A
 Frequencies --    632.2105               675.4919               679.9816
 Red. masses --      6.3093                 6.1493                 4.5887
 Frc consts  --      1.4858                 1.6532                 1.2501
 IR Inten    --      2.6504                53.2473                 3.6906

                     34                     35                     36
                      A                      A                      A
 Frequencies --    717.4978               725.6701               729.2978
 Red. masses --      9.0931                 5.2383                 3.7922
 Frc consts  --      2.7581                 1.6252                 1.1884
 IR Inten    --     38.5306                13.4198                22.1180

                     37                     38                     39
                      A                      A                      A
 Frequencies --    749.7063               789.2482               804.8183
 Red. masses --      3.3189                 1.2446                 3.4365
 Frc consts  --      1.0991                 0.4568                 1.3115
 IR Inten    --     55.2839                 7.4911                 3.9015

                     40                     41                     42
                      A                      A                      A
 Frequencies --    811.4417               813.9610               903.8971
 Red. masses --      2.5935                 6.8546                 5.2318
 Frc consts  --      1.0061                 2.6757                 2.5185
 IR Inten    --      8.0301                23.2641                20.1681

                     43                     44                     45
                      A                      A                      A
 Frequencies --    906.6824               941.6950               952.2548
 Red. masses --      1.5430                 1.3281                 8.1230
 Frc consts  --      0.7474                 0.6939                 4.3398
 IR Inten    --      2.4698                 7.5269                 4.5981

                     46                     47                     48
                      A                      A                      A
 Frequencies --    980.0434               995.3918              1005.2402
 Red. masses --     11.1940                 1.3786                 1.2976
 Frc consts  --      6.3347                 0.8048                 0.7726
 IR Inten    --    319.1049                 2.3173                 0.0282

                     49                     50                     51
                      A                      A                      A
 Frequencies --   1034.3043              1058.4025              1112.2424
 Red. masses --      4.2549                 1.9363                 2.1670
 Frc consts  --      2.6819                 1.2780                 1.5795
 IR Inten    --     30.8818                 1.2952                 1.5337

                     52                     53                     54
                      A                      A                      A
 Frequencies --   1123.3336              1153.8326              1162.2987
 Red. masses --      3.7427                 6.1439                 2.4324
 Frc consts  --      2.7826                 4.8193                 1.9361
 IR Inten    --    118.7556                86.7225               137.9291

                     55                     56                     57
                      A                      A                      A
 Frequencies --   1179.5106              1193.7053              1204.6396
 Red. masses --      1.3253                 2.5913                 7.5722
 Frc consts  --      1.0863                 2.1755                 6.4742
 IR Inten    --     58.5209                65.4499               229.1691

                     58                     59                     60
                      A                      A                      A
 Frequencies --   1257.6573              1280.0464              1301.9926
 Red. masses --      1.8745                 3.9313                 1.9644
 Frc consts  --      1.7469                 3.7953                 1.9620
 IR Inten    --     71.1502               471.3241                16.7459

                     61                     62                     63
                      A                      A                      A
 Frequencies --   1353.6405              1356.0524              1365.7512
 Red. masses --      5.8123                 5.8908                 4.5286
 Frc consts  --      6.2749                 6.3823                 4.9769
 IR Inten    --     18.7217                21.6601                15.4857

                     64                     65                     66
                      A                      A                      A
 Frequencies --   1409.6491              1450.3431              1479.2050
 Red. masses --      6.0011                 3.3661                 2.5068
 Frc consts  --      7.0260                 4.1717                 3.2317
 IR Inten    --    132.4099               168.1262                 6.7951

                     67                     68                     69
                      A                      A                      A
 Frequencies --   1506.2794              1532.0701              1572.4276
 Red. masses --      2.6088                 5.2572                 4.2532
 Frc consts  --      3.4874                 7.2704                 6.1959
 IR Inten    --      1.0422                50.6022               141.8453

                     70                     71                     72
                      A                      A                      A
 Frequencies --   1613.0660              1629.6202              1636.0943
 Red. masses --      7.1186                 6.3347                 1.7272
 Frc consts  --     10.9132                 9.9117                 2.7240
 IR Inten    --     57.3782               101.8614               168.8854

                     73                     74                     75
                      A                      A                      A
 Frequencies --   1655.2634              1706.0369              3156.4210
 Red. masses --      7.2987                12.1158                 1.0863
 Frc consts  --     11.7823                20.7767                 6.3764
 IR Inten    --    113.0258               202.1553                 7.0290

                     76                     77                     78
                      A                      A                      A
 Frequencies --   3173.3317              3198.3170              3201.9141
 Red. masses --      1.0925                 1.0923                 1.0929
 Frc consts  --      6.4819                 6.5829                 6.6013
 IR Inten    --     34.2056                 5.9709                14.3989

                     79                     80                     81
                      A                      A                      A
 Frequencies --   3203.4433              3377.2348              3573.0843
 Red. masses --      1.0908                 1.0573                 1.0974
 Frc consts  --      6.5952                 7.1053                 8.2548
 IR Inten    --      5.8270               413.4424               146.5670

 - Thermochemistry -
 -------------------
 Temperature   298.150 Kelvin.  Pressure   1.00000 Atm.
 Atom     1 has atomic number  6 and mass  12.00000

 Molecular mass:   379.92283 amu.
 Principal axes and moments of inertia in atomic units:
                           1         2         3
     Eigenvalues --  5952.25578********************
           X            0.08034   0.29461   0.95223
           Y            0.82362  -0.55770   0.10306
           Z            0.56142   0.77600  -0.28745
 This molecule is an asymmetric top.
 Rotational symmetry number  1.
 Warning -- assumption of classical behavior for rotation
           may cause significant error
 Rotational temperatures (Kelvin)      0.01455     0.00772     0.00516
 Rotational constants (GHZ):           0.30320     0.16092     0.10753
 Zero-point vibrational energy     494281.2 (Joules/Mol)
                                  118.13604 (Kcal/Mol)
 Warning -- explicit consideration of  30 degrees of freedom as
           vibrations may cause significant error
 Vibrational temperatures:     23.09    46.57    66.79   119.63   154.89
          (Kelvin)            175.36   187.74   201.29   246.19   303.80
                              326.28   349.51   372.78   390.30   458.43
                              522.00   556.64   577.60   594.67   619.74
                              639.91   644.26   691.69   706.24   727.45
                              757.68   764.60   852.20   871.79   879.85
                              909.61   971.88   978.34  1032.32  1044.08
                             1049.30  1078.66  1135.55  1157.95  1167.48
                             1171.11  1300.51  1304.51  1354.89  1370.08
                             1410.06  1432.15  1446.32  1488.13  1522.81
                             1600.27  1616.23  1660.11  1672.29  1697.05
                             1717.48  1733.21  1809.49  1841.70  1873.28
                             1947.59  1951.06  1965.01  2028.17  2086.72
                             2128.25  2167.20  2204.31  2262.37  2320.84
                             2344.66  2353.97  2381.55  2454.61  4541.39
                             4565.72  4601.66  4606.84  4609.04  4859.09
                             5140.87

 Zero-point correction=                           0.188262 (Hartree/Particle)
 Thermal correction to Energy=                    0.206109
 Thermal correction to Enthalpy=                  0.207054
 Thermal correction to Gibbs Free Energy=         0.140076
 Sum of electronic and zero-point Energies=          -3941.076265
 Sum of electronic and thermal Energies=             -3941.058418
 Sum of electronic and thermal Enthalpies=           -3941.057473
 Sum of electronic and thermal Free Energies=        -3941.124451

                     E (Thermal)             CV                S
                      KCal/Mol        Cal/Mol-Kelvin    Cal/Mol-Kelvin
 Total                  129.336             68.519            140.966
 Electronic               0.000              0.000              0.000
 Translational            0.889              2.981             43.697
 Rotational               0.889              2.981             35.370
 Vibrational            127.558             62.558             61.899
 Vibration     1          0.593              1.986              7.072
 Vibration     2          0.594              1.983              5.679
 Vibration     3          0.595              1.979              4.964
 Vibration     4          0.600              1.961              3.815
 Vibration     5          0.606              1.943              3.311
 Vibration     6          0.609              1.931              3.070
 Vibration     7          0.612              1.923              2.939
 Vibration     8          0.615              1.913              2.805
 Vibration     9          0.626              1.878              2.423
 Vibration    10          0.643              1.824              2.034
 Vibration    11          0.650              1.800              1.904
 Vibration    12          0.659              1.774              1.781
 Vibration    13          0.668              1.747              1.668
 Vibration    14          0.675              1.726              1.588
 Vibration    15          0.705              1.638              1.317
 Vibration    16          0.737              1.549              1.110
 Vibration    17          0.755              1.498              1.012
 Vibration    18          0.767              1.467              0.957
 Vibration    19          0.777              1.441              0.915
 Vibration    20          0.792              1.403              0.856
 Vibration    21          0.804              1.372              0.812
 Vibration    22          0.807              1.366              0.803
 Vibration    23          0.837              1.293              0.708
 Vibration    24          0.847              1.270              0.681
 Vibration    25          0.861              1.238              0.644
 Vibration    26          0.882              1.191              0.595
 Vibration    27          0.886              1.180              0.584
 Vibration    28          0.950              1.048              0.463
 Vibration    29          0.965              1.019              0.440
 Vibration    30          0.971              1.007              0.430

 Optimization completed.
    -- Stationary point found.
 Normal termination of Gaussian 16 at Thu Dec 21 17:03:03 2023.
