 Q-Chem 5.4, Q-Chem, Inc., Pleasanton, CA (2021)
 Q-Chem 5.4.0 for Intel X86 EM64T Linux

User input:
--------------------------------------------------------------
$molecule
0 1
C                 -0.0612050000      1.0504870000     -1.0111950000
C                 -1.0230590000      0.3116710000     -0.3291830000
C                 -0.6746600000     -0.8970460000      0.2763480000
C                  1.2509590000      0.5770620000     -1.0859150000
C                  1.6045070000     -0.6387600000     -0.4778620000
C                  0.6336990000     -1.3715900000      0.2025720000
C                  2.2814360000      1.3476980000     -1.8049530000
C                  3.6682790000      0.8001920000     -1.8501370000
C                  4.0305330000     -0.3756820000     -1.2809600000
C                  3.0122320000     -1.1596580000     -0.5511260000
O                  2.0712420000      2.4146930000     -2.3707120000
O                  3.3025060000     -2.2198270000     -0.0143240000
O                  4.5380110000      1.5754530000     -2.5177520000
H                 -0.3074330000      1.9906650000     -1.4893210000
H                 -2.0422070000      0.6754390000     -0.2685170000
H                 -1.4255560000     -1.4710930000      0.8073060000
H                  0.9206070000     -2.3071570000      0.6663440000
H                  4.0259350000      2.3427770000     -2.8372200000
C                  5.4382530000     -0.8994290000     -1.3348060000
C                  6.2757330000     -0.4882520000     -0.1049220000
H                  5.9233140000     -0.5312040000     -2.2422840000
H                  5.3998710000     -1.9903500000     -1.3872290000
H                  5.7785740000     -0.8494200000      0.8015330000
H                  6.3045220000      0.6053500000     -0.0385790000
C                  7.7040500000     -1.0383390000     -0.1610390000
C                  8.5490750000     -0.6378420000      1.0636230000
C                  9.9607060000     -1.1784190000      1.0166660000
C                 10.9918850000     -0.4531520000      0.4080380000
C                 10.2728360000     -2.4325780000      1.5514950000
C                 11.5625210000     -2.9536610000      1.4748870000
C                 12.5671520000     -2.2134850000      0.8595000000
C                 12.2883620000     -0.9546230000      0.3296940000
O                 13.8518540000     -2.7305090000      0.8881180000
C                 14.6292860000     -2.7475570000     -0.2519020000
C                 14.0971550000     -2.8868990000     -1.5344040000
C                 16.0100580000     -2.6922480000     -0.0604230000
C                 16.8606610000     -2.7722920000     -1.1591440000
C                 14.9610670000     -2.9596900000     -2.6261420000
C                 16.3420720000     -2.9026560000     -2.4475950000
H                  8.2012720000     -0.6834430000     -1.0716600000
H                  7.6738900000     -2.1317650000     -0.2338000000
H                  8.0513820000     -0.9947850000      1.9718610000
H                  8.5789860000      0.4550740000      1.1349080000
H                 10.7831840000      0.5307560000     -0.0006530000
H                  9.4968350000     -3.0144050000      2.0389470000
H                 11.8038110000     -3.9228140000      1.8948090000
H                 13.0782560000     -0.3736380000     -0.1310120000
H                 13.0251720000     -2.9406380000     -1.6759420000
H                 16.3950350000     -2.5904440000      0.9470310000
H                 17.9332310000     -2.7283830000     -1.0064040000
H                 14.5465640000     -3.0694670000     -3.6221670000
H                 17.0064380000     -2.9611930000     -3.3016160000
$end

$rem
BASIS  =  6-311++G(d,p)
GUI  =  2
JOB_TYPE  =  SP
METHOD  =  B3LYP
SCF_CONVERGENCE  = 8
SOLVENT_METHOD = sm12
$end

$smx
solvent dimethylformamide
charges CM5
$end

--------------------------------------------------------------

             Standard Nuclear Orientation (Angstroms)
    I     Atom           X                Y                Z
 ----------------------------------------------------------------
    1      C      -0.0612050000     1.0504870000    -1.0111950000
    2      C      -1.0230590000     0.3116710000    -0.3291830000
    3      C      -0.6746600000    -0.8970460000     0.2763480000
    4      C       1.2509590000     0.5770620000    -1.0859150000
    5      C       1.6045070000    -0.6387600000    -0.4778620000
    6      C       0.6336990000    -1.3715900000     0.2025720000
    7      C       2.2814360000     1.3476980000    -1.8049530000
    8      C       3.6682790000     0.8001920000    -1.8501370000
    9      C       4.0305330000    -0.3756820000    -1.2809600000
   10      C       3.0122320000    -1.1596580000    -0.5511260000
   11      O       2.0712420000     2.4146930000    -2.3707120000
   12      O       3.3025060000    -2.2198270000    -0.0143240000
   13      O       4.5380110000     1.5754530000    -2.5177520000
   14      H      -0.3074330000     1.9906650000    -1.4893210000
   15      H      -2.0422070000     0.6754390000    -0.2685170000
   16      H      -1.4255560000    -1.4710930000     0.8073060000
   17      H       0.9206070000    -2.3071570000     0.6663440000
   18      H       4.0259350000     2.3427770000    -2.8372200000
   19      C       5.4382530000    -0.8994290000    -1.3348060000
   20      C       6.2757330000    -0.4882520000    -0.1049220000
   21      H       5.9233140000    -0.5312040000    -2.2422840000
   22      H       5.3998710000    -1.9903500000    -1.3872290000
   23      H       5.7785740000    -0.8494200000     0.8015330000
   24      H       6.3045220000     0.6053500000    -0.0385790000
   25      C       7.7040500000    -1.0383390000    -0.1610390000
   26      C       8.5490750000    -0.6378420000     1.0636230000
   27      C       9.9607060000    -1.1784190000     1.0166660000
   28      C      10.9918850000    -0.4531520000     0.4080380000
   29      C      10.2728360000    -2.4325780000     1.5514950000
   30      C      11.5625210000    -2.9536610000     1.4748870000
   31      C      12.5671520000    -2.2134850000     0.8595000000
   32      C      12.2883620000    -0.9546230000     0.3296940000
   33      O      13.8518540000    -2.7305090000     0.8881180000
   34      C      14.6292860000    -2.7475570000    -0.2519020000
   35      C      14.0971550000    -2.8868990000    -1.5344040000
   36      C      16.0100580000    -2.6922480000    -0.0604230000
   37      C      16.8606610000    -2.7722920000    -1.1591440000
   38      C      14.9610670000    -2.9596900000    -2.6261420000
   39      C      16.3420720000    -2.9026560000    -2.4475950000
   40      H       8.2012720000    -0.6834430000    -1.0716600000
   41      H       7.6738900000    -2.1317650000    -0.2338000000
   42      H       8.0513820000    -0.9947850000     1.9718610000
   43      H       8.5789860000     0.4550740000     1.1349080000
   44      H      10.7831840000     0.5307560000    -0.0006530000
   45      H       9.4968350000    -3.0144050000     2.0389470000
   46      H      11.8038110000    -3.9228140000     1.8948090000
   47      H      13.0782560000    -0.3736380000    -0.1310120000
   48      H      13.0251720000    -2.9406380000    -1.6759420000
   49      H      16.3950350000    -2.5904440000     0.9470310000
   50      H      17.9332310000    -2.7283830000    -1.0064040000
   51      H      14.5465640000    -3.0694670000    -3.6221670000
   52      H      17.0064380000    -2.9611930000    -3.3016160000
 ----------------------------------------------------------------

   15   -1305.2694231585      7.43e-09  Convergence criterion met
 Total energy in the final basis set =    -1305.3024157667

                    Orbital Energies (a.u.)
 --------------------------------------------------------------

 Alpha MOs
 -- Occupied --
-19.1789 -19.1700 -19.1485 -19.1261 -10.2924 -10.2783 -10.2674 -10.2471
-10.2417 -10.2108 -10.2094 -10.2043 -10.2008 -10.1988 -10.1970 -10.1969
-10.1862 -10.1856 -10.1853 -10.1836 -10.1830 -10.1818 -10.1817 -10.1814
-10.1809 -10.1788 -10.1775 -10.1727 -10.1703 -10.1682  -1.1090  -1.0887
 -1.0668  -1.0594  -0.8921  -0.8744  -0.8613  -0.8448  -0.8101  -0.7904
 -0.7795  -0.7704  -0.7614  -0.7582  -0.7482  -0.7201  -0.6929  -0.6662
 -0.6528  -0.6359  -0.6285  -0.6197  -0.6117  -0.6045  -0.5895  -0.5808
 -0.5736  -0.5569  -0.5421  -0.5183  -0.5125  -0.4985  -0.4953  -0.4838
 -0.4814  -0.4789  -0.4723  -0.4667  -0.4639  -0.4547  -0.4521  -0.4491
 -0.4450  -0.4361  -0.4353  -0.4324  -0.4255  -0.4193  -0.4154  -0.4096
 -0.4066  -0.4009  -0.3942  -0.3916  -0.3794  -0.3758  -0.3745  -0.3712
 -0.3684  -0.3640  -0.3519  -0.3491  -0.3437  -0.3377  -0.3331  -0.3305
 -0.3022  -0.2892  -0.2793  -0.2768  -0.2704  -0.2645  -0.2594  -0.2554
 -0.2296

          Ground-State Mulliken Net Atomic Charges

     Atom                 Charge (a.u.)
  ----------------------------------------
      1 C                     0.428026
      2 C                     0.370275
      3 C                     0.377289
      4 C                     0.338240
      5 C                    -0.557855
      6 C                     0.007336
      7 C                    -1.040645
      8 C                    -0.525409
      9 C                     1.597037
     10 C                    -1.537250
     11 O                    -0.294697
     12 O                    -0.279567
     13 O                    -0.192373
     14 H                     0.217167
     15 H                     0.327026
     16 H                     0.315892
     17 H                     0.183787
     18 H                     0.293096
     19 C                    -0.256670
     20 C                    -0.564190
     21 H                     0.232198
     22 H                     0.183241
     23 H                     0.110237
     24 H                     0.139322
     25 C                    -0.196987
     26 C                    -0.066224
     27 C                     1.227403
     28 C                    -0.271534
     29 C                    -0.454448
     30 C                    -0.259508
     31 C                    -1.389410
     32 C                     0.062869
     33 O                    -0.006845
     34 C                    -0.854895
     35 C                     0.140998
     36 C                    -0.209431
     37 C                    -0.150028
     38 C                    -0.004185
     39 C                    -0.230191
     40 H                     0.118952
     41 H                     0.118734
     42 H                     0.196622
     43 H                     0.206075
     44 H                     0.241462
     45 H                     0.236555
     46 H                     0.230952
     47 H                     0.224219
     48 H                     0.213889
     49 H                     0.216101
     50 H                     0.271630
     51 H                     0.276718
     52 H                     0.238992
  ----------------------------------------
  Sum of atomic charges =     0.000001

                    Cartesian Multipole Moments
 -----------------------------------------------------------------
    Charge (ESU x 10^10)
                -0.0000
    Dipole Moment (Debye)
         X      -4.2244      Y       1.3557      Z      -0.3803
       Tot       4.4529
    Quadrupole Moments (Debye-Ang)
        XX    -196.7618     XY      15.2908     YY    -185.1428
        XZ     -15.7006     YZ       2.1923     ZZ    -175.4559

 Total job time:  2782.41s(wall), 19800.84s(cpu)
        *  Thank you very much for using Q-Chem.  Have a nice day.  *
