 Q-Chem 5.4, Q-Chem, Inc., Pleasanton, CA (2021)
 Q-Chem 5.4.0 for Intel X86 EM64T Linux

User input:
--------------------------------------------------------------
$molecule
-1 2
Cl                 2.9961170000      2.8649360000      0.3373660000
C                  2.6218980000      1.1322400000      0.2631820000
C                  3.7261710000      0.3057710000      0.3436600000
C                  3.5667800000     -1.0906300000      0.2966680000
C                  2.3050860000     -1.6253420000      0.1702430000
C                  1.1648050000     -0.8002310000      0.0865570000
C                 -0.1307540000     -1.4744790000     -0.0460420000
O                 -0.2201620000     -2.7276280000     -0.0833920000
C                 -1.3063980000     -0.6162860000     -0.1322480000
C                 -2.5868400000     -1.1994860000     -0.2614550000
C                 -3.7201760000     -0.4169960000     -0.3456780000
C                 -3.6071110000      0.9897670000     -0.3027770000
C                 -2.3642560000      1.5778100000     -0.1768050000
C                 -1.1904230000      0.7976160000     -0.0888910000
C                  0.1018290000      1.4892440000      0.0439180000
O                  0.1432090000      2.7383800000      0.0765760000
C                  1.2957200000      0.6339230000      0.1318120000
H                  4.7094740000      0.7484980000      0.4428210000
H                  4.4395690000     -1.7327720000      0.3605090000
H                  2.1381980000     -2.6947850000      0.1301980000
H                 -2.6398680000     -2.2816010000     -0.2913870000
H                 -4.6973320000     -0.8805590000     -0.4447310000
H                 -4.4974860000      1.6080530000     -0.3688640000
H                 -2.2480480000      2.6545580000     -0.1412400000
$end

$rem
BASIS  =  6-311++G(d,p)
GUI  =  2
JOB_TYPE  =  SP
METHOD  =  B3LYP
SCF_CONVERGENCE  = 8
SOLVENT_METHOD = sm12
$end

$smx
solvent dimethylformamide
charges CM5
$end

--------------------------------------------------------------

             Standard Nuclear Orientation (Angstroms)
    I     Atom           X                Y                Z
 ----------------------------------------------------------------
    1      Cl      2.9961170000     2.8649360000     0.3373660000
    2      C       2.6218980000     1.1322400000     0.2631820000
    3      C       3.7261710000     0.3057710000     0.3436600000
    4      C       3.5667800000    -1.0906300000     0.2966680000
    5      C       2.3050860000    -1.6253420000     0.1702430000
    6      C       1.1648050000    -0.8002310000     0.0865570000
    7      C      -0.1307540000    -1.4744790000    -0.0460420000
    8      O      -0.2201620000    -2.7276280000    -0.0833920000
    9      C      -1.3063980000    -0.6162860000    -0.1322480000
   10      C      -2.5868400000    -1.1994860000    -0.2614550000
   11      C      -3.7201760000    -0.4169960000    -0.3456780000
   12      C      -3.6071110000     0.9897670000    -0.3027770000
   13      C      -2.3642560000     1.5778100000    -0.1768050000
   14      C      -1.1904230000     0.7976160000    -0.0888910000
   15      C       0.1018290000     1.4892440000     0.0439180000
   16      O       0.1432090000     2.7383800000     0.0765760000
   17      C       1.2957200000     0.6339230000     0.1318120000
   18      H       4.7094740000     0.7484980000     0.4428210000
   19      H       4.4395690000    -1.7327720000     0.3605090000
   20      H       2.1381980000    -2.6947850000     0.1301980000
   21      H      -2.6398680000    -2.2816010000    -0.2913870000
   22      H      -4.6973320000    -0.8805590000    -0.4447310000
   23      H      -4.4974860000     1.6080530000    -0.3688640000
   24      H      -2.2480480000     2.6545580000    -0.1412400000
 ----------------------------------------------------------------

   18   -1148.6309484767      4.79e-09  Convergence criterion met
 Total energy in the final basis set =    -1148.7157198711

                    Orbital Energies (a.u.)
 --------------------------------------------------------------

 Alpha MOs
 -- Occupied --
******** -19.0791 -19.0782 -10.2426 -10.2339 -10.2287 -10.1956 -10.1874
-10.1867 -10.1862 -10.1839 -10.1832 -10.1818 -10.1810 -10.1800 -10.1794
-10.1793  -9.4599  -7.2244  -7.2152  -7.2141  -1.0095  -1.0053  -0.8898
 -0.8657  -0.8372  -0.7953  -0.7593  -0.7514  -0.7421  -0.6751  -0.6485
 -0.6298  -0.5929  -0.5615  -0.5464  -0.5340  -0.4813  -0.4787  -0.4710
 -0.4666  -0.4350  -0.4335  -0.4329  -0.4232  -0.4147  -0.4103  -0.3910
 -0.3888  -0.3836  -0.3639  -0.3577  -0.3532  -0.3448  -0.3290  -0.3112
 -0.2762  -0.2650  -0.2613  -0.2546  -0.2476  -0.2345  -0.1473

 Beta MOs
 -- Occupied --
******** -19.0732 -19.0722 -10.2427 -10.2328 -10.2272 -10.1947 -10.1868
-10.1857 -10.1856 -10.1835 -10.1827 -10.1810 -10.1804 -10.1799 -10.1795
-10.1793  -9.4599  -7.2244  -7.2151  -7.2141  -0.9993  -0.9949  -0.8885
 -0.8638  -0.8360  -0.7914  -0.7574  -0.7494  -0.7401  -0.6681  -0.6468
 -0.6272  -0.5921  -0.5593  -0.5440  -0.5327  -0.4788  -0.4774  -0.4694
 -0.4658  -0.4346  -0.4332  -0.4219  -0.4218  -0.4089  -0.4071  -0.3871
 -0.3854  -0.3637  -0.3633  -0.3564  -0.3432  -0.3431  -0.3232  -0.3105
 -0.2601  -0.2564  -0.2530  -0.2465  -0.2421  -0.2293

          Ground-State Mulliken Net Atomic Charges

     Atom                 Charge (a.u.)    Spin (a.u.)
  --------------------------------------------------------
      1 Cl                    0.631536      -0.000367
      2 C                     0.823211       0.017838
      3 C                     1.761704       0.053389
      4 C                     0.748465       0.045719
      5 C                     0.338250       0.028412
      6 C                    -0.746108       0.047430
      7 C                    -2.286852       0.076627
      8 O                    -0.296582       0.223803
      9 C                    -1.017868       0.011314
     10 C                    -0.052302       0.034834
     11 C                     0.970277       0.024044
     12 C                     0.891765       0.041250
     13 C                     0.113799       0.019115
     14 C                    -0.952209       0.053586
     15 C                    -2.706184       0.048295
     16 O                    -0.188258       0.225278
     17 C                    -0.919620       0.067389
     18 H                     0.330198      -0.003800
     19 H                     0.370461      -0.003437
     20 H                     0.152339      -0.001887
     21 H                     0.157691      -0.002074
     22 H                     0.361340      -0.002022
     23 H                     0.356425      -0.003272
     24 H                     0.158521      -0.001465
  --------------------------------------------------------
  Sum of atomic charges =    -1.000000

                    Cartesian Multipole Moments
 -----------------------------------------------------------------
    Charge (ESU x 10^10)
                -4.8032
    Dipole Moment (Debye)
         X      -0.8938      Y      -1.4787      Z      -0.1146
       Tot       1.7316
    Quadrupole Moments (Debye-Ang)
        XX    -110.4442     XY      -8.4977     YY    -141.6045
        XZ      -0.0638     YZ      -1.4531     ZZ    -112.0412

 Total job time:  569.75s(wall), 4184.07s(cpu)
        *  Thank you very much for using Q-Chem.  Have a nice day.  *
