 Q-Chem 5.4, Q-Chem, Inc., Pleasanton, CA (2021)
 Q-Chem 5.4.0 for Intel X86 EM64T Linux

User input:
--------------------------------------------------------------
$molecule
-2 1
C                 -2.9562180000     -2.0586690000     -0.0354480000
C                 -2.3267830000     -0.6778730000     -0.0487510000
C                 -3.1876980000      0.3975090000     -0.0966040000
C                 -2.7053590000      1.7312010000     -0.1130150000
C                 -1.3554030000      2.0079690000     -0.0819060000
C                 -0.9558870000      3.4718260000     -0.1037540000
C                 -0.3952840000      0.9298430000     -0.0312980000
C                  1.0238770000      1.2262420000      0.0012030000
O                  1.5126110000      2.4228340000     -0.0118090000
C                  1.9020650000      0.0791010000      0.0507240000
C                  3.3061720000      0.2849610000      0.0844800000
C                  4.2045360000     -0.7612900000      0.1321560000
C                  3.7199360000     -2.1011990000      0.1485660000
C                  2.3598390000     -2.3316720000      0.1166920000
C                  1.4118790000     -1.2762080000      0.0674880000
C                  0.0027430000     -1.5970850000      0.0363670000
O                 -0.3870490000     -2.8294260000      0.0536850000
C                 -0.8988230000     -0.4623900000     -0.0139790000
H                 -2.6689540000     -2.6272600000      0.8511150000
H                 -2.6190060000     -2.6666820000     -0.8770510000
H                 -4.0518430000     -1.9548680000     -0.0693310000
H                 -4.2620180000      0.2181960000     -0.1225220000
H                 -3.4166860000      2.5555430000     -0.1510210000
H                 -0.3157270000      3.7052200000     -0.9566790000
H                 -0.3629560000      3.7439170000      0.7715380000
H                 -1.8646930000      4.0921990000     -0.1425170000
H                  3.6379300000      1.3186800000      0.0706230000
H                  5.2760770000     -0.5662970000      0.1570340000
H                  4.4190990000     -2.9358300000      0.1860730000
H                  1.9536230000     -3.3384880000      0.1279390000
$end
$rem
MAX_SCF_CYCLES=200
BASIS  =  6-311++G(d,p)
GUI  =  2
JOB_TYPE  =  SP
METHOD  =  B3LYP
SOLVENT_METHOD = COSMO
$end
$solvent
dielectric 37.219
opticaldielectric 1.43
$end

--------------------------------------------------------------

             Standard Nuclear Orientation (Angstroms)
    I     Atom           X                Y                Z
 ----------------------------------------------------------------
    1      C      -2.2837714269    -2.9407019681    -0.0003914912
    2      C      -2.1613629383    -1.4280952483    -0.0001556333
    3      C      -3.3373454804    -0.7090848128    -0.0003728054
    4      C      -3.3373183828     0.7092432764    -0.0002580977
    5      C      -2.1612869587     1.4282005323    -0.0000311677
    6      C      -2.2834898951     2.9408254388    -0.0001744433
    7      C      -0.8910286788     0.7403130395     0.0001564165
    8      C       0.3434368858     1.5012475777     0.0003137139
    9      O       0.3961380229     2.7927912905     0.0005917924
   10      C       1.5600759591     0.7206143119     0.0001233524
   11      C       2.8111731061     1.3912782855    -0.0000716287
   12      C       4.0124611475     0.7123976183    -0.0004089826
   13      C       4.0124195123    -0.7125453762    -0.0006013312
   14      C       2.8111115401    -1.3914096180    -0.0002819407
   15      C       1.5600240089    -0.7207134885     0.0000945325
   16      C       0.3433390069    -1.5012724404     0.0004953472
   17      O       0.3959252158    -2.7928360214     0.0010087125
   18      C      -0.8910772467    -0.7402828512     0.0002249878
   19      H      -1.7910936407    -3.3880093656     0.8650534667
   20      H      -1.7884490534    -3.3879569864    -0.8642815569
   21      H      -3.3500371539    -3.2152780613    -0.0018795447
   22      H      -4.2871934911    -1.2427297613    -0.0008002853
   23      H      -4.2871239290     1.2429470405    -0.0003378940
   24      H      -1.7894543029     3.3879243913    -0.8649229620
   25      H      -1.7892951606     3.3881143007     0.8643722626
   26      H      -3.3496985298     3.2155848266    -0.0001425249
   27      H       2.7715879467     2.4762959636     0.0000356794
   28      H       4.9543383757     1.2598540568    -0.0005948634
   29      H       4.9542675989    -1.2600548872    -0.0009160032
   30      H       2.7714844780    -2.4764193332    -0.0003547836
 ----------------------------------------------------------------

   11    -767.5644502369      4.82e-06  Convergence criterion met
 Total energy in the final basis set =     -767.5644502369
    6    -767.8313803626      2.62e-06  Convergence criterion met
 Total energy in the final basis set =     -767.8313803626

                    Orbital Energies (a.u.)
 --------------------------------------------------------------

 Alpha MOs
 -- Occupied --
-19.0163 -19.0162 -10.1752 -10.1752 -10.1549 -10.1549 -10.1496 -10.1492
-10.1455 -10.1455 -10.1421 -10.1418 -10.1379 -10.1374 -10.1370 -10.1370
-10.1352 -10.1348  -0.9377  -0.9342  -0.8264  -0.8214  -0.7577  -0.7511
 -0.7222  -0.7028  -0.6861  -0.6476  -0.6164  -0.5996  -0.5878  -0.5436
 -0.5100  -0.5049  -0.4765  -0.4436  -0.4323  -0.4297  -0.4257  -0.4009
 -0.3985  -0.3872  -0.3833  -0.3785  -0.3684  -0.3673  -0.3664  -0.3566
 -0.3458  -0.3359  -0.3234  -0.3204  -0.3134  -0.3121  -0.3000  -0.2984
 -0.2301  -0.2238  -0.2156  -0.2147  -0.1965  -0.1910  -0.1054

          Ground-State Mulliken Net Atomic Charges

     Atom                 Charge (a.u.)
  ----------------------------------------
      1 C                    -0.355845
      2 C                     0.815042
      3 C                    -0.464611
      4 C                    -0.465992
      5 C                     0.815760
      6 C                    -0.355970
      7 C                     0.147372
      8 C                    -0.898253
      9 O                    -0.653139
     10 C                     0.084828
     11 C                    -0.018710
     12 C                    -0.562109
     13 C                    -0.561920
     14 C                    -0.019313
     15 C                     0.085062
     16 C                    -0.898196
     17 O                    -0.653338
     18 C                     0.150291
     19 H                     0.154104
     20 H                     0.153886
     21 H                     0.131311
     22 H                     0.127437
     23 H                     0.127389
     24 H                     0.154131
     25 H                     0.153836
     26 H                     0.131256
     27 H                     0.159872
     28 H                     0.177942
     29 H                     0.177980
     30 H                     0.159896
  ----------------------------------------
  Sum of atomic charges =    -2.000000

                    Cartesian Multipole Moments
 -----------------------------------------------------------------
    Charge (ESU x 10^10)
                -9.6064
    Dipole Moment (Debye)
         X      -3.1090      Y       0.0006      Z      -0.0028
       Tot       3.1090
    Quadrupole Moments (Debye-Ang)
        XX    -134.5183     XY       0.0041     YY    -168.2488
        XZ      -0.0007     YZ      -0.0009     ZZ    -118.9360

 Total job time:  89.79s(wall), 693.86s(cpu)
        *  Thank you very much for using Q-Chem.  Have a nice day.  *
