 Q-Chem 5.4, Q-Chem, Inc., Pleasanton, CA (2021)
 Q-Chem 5.4.0 for Intel X86 EM64T Linux

User input:
--------------------------------------------------------------
$molecule
-1 2
C                 -1.2160590000      2.8516290000      0.0180900000
C                 -2.5012300000      2.3503070000      0.0165190000
C                 -2.7335720000      0.9630670000      0.0150150000
C                 -0.1039200000      1.9824140000      0.0182230000
C                 -0.3276150000      0.5796980000      0.0167090000
C                 -1.6503700000      0.1026540000      0.0151310000
C                  1.2426170000      2.5622400000      0.0199260000
C                  2.3236540000      1.5927330000      0.0199110000
C                  2.1113030000      0.2274670000      0.0184490000
C                  0.8011950000     -0.3656660000      0.0167700000
O                  1.4374270000      3.8075680000      0.0212080000
O                  0.6277920000     -1.6123550000      0.0154910000
H                 -1.0183570000      3.9202990000      0.0192670000
H                 -1.7921740000     -0.9723660000      0.0139940000
O                  3.5726410000      2.1627170000      0.0214890000
O                 -3.6148940000      3.1769170000      0.0163460000
H                 -3.7538730000      0.5958620000      0.0137970000
H                  2.9363850000     -0.4740110000      0.0184930000
C                  4.6940310000      1.3083840000      0.0214990000
H                 -3.3036680000      4.0878460000      0.0174640000
H                  5.5691170000      1.9606840000      0.0227880000
H                  4.7215540000      0.6683940000     -0.8700120000
H                  4.7202240000      0.6666640000      0.9118060000
$end
$rem
MAX_SCF_CYCLES=200
BASIS  =  6-311++G(d,p)
GUI  =  2
JOB_TYPE  =  SP
METHOD  =  B3LYP
SOLVENT_METHOD = COSMO
$end
$solvent
dielectric 37.219
opticaldielectric 1.43
$end

--------------------------------------------------------------

             Standard Nuclear Orientation (Angstroms)
    I     Atom           X                Y                Z
 ----------------------------------------------------------------
    1      C       1.7576458328    -1.1686699817     0.0000106746
    2      C       2.9684554226    -0.5076625297    -0.0000148281
    3      C       3.0221251694     0.8978763146    -0.0000295051
    4      C       0.5438079956    -0.4482634339     0.0000221792
    5      C       0.5869291076     0.9715233428     0.0000046925
    6      C       1.8381100800     1.6132401274    -0.0000189486
    7      C      -0.7178634354    -1.1949549243     0.0000549676
    8      C      -1.9136331712    -0.3711105475     0.0000381396
    9      C      -1.8769912731     1.0100859290     0.0000281942
   10      C      -0.6531475948     1.7653337009     0.0000012752
   11      O      -0.7523911799    -2.4549558133     0.0000115413
   12      O      -0.6400257570     3.0239565655     0.0000310204
   13      H       1.6977378237    -2.2538216140     0.0000246700
   14      H       1.8417666010     2.6975667836    -0.0000338924
   15      O      -3.0798040233    -1.0956092156     0.0000369136
   16      O       4.1783766061    -1.1856170684    -0.0000252974
   17      H       3.9873148100     1.3921071143    -0.0000492674
   18      H      -2.7847373195     1.6007032403     0.0000348910
   19      C      -4.3009209037    -0.3911420738    -0.0000962263
   20      H       3.9857689142    -2.1287802531    -0.0000183042
   21      H      -5.0857492452    -1.1496385671    -0.0001497263
   22      H      -4.4091393651     0.2410430814    -0.8910324041
   23      H      -4.4093107661     0.2410889261     0.8907869233
 ----------------------------------------------------------------

   11    -725.1347497658      5.36e-06  Convergence criterion met
 Total energy in the final basis set =     -725.1347497658
    5    -725.2312336863      5.43e-06  Convergence criterion met
 Total energy in the final basis set =     -725.2312336863

                    Orbital Energies (a.u.)
 --------------------------------------------------------------

 Alpha MOs
 -- Occupied --
-19.1561 -19.1556 -19.0821 -19.0785 -10.2374 -10.2308 -10.2282 -10.2250
-10.2134 -10.1793 -10.1752 -10.1721 -10.1702 -10.1694 -10.1583  -1.0714
 -1.0614  -1.0044  -1.0027  -0.8599  -0.8049  -0.7545  -0.7446  -0.7140
 -0.6665  -0.6341  -0.6032  -0.5698  -0.5498  -0.5231  -0.5074  -0.4764
 -0.4698  -0.4694  -0.4377  -0.4287  -0.4245  -0.4229  -0.4154  -0.4091
 -0.4031  -0.3876  -0.3840  -0.3678  -0.3482  -0.3403  -0.3372  -0.3247
 -0.2670  -0.2524  -0.2520  -0.2447  -0.2295  -0.1528

 Beta MOs
 -- Occupied --
-19.1555 -19.1553 -19.0754 -19.0735 -10.2373 -10.2294 -10.2269 -10.2225
-10.2135 -10.1789 -10.1754 -10.1716 -10.1696 -10.1688 -10.1574  -1.0694
 -1.0612  -0.9951  -0.9913  -0.8578  -0.8002  -0.7525  -0.7427  -0.7115
 -0.6591  -0.6329  -0.6003  -0.5667  -0.5492  -0.5213  -0.5052  -0.4735
 -0.4688  -0.4655  -0.4358  -0.4282  -0.4207  -0.4181  -0.4109  -0.4053
 -0.3930  -0.3867  -0.3664  -0.3608  -0.3473  -0.3357  -0.3350  -0.3109
 -0.2532  -0.2463  -0.2395  -0.2377  -0.2246

          Ground-State Mulliken Net Atomic Charges

     Atom                 Charge (a.u.)    Spin (a.u.)
  --------------------------------------------------------
      1 C                     0.334315       0.087747
      2 C                    -0.599678       0.004489
      3 C                    -0.219183       0.039959
      4 C                     0.535850       0.013432
      5 C                     0.016727       0.016478
      6 C                     0.176868       0.004823
      7 C                    -0.634517       0.152413
      8 C                    -0.377902       0.117264
      9 C                     0.428757       0.049537
     10 C                    -0.335212       0.079811
     11 O                    -0.532241       0.251252
     12 O                    -0.534225       0.176034
     13 H                     0.162198      -0.005526
     14 H                     0.183234      -0.000689
     15 O                    -0.226138       0.017949
     16 O                    -0.315548       0.002643
     17 H                     0.224536      -0.003094
     18 H                     0.214056      -0.006530
     19 C                    -0.361347      -0.000351
     20 H                     0.320855      -0.000156
     21 H                     0.201824      -0.000138
     22 H                     0.168381       0.001326
     23 H                     0.168392       0.001327
  --------------------------------------------------------
  Sum of atomic charges =    -1.000000

                    Cartesian Multipole Moments
 -----------------------------------------------------------------
    Charge (ESU x 10^10)
                -4.8032
    Dipole Moment (Debye)
         X       0.8527      Y      -1.5417      Z      -0.0011
       Tot       1.7618
    Quadrupole Moments (Debye-Ang)
        XX     -86.8327     XY      -7.3323     YY    -125.9531
        XZ       0.0007     YZ       0.0013     ZZ     -91.9787

 Total job time:  67.65s(wall), 517.67s(cpu)
        *  Thank you very much for using Q-Chem.  Have a nice day.  *
