 Gaussian 16, Revision A.03,
 Gaussian 16:  ES64L-G16RevA.03 25-Dec-2016

 --------------------------------------
 #P UB3LYP/6-311++G(d,p) nosym opt freq
 --------------------------------------

 -------
 Radical
 -------
 Symbolic Z-matrix:
 Charge = -1 Multiplicity = 2

 SCF Done:  E(UB3LYP) =  -5764.64974681     A.U. after   20 cycles
 SCF Done:  E(UB3LYP) =  -5764.66943953     A.U. after   18 cycles
 SCF Done:  E(UB3LYP) =  -5764.67475450     A.U. after   18 cycles
 SCF Done:  E(UB3LYP) =  -5764.67964763     A.U. after   18 cycles
 SCF Done:  E(UB3LYP) =  -5764.68190988     A.U. after   19 cycles
 SCF Done:  E(UB3LYP) =  -5764.68380736     A.U. after   17 cycles
 SCF Done:  E(UB3LYP) =  -5764.68401109     A.U. after   15 cycles
 SCF Done:  E(UB3LYP) =  -5764.68438716     A.U. after   15 cycles
 SCF Done:  E(UB3LYP) =  -5764.68434734     A.U. after   15 cycles
 SCF Done:  E(UB3LYP) =  -5764.68420018     A.U. after   15 cycles
 SCF Done:  E(UB3LYP) =  -5764.68441227     A.U. after   14 cycles
 SCF Done:  E(UB3LYP) =  -5764.68441997     A.U. after   13 cycles
 SCF Done:  E(UB3LYP) =  -5764.68442024     A.U. after   11 cycles
 SCF Done:  E(UB3LYP) =  -5764.68442030     A.U. after   10 cycles
 Optimization completed.
    -- Stationary point found.
 Normal termination of Gaussian 16 at Sun Dec 17 21:52:12 2023.

 ----------------------------------------------------------------------
 #P Geom=AllCheck Guess=TCheck SCRF=Check GenChk UB3LYP/6-311++G(d,p) F
 req
 ----------------------------------------------------------------------

 Structure from the checkpoint file:  "020-rad.chk"
 -------
 Radical
 -------
 Charge = -1 Multiplicity = 2

                          Input orientation:
 ---------------------------------------------------------------------
 Center     Atomic      Atomic             Coordinates (Angstroms)
 Number     Number       Type             X           Y           Z
 ---------------------------------------------------------------------
      1          6           0       -2.028892    0.361465    1.532911
      2          6           0       -2.913151    1.197180    0.710461
      3          6           0       -2.519731    1.505862   -0.566546
      4          6           0       -1.281991    1.075119   -1.199769
      5          6           0       -0.397909    0.239068   -0.377469
      6          6           0       -0.791317   -0.069519    0.899599
      7          8           0       -0.977147    1.391126   -2.374600
      8          8           0       -2.333969    0.045259    2.707643
      9         35           0        0.314878   -1.171741    2.064121
     10         35           0       -3.626064    2.607948   -1.731034
     11          6           0        0.909390   -0.236000   -0.998320
     12          6           0        1.849692    0.934898   -1.346050
     13          6           0        0.678067   -1.155865   -2.213372
     14          6           0       -4.220487    1.671745    1.331536
     15          6           0       -3.989009    2.591072    2.546972
     16          6           0       -5.160279    0.500298    1.678871
     17          1           0        1.414334   -0.833875   -0.239038
     18          1           0        2.051808    1.544716   -0.460170
     19          1           0        1.408646    1.571707   -2.113458
     20          1           0        2.807829    0.548261   -1.713405
     21          1           0        0.058086   -2.013947   -1.936165
     22          1           0        1.637856   -1.539262   -2.579771
     23          1           0        0.182864   -0.614988   -3.020328
     24          1           0       -4.725734    2.269807    0.572606
     25          1           0       -4.948796    2.973542    2.914333
     26          1           0       -3.369881    3.449789    2.269809
     27          1           0       -3.492885    2.049978    3.353218
     28          1           0       -6.118278    0.886308    2.047239
     29          1           0       -4.718504   -0.137027    2.445430
     30          1           0       -5.362845   -0.108736    0.792547
 ---------------------------------------------------------------------

 SCF Done:  E(UB3LYP) =  -5764.68442030     A.U. after    1 cycles

 Alpha  occ. eigenvalues -- -482.70286-482.70286 -62.35567 -62.35567 -56.17583
 Alpha  occ. eigenvalues --  -56.17583 -56.17237 -56.17237 -56.17202 -56.17202
 Alpha  occ. eigenvalues --  -18.95845 -18.95844 -10.11284 -10.11283 -10.10051
 Alpha  occ. eigenvalues --  -10.10050 -10.06796 -10.06795 -10.06652 -10.06652
 Alpha  occ. eigenvalues --  -10.04656 -10.04655 -10.04654 -10.04651  -8.56531
 Alpha  occ. eigenvalues --   -8.56531  -6.39608  -6.39608  -6.38450  -6.38450
 Alpha  occ. eigenvalues --   -6.38351  -6.38350  -2.50713  -2.50713  -2.50400
 Alpha  occ. eigenvalues --   -2.50399  -2.50325  -2.50325  -2.49401  -2.49401
 Alpha  occ. eigenvalues --   -2.49401  -2.49400  -0.88958  -0.88664  -0.73715
 Alpha  occ. eigenvalues --   -0.71284  -0.67615  -0.67147  -0.64554  -0.59705
 Alpha  occ. eigenvalues --   -0.57356  -0.57352  -0.55397  -0.51474  -0.46555
 Alpha  occ. eigenvalues --   -0.44900  -0.42248  -0.39531  -0.34818  -0.33733
 Alpha  occ. eigenvalues --   -0.33237  -0.32061  -0.31887  -0.30155  -0.30109
 Alpha  occ. eigenvalues --   -0.29271  -0.28704  -0.28368  -0.27888  -0.26855
 Alpha  occ. eigenvalues --   -0.25365  -0.24838  -0.24013  -0.23666  -0.23339
 Alpha  occ. eigenvalues --   -0.23194  -0.22439  -0.22401  -0.19967  -0.19195
 Alpha  occ. eigenvalues --   -0.16410  -0.15759  -0.15062  -0.12275  -0.12260
 Alpha  occ. eigenvalues --   -0.11971  -0.04414
 Alpha virt. eigenvalues --    0.08008   0.08278   0.09324   0.09364   0.09381
 Alpha virt. eigenvalues --    0.10444   0.11024   0.11084   0.11921   0.12251
 Alpha virt. eigenvalues --    0.12417   0.13163   0.13931   0.13957   0.14099

  Beta  occ. eigenvalues -- -482.70286-482.70286 -62.35566 -62.35566 -56.17585
  Beta  occ. eigenvalues --  -56.17585 -56.17234 -56.17234 -56.17202 -56.17202
  Beta  occ. eigenvalues --  -18.95136 -18.95135 -10.11171 -10.11170 -10.09944
  Beta  occ. eigenvalues --  -10.09943 -10.06676 -10.06674 -10.06651 -10.06651
  Beta  occ. eigenvalues --  -10.04649 -10.04647 -10.04647 -10.04644  -8.56530
  Beta  occ. eigenvalues --   -8.56530  -6.39612  -6.39612  -6.38444  -6.38444
  Beta  occ. eigenvalues --   -6.38351  -6.38351  -2.50715  -2.50715  -2.50398
  Beta  occ. eigenvalues --   -2.50398  -2.50327  -2.50327  -2.49398  -2.49398
  Beta  occ. eigenvalues --   -2.49398  -2.49398  -0.87768  -0.87433  -0.73232
  Beta  occ. eigenvalues --   -0.71149  -0.67544  -0.67014  -0.64373  -0.59458
  Beta  occ. eigenvalues --   -0.57333  -0.57328  -0.54538  -0.51262  -0.46449
  Beta  occ. eigenvalues --   -0.44537  -0.41944  -0.39387  -0.34669  -0.33612
  Beta  occ. eigenvalues --   -0.33126  -0.31977  -0.31080  -0.30011  -0.29770
  Beta  occ. eigenvalues --   -0.28776  -0.28212  -0.27902  -0.27558  -0.26404
  Beta  occ. eigenvalues --   -0.24559  -0.23929  -0.23766  -0.23193  -0.23192
  Beta  occ. eigenvalues --   -0.23040  -0.22368  -0.22340  -0.19248  -0.18079
  Beta  occ. eigenvalues --   -0.16380  -0.15726  -0.12582  -0.11668  -0.11630
  Beta  occ. eigenvalues --   -0.11350
  Beta virt. eigenvalues --    0.02701   0.08021   0.08280   0.09383   0.09426
  Beta virt. eigenvalues --    0.09749   0.10452   0.11092   0.11950   0.12145
  Beta virt. eigenvalues --    0.12260   0.12423   0.13276   0.13949   0.13964

 Mulliken charges and spin densities:
               1          2
     1  C   -1.281817   0.067316
     2  C    1.515690   0.109638
     3  C   -0.017522   0.070202
     4  C   -1.281910   0.067336
     5  C    1.516751   0.109650
     6  C   -0.017022   0.070139
     7  O   -0.265884   0.261519
     8  O   -0.265897   0.261501
     9  Br  -0.213799   0.002906
    10  Br  -0.213789   0.002905
    11  C    0.170325  -0.028689
    12  C   -0.716738   0.009820
    13  C   -0.716671   0.009820
    14  C    0.170196  -0.028795
    15  C   -0.716429   0.009841
    16  C   -0.716984   0.009831
    17  H    0.161816  -0.000687
    18  H    0.115651   0.000132
    19  H    0.202088  -0.001558
    20  H    0.114228   0.000539
    21  H    0.115591   0.000135
    22  H    0.114210   0.000536
    23  H    0.202129  -0.001562
    24  H    0.161860  -0.000690
    25  H    0.114182   0.000535
    26  H    0.115560   0.000135
    27  H    0.202219  -0.001566
    28  H    0.114140   0.000538
    29  H    0.202172  -0.001558
    30  H    0.115658   0.000131
 Sum of Mulliken charges =  -1.00000   1.00000

 Dipole moment (field-independent basis, Debye):
    X=              7.9525    Y=             -3.4497    Z=             -0.7999  Tot=              8.7053
 Quadrupole moment (field-independent basis, Debye-Ang):
   XX=           -153.2887   YY=           -138.9801   ZZ=           -160.3576
   XY=             10.8586   XZ=              4.0951   YZ=             10.8576

  Exact polarizability: 228.652 -40.176 178.601 -17.884 -30.007 240.269
 Approx polarizability: 304.719 -40.831 268.222 -21.875 -71.749 418.360

                      1                      2                      3
                      A                      A                      A
 Frequencies --     39.8467                47.0451                61.3680
 Red. masses --      5.7771                 3.6425                 3.1144
 Frc consts  --      0.0054                 0.0047                 0.0069
 IR Inten    --      0.0048                 3.1286                 0.0006

                      4                      5                      6
                      A                      A                      A
 Frequencies --     65.2506                90.3564               142.2287
 Red. masses --      4.0519                 5.0386                 6.6602
 Frc consts  --      0.0102                 0.0242                 0.0794
 IR Inten    --      1.0911                 0.0000                 1.5269

                      7                      8                      9
                      A                      A                      A
 Frequencies --    151.2176               170.9034               173.4771
 Red. masses --      5.2526                 4.6990                 3.3351
 Frc consts  --      0.0708                 0.0809                 0.0591
 IR Inten    --      0.0000                 2.1434                 3.7634

                     10                     11                     12
                      A                      A                      A
 Frequencies --    193.9788               197.2761               226.6177
 Red. masses --     32.6413                 1.9892                 1.5846
 Frc consts  --      0.7236                 0.0456                 0.0479
 IR Inten    --      0.0000                 0.0000                 0.0000

                     13                     14                     15
                      A                      A                      A
 Frequencies --    229.8627               234.3547               235.1328
 Red. masses --      1.2036                 1.4397                 1.0624
 Frc consts  --      0.0375                 0.0466                 0.0346
 IR Inten    --      1.1748                 0.0008                 1.2850

                     16                     17                     18
                      A                      A                      A
 Frequencies --    245.4183               304.6422               312.9350
 Red. masses --      1.5696                 7.7421                 2.9338
 Frc consts  --      0.0557                 0.4233                 0.1693
 IR Inten    --      0.0000                 0.0000                 2.6020

                     19                     20                     21
                      A                      A                      A
 Frequencies --    314.4314               326.0885               342.7107
 Red. masses --      4.4126                12.2874                10.2691
 Frc consts  --      0.2570                 0.7698                 0.7106
 IR Inten    --      0.3419                 0.6498                 0.0000

                     22                     23                     24
                      A                      A                      A
 Frequencies --    425.4841               455.9482               464.8676
 Red. masses --      2.8333                 5.4243                 2.7661
 Frc consts  --      0.3022                 0.6644                 0.3522
 IR Inten    --      0.0000                34.7606                 3.3305

                     25                     26                     27
                      A                      A                      A
 Frequencies --    473.8461               498.9876               516.1781
 Red. masses --      4.3856                 5.8995                 5.1947
 Frc consts  --      0.5802                 0.8655                 0.8155
 IR Inten    --      0.0000                 0.0000                 0.0000

                     28                     29                     30
                      A                      A                      A
 Frequencies --    604.0727               706.5094               732.6926
 Red. masses --      8.6847                 3.8645                 9.2057
 Frc consts  --      1.8672                 1.1365                 2.9117
 IR Inten    --      0.3691               113.3342                 9.6210

                     31                     32                     33
                      A                      A                      A
 Frequencies --    740.6015               767.2048               788.8749
 Red. masses --      6.0860                10.0649                 7.0316
 Frc consts  --      1.9668                 3.4905                 2.5782
 IR Inten    --      0.0000                 0.0000                 0.0000

                     34                     35                     36
                      A                      A                      A
 Frequencies --    856.1306               871.9550               931.4127
 Red. masses --      4.3190                 2.8951                 1.1556
 Frc consts  --      1.8651                 1.2969                 0.5907
 IR Inten    --     54.3762                 0.0001                 0.7260

                     37                     38                     39
                      A                      A                      A
 Frequencies --    931.4706               944.8270               961.2319
 Red. masses --      1.1555                 3.4401                 1.5557
 Frc consts  --      0.5907                 1.8094                 0.8469
 IR Inten    --      1.8163                27.6992                 0.1601

                     40                     41                     42
                      A                      A                      A
 Frequencies --    961.2523              1014.8878              1044.4480
 Red. masses --      1.5544                 2.5138                 1.9123
 Frc consts  --      0.8462                 1.5255                 1.2291
 IR Inten    --      0.0080                 0.0000               143.2075

                     43                     44                     45
                      A                      A                      A
 Frequencies --   1118.1024              1119.8981              1123.6840
 Red. masses --      2.4415                 2.4489                 7.9506
 Frc consts  --      1.7983                 1.8096                 5.9148
 IR Inten    --      0.0000                 4.8863                51.7592

                     46                     47                     48
                      A                      A                      A
 Frequencies --   1139.4399              1193.8453              1200.7203
 Red. masses --      2.0860                 2.1152                 2.0606
 Frc consts  --      1.5957                 1.7762                 1.7504
 IR Inten    --      0.0000                 6.4301                 0.0001

                     49                     50                     51
                      A                      A                      A
 Frequencies --   1238.8943              1339.5512              1358.1687
 Red. masses --      4.0718                 4.4884                 1.2631
 Frc consts  --      3.6822                 4.7453                 1.3727
 IR Inten    --     54.3390                 0.0000                 4.3987

                     52                     53                     54
                      A                      A                      A
 Frequencies --   1358.2248              1370.3299              1377.6786
 Red. masses --      1.2624                 1.3574                 1.2259
 Frc consts  --      1.3721                 1.5017                 1.3709
 IR Inten    --      0.1290                 4.0134                 0.1418

                     55                     56                     57
                      A                      A                      A
 Frequencies --   1377.7673              1381.9182              1395.5499
 Red. masses --      1.2264                 1.4862                 1.2347
 Frc consts  --      1.3717                 1.6723                 1.4168
 IR Inten    --     21.1129                 0.0001                55.3197

                     58                     59                     60
                      A                      A                      A
 Frequencies --   1398.3777              1479.7441              1479.8940
 Red. masses --      1.2829                 1.0398                 1.0469
 Frc consts  --      1.4781                 1.3415                 1.3509
 IR Inten    --      0.0004                 0.0006                 0.9174

                     61                     62                     63
                      A                      A                      A
 Frequencies --   1480.3809              1490.9932              1491.0577
 Red. masses --      4.0314                 1.2892                 1.1135
 Frc consts  --      5.2054                 1.6885                 1.4585
 IR Inten    --     30.0187                89.0145                 1.3163

                     64                     65                     66
                      A                      A                      A
 Frequencies --   1504.9554              1504.9942              1517.3937
 Red. masses --      1.0505                 1.0505                 1.3331
 Frc consts  --      1.4018                 1.4019                 1.8084
 IR Inten    --      1.3289                 0.7525                97.7598

                     67                     68                     69
                      A                      A                      A
 Frequencies --   1520.3358              1529.1781              1533.7906
 Red. masses --      1.0643                 7.2645                 2.7035
 Frc consts  --      1.4494                10.0085                 3.7472
 IR Inten    --      0.0007                 0.0021               186.4874

                     70                     71                     72
                      A                      A                      A
 Frequencies --   1594.4991              3003.1496              3003.1823
 Red. masses --      8.7505                 1.0417                 1.0418
 Frc consts  --     13.1078                 5.5355                 5.5359
 IR Inten    --      0.0000                 0.0705                84.8248

                     73                     74                     75
                      A                      A                      A
 Frequencies --   3008.1828              3009.0279              3061.4748
 Red. masses --      1.0418                 1.0416                 1.0964
 Frc consts  --      5.5544                 5.5567                 6.0545
 IR Inten    --    264.8193                 0.0001                 0.7044

                     76                     77                     78
                      A                      A                      A
 Frequencies --   3061.6914              3063.7273              3063.8759
 Red. masses --      1.0963                 1.0956                 1.0956
 Frc consts  --      6.0550                 6.0591                 6.0596
 IR Inten    --     66.5342               107.6215                 1.4274

                     79                     80                     81
                      A                      A                      A
 Frequencies --   3073.0046              3073.1681              3114.5092
 Red. masses --      1.0843                 1.0844                 1.0986
 Frc consts  --      6.0332                 6.0342                 6.2789
 IR Inten    --     32.6304                 0.1212                 0.2115

                     82                     83                     84
                      A                      A                      A
 Frequencies --   3114.5383              3120.4638              3120.5304
 Red. masses --      1.0986                 1.0971                 1.0971
 Frc consts  --      6.2790                 6.2940                 6.2941
 IR Inten    --      0.1022                 1.0449                36.1046

 - Thermochemistry -
 -------------------
 Temperature   298.150 Kelvin.  Pressure   1.00000 Atm.
 Atom     1 has atomic number  6 and mass  12.00000

 Molecular mass:   347.93605 amu.
 Principal axes and moments of inertia in atomic units:
                           1         2         3
     Eigenvalues --  4329.292817787.90969**********
           X            0.73142  -0.50388   0.45950
           Y           -0.56674  -0.07440   0.82053
           Z            0.37926   0.86057   0.33998
 This molecule is an asymmetric top.
 Rotational symmetry number  1.
 Warning -- assumption of classical behavior for rotation
           may cause significant error
 Rotational temperatures (Kelvin)      0.02001     0.01112     0.00765
 Rotational constants (GHZ):           0.41687     0.23174     0.15933
 Zero-point vibrational energy     605955.9 (Joules/Mol)
                                  144.82694 (Kcal/Mol)
 Warning -- explicit consideration of  28 degrees of freedom as
           vibrations may cause significant error
 Vibrational temperatures:     57.33    67.69    88.29    93.88   130.00
          (Kelvin)            204.64   217.57   245.89   249.59   279.09
                              283.84   326.05   330.72   337.18   338.30
                              353.10   438.31   450.24   452.40   469.17
                              493.08   612.18   656.01   668.84   681.76
                              717.93   742.67   869.13  1016.51  1054.18
                             1065.56  1103.84  1135.01  1231.78  1254.55
                             1340.10  1340.18  1359.40  1383.00  1383.03
                             1460.20  1502.73  1608.70  1611.28  1616.73
                             1639.40  1717.68  1727.57  1782.49  1927.32
                             1954.10  1954.18  1971.60  1982.17  1982.30
                             1988.27  2007.89  2011.95  2129.02  2129.24
                             2129.94  2145.21  2145.30  2165.30  2165.35
                             2183.19  2187.42  2200.15  2206.78  2294.13
                             4320.86  4320.91  4328.10  4329.32  4404.78
                             4405.09  4408.02  4408.23  4421.37  4421.60
                             4481.08  4481.13  4489.65  4489.75

 Zero-point correction=                           0.230796 (Hartree/Particle)
 Thermal correction to Energy=                    0.248662
 Thermal correction to Enthalpy=                  0.249606
 Thermal correction to Gibbs Free Energy=         0.183120
 Sum of electronic and zero-point Energies=          -5764.453624
 Sum of electronic and thermal Energies=             -5764.435758
 Sum of electronic and thermal Enthalpies=           -5764.434814
 Sum of electronic and thermal Free Energies=        -5764.501300

                     E (Thermal)             CV                S
                      KCal/Mol        Cal/Mol-Kelvin    Cal/Mol-Kelvin
 Total                  156.038             64.341            139.931
 Electronic               0.000              0.000              1.377
 Translational            0.889              2.981             43.435
 Rotational               0.889              2.981             34.301
 Vibrational            154.260             58.379             60.819
 Vibration     1          0.594              1.981              5.267
 Vibration     2          0.595              1.979              4.938
 Vibration     3          0.597              1.973              4.413
 Vibration     4          0.597              1.971              4.292
 Vibration     5          0.602              1.956              3.652
 Vibration     6          0.616              1.911              2.774
 Vibration     7          0.619              1.901              2.657
 Vibration     8          0.626              1.878              2.426
 Vibration     9          0.627              1.875              2.397
 Vibration    10          0.635              1.848              2.189
 Vibration    11          0.637              1.844              2.158
 Vibration    12          0.650              1.800              1.906
 Vibration    13          0.652              1.795              1.880
 Vibration    14          0.654              1.788              1.845
 Vibration    15          0.655              1.787              1.839
 Vibration    16          0.660              1.770              1.763
 Vibration    17          0.696              1.665              1.391
 Vibration    18          0.701              1.649              1.347
 Vibration    19          0.702              1.646              1.339
 Vibration    20          0.710              1.623              1.279
 Vibration    21          0.722              1.590              1.200
 Vibration    22          0.787              1.415              0.874
 Vibration    23          0.814              1.348              0.778
 Vibration    24          0.822              1.328              0.752
 Vibration    25          0.831              1.308              0.727
 Vibration    26          0.854              1.252              0.661
 Vibration    27          0.871              1.214              0.619
 Vibration    28          0.963              1.023              0.443

                           ! Non-Optimized Parameters !
 Normal termination of Gaussian 16 at Sun Dec 17 22:29:52 2023.
