 Q-Chem 5.4, Q-Chem, Inc., Pleasanton, CA (2021)
 Q-Chem 5.4.0 for Intel X86 EM64T Linux

User input:
--------------------------------------------------------------
$molecule
-1 2
Br                -3.1133590000     -1.1447470000      0.0155540000
C                 -1.3335950000     -0.4407140000      0.0067750000
C                 -1.0745290000      0.9043940000      0.0087030000
Br                -2.4654830000      2.2187780000      0.0203110000
C                  0.2804440000      1.4557670000      0.0020950000
O                  0.5153870000      2.6760700000      0.0038600000
C                  1.3336160000      0.4408940000     -0.0067730000
C                  1.0745130000     -0.9043550000     -0.0087040000
Br                 2.4652890000     -2.2187910000     -0.0203170000
C                 -0.2803830000     -1.4556370000     -0.0020930000
O                 -0.5153360000     -2.6760750000     -0.0038580000
Br                 3.1134380000      1.1444160000     -0.0155540000
$end

$rem
BASIS  =  6-311++G(d,p)
GUI  =  2
JOB_TYPE  =  SP
METHOD  =  B3LYP
SCF_CONVERGENCE  = 8
SOLVENT_METHOD = sm12
$end

$smx
solvent dimethylformamide
charges CM5
$end

--------------------------------------------------------------

             Standard Nuclear Orientation (Angstroms)
    I     Atom           X                Y                Z
 ----------------------------------------------------------------
    1      Br     -3.1133590000    -1.1447470000     0.0155540000
    2      C      -1.3335950000    -0.4407140000     0.0067750000
    3      C      -1.0745290000     0.9043940000     0.0087030000
    4      Br     -2.4654830000     2.2187780000     0.0203110000
    5      C       0.2804440000     1.4557670000     0.0020950000
    6      O       0.5153870000     2.6760700000     0.0038600000
    7      C       1.3336160000     0.4408940000    -0.0067730000
    8      C       1.0745130000    -0.9043550000    -0.0087040000
    9      Br      2.4652890000    -2.2187910000    -0.0203170000
   10      C      -0.2803830000    -1.4556370000    -0.0020930000
   11      O      -0.5153360000    -2.6760750000    -0.0038580000
   12      Br      3.1134380000     1.1444160000    -0.0155540000
 ----------------------------------------------------------------

   16  -10675.8119887253      3.11e-09  Convergence criterion met
 Total energy in the final basis set =   -10675.8861759590

                    Orbital Energies (a.u.)
 --------------------------------------------------------------

 Alpha MOs
 -- Occupied --
********-482.8305-482.8304-482.8304 -62.4831 -62.4831 -62.4830 -62.4830
-56.3037 -56.3037 -56.3036 -56.3036 -56.2999 -56.2999 -56.2998 -56.2998
-56.2994 -56.2994 -56.2994 -56.2994 -19.0938 -19.0938 -10.2524 -10.2524
-10.2390 -10.2389 -10.2383 -10.2383  -8.6918  -8.6917  -8.6917  -8.6917
 -6.5234  -6.5234  -6.5234  -6.5234  -6.5106  -6.5106  -6.5106  -6.5106
 -6.5093  -6.5093  -6.5092  -6.5092  -2.6345  -2.6345  -2.6344  -2.6344
 -2.6307  -2.6307  -2.6306  -2.6306  -2.6297  -2.6297  -2.6296  -2.6296
 -2.6197  -2.6197  -2.6196  -2.6196  -2.6196  -2.6196  -2.6196  -2.6196
 -1.0282  -1.0254  -0.8779  -0.8476  -0.7963  -0.7963  -0.7714  -0.7073
 -0.6892  -0.5879  -0.5842  -0.5220  -0.4677  -0.4459  -0.4370  -0.4171
 -0.4153  -0.4039  -0.4013  -0.3788  -0.3610  -0.3320  -0.3074  -0.3062
 -0.3004  -0.2991  -0.2808  -0.2753  -0.2724  -0.2632  -0.2477  -0.2450
 -0.1777

 Beta MOs
 -- Occupied --
********-482.8305-482.8304-482.8304 -62.4831 -62.4831 -62.4830 -62.4830
-56.3037 -56.3037 -56.3036 -56.3036 -56.2998 -56.2998 -56.2998 -56.2998
-56.2994 -56.2994 -56.2994 -56.2994 -19.0866 -19.0866 -10.2515 -10.2515
-10.2377 -10.2377 -10.2371 -10.2371  -8.6917  -8.6917  -8.6917  -8.6917
 -6.5235  -6.5235  -6.5234  -6.5234  -6.5105  -6.5105  -6.5105  -6.5104
 -6.5093  -6.5092  -6.5092  -6.5092  -2.6345  -2.6345  -2.6344  -2.6344
 -2.6306  -2.6306  -2.6306  -2.6306  -2.6297  -2.6297  -2.6297  -2.6297
 -2.6196  -2.6196  -2.6196  -2.6196  -2.6196  -2.6195  -2.6195  -2.6195
 -1.0164  -1.0132  -0.8729  -0.8459  -0.7954  -0.7941  -0.7695  -0.7057
 -0.6801  -0.5839  -0.5800  -0.5198  -0.4636  -0.4317  -0.4304  -0.4163
 -0.4107  -0.3993  -0.3771  -0.3754  -0.3563  -0.3121  -0.3070  -0.3045
 -0.2989  -0.2947  -0.2788  -0.2752  -0.2564  -0.2539  -0.2430  -0.2397

          Ground-State Mulliken Net Atomic Charges

     Atom                 Charge (a.u.)    Spin (a.u.)
  --------------------------------------------------------
      1 Br                    0.035634       0.007258
      2 C                     0.575918       0.082717
      3 C                     0.576387       0.083041
      4 Br                    0.036189       0.007259
      5 C                    -1.521932       0.056265
      6 O                    -0.201801       0.263332
      7 C                     0.576006       0.082813
      8 C                     0.575777       0.083054
      9 Br                    0.036208       0.007268
     10 C                    -1.522244       0.056282
     11 O                    -0.201831       0.263437
     12 Br                    0.035690       0.007273
  --------------------------------------------------------
  Sum of atomic charges =    -1.000000

                    Cartesian Multipole Moments
 -----------------------------------------------------------------
    Charge (ESU x 10^10)
                -4.8032
    Dipole Moment (Debye)
         X       0.0004      Y       0.0007      Z      -0.0000
       Tot       0.0008
    Quadrupole Moments (Debye-Ang)
        XX    -136.2318     XY      -3.7817     YY    -155.1047
        XZ       0.0770     YZ      -0.0645     ZZ    -121.6021

 Total job time:  185.15s(wall), 1345.49s(cpu)
        *  Thank you very much for using Q-Chem.  Have a nice day.  *
