 Q-Chem 5.4, Q-Chem, Inc., Pleasanton, CA (2021)
 Q-Chem 5.4.0 for Intel X86 EM64T Linux

User input:
--------------------------------------------------------------
$molecule
0 1
C                  2.9064240000      2.5203060000     -0.3617340000
O                  2.5440130000      1.1511030000     -0.2392320000
C                  1.2388050000      0.8123170000     -0.1632530000
C                  0.2170920000      1.7673700000     -0.1917370000
C                 -1.1135770000      1.3941090000     -0.1176010000
C                 -1.4825980000      0.0489260000     -0.0118490000
O                 -2.7739820000     -0.3406100000      0.0570870000
C                 -3.8041890000      0.6380760000      0.0144990000
C                 -0.4711600000     -0.9420990000      0.0200750000
C                 -0.8369580000     -2.3914790000      0.1283760000
O                 -1.9808040000     -2.7995330000      0.2517110000
C                  0.2628690000     -3.3807160000      0.0837050000
C                  1.5458830000     -3.0207300000      0.0134990000
C                  1.9708560000     -1.6036710000     -0.0253970000
O                  3.1660450000     -1.3554020000     -0.0292920000
C                  0.8975440000     -0.5581430000     -0.0556460000
H                  3.9936600000      2.5257290000     -0.4092960000
H                  2.5792870000      3.1026960000      0.5063690000
H                  2.5013120000      2.9640820000     -1.2776480000
H                  0.4553400000      2.8184750000     -0.2728090000
H                 -1.8692170000      2.1664390000     -0.1433080000
H                 -4.7347180000      0.0775530000      0.0801670000
H                 -3.7378940000      1.3297120000      0.8613030000
H                 -3.7860760000      1.2017650000     -0.9245720000
H                 -0.0543060000     -4.4168640000      0.1301870000
H                  2.3573510000     -3.7402130000     -0.0017270000
$end
$rem
MAX_SCF_CYCLES=200
BASIS  =  6-311++G(d,p)
GUI  =  2
JOB_TYPE  =  SP
METHOD  =  B3LYP
SOLVENT_METHOD = COSMO
$end
$solvent
dielectric 37.219
opticaldielectric 1.43
$end

--------------------------------------------------------------

             Standard Nuclear Orientation (Angstroms)
    I     Atom           X                Y                Z
 ----------------------------------------------------------------
    1      C       3.4898779341    -2.0743425324     0.0206804319
    2      O       2.7656012513    -0.8511827387     0.0014779855
    3      C       1.4152649182    -0.8772803045    -0.0037555554
    4      C       0.6920406213    -2.0746803823     0.0000779238
    5      C      -0.6919752272    -2.0746912045    -0.0001200593
    6      C      -1.4152338439    -0.8772941825    -0.0039453104
    7      O      -2.7655905511    -0.8512413420     0.0006498832
    8      C      -3.4898539063    -2.0744057957     0.0173171784
    9      C      -0.7117743526     0.3520474032    -0.0084763184
   10      C      -1.4601734467     1.6505613066    -0.0081503517
   11      O      -2.6765792343     1.7374758725    -0.0620584104
   12      C      -0.6671574000     2.8982168496     0.0603037667
   13      C       0.6672497890     2.8982057921     0.0592172348
   14      C       1.4601179750     1.6505339775    -0.0103977177
   15      O       2.6764112159     1.7374298698    -0.0670481297
   16      C       0.7117797946     0.3520618418    -0.0088069185
   17      H       4.5392134822    -1.7858590507     0.0274524878
   18      H       3.2860491768    -2.6770904572    -0.8709183144
   19      H       3.2690024107    -2.6594741135     0.9200059359
   20      H       1.2089318888    -3.0238743017     0.0033674102
   21      H      -1.2088122218    -3.0239097765     0.0030282395
   22      H      -4.5392061053    -1.7859434983     0.0229744768
   23      H      -3.2848115187    -2.6760473450    -0.8747688395
   24      H      -3.2702372920    -2.6606603756     0.9162063944
   25      H      -1.2540516879     3.8097097905     0.0934541574
   26      H       1.2542032804     3.8096992217     0.0913615979
 ----------------------------------------------------------------

    9    -764.3501565865      2.88e-06  Convergence criterion met
 Total energy in the final basis set =     -764.3501565865
    5    -764.3741334222      3.95e-06  Convergence criterion met
 Total energy in the final basis set =     -764.3741334222

                    Orbital Energies (a.u.)
 --------------------------------------------------------------

 Alpha MOs
 -- Occupied --
-19.1688 -19.1688 -19.1270 -19.1270 -10.2803 -10.2803 -10.2614 -10.2614
-10.2232 -10.2232 -10.2115 -10.2111 -10.2031 -10.2022 -10.1988 -10.1982
 -1.0904  -1.0892  -1.0614  -1.0598  -0.8852  -0.8360  -0.7858  -0.7816
 -0.7291  -0.7017  -0.6929  -0.6474  -0.6369  -0.5820  -0.5481  -0.5454
 -0.5231  -0.5229  -0.4970  -0.4856  -0.4826  -0.4779  -0.4625  -0.4486
 -0.4441  -0.4374  -0.4253  -0.4250  -0.4153  -0.4129  -0.3942  -0.3928
 -0.3622  -0.3558  -0.3491  -0.3157  -0.3023  -0.2837  -0.2752  -0.2648
 -0.2300

          Ground-State Mulliken Net Atomic Charges

     Atom                 Charge (a.u.)
  ----------------------------------------
      1 C                    -0.332900
      2 O                    -0.156045
      3 C                     0.023827
      4 C                    -0.079151
      5 C                    -0.081365
      6 C                     0.025440
      7 O                    -0.155987
      8 C                    -0.332771
      9 C                    -0.030735
     10 C                     0.025686
     11 O                    -0.343563
     12 C                    -0.166989
     13 C                    -0.168195
     14 C                     0.027253
     15 O                    -0.343752
     16 C                    -0.032097
     17 H                     0.215201
     18 H                     0.176894
     19 H                     0.175782
     20 H                     0.245929
     21 H                     0.247109
     22 H                     0.215280
     23 H                     0.176680
     24 H                     0.175685
     25 H                     0.246407
     26 H                     0.246376
  ----------------------------------------
  Sum of atomic charges =     0.000000

                    Cartesian Multipole Moments
 -----------------------------------------------------------------
    Charge (ESU x 10^10)
                 0.0000
    Dipole Moment (Debye)
         X      -0.0003      Y      -7.3002      Z       0.3930
       Tot       7.3107
    Quadrupole Moments (Debye-Ang)
        XX    -102.4406     XY       0.0003     YY     -69.1996
        XZ       0.0405     YZ       0.6712     ZZ     -93.1237

 Total job time:  99.72s(wall), 309.65s(cpu)
        *  Thank you very much for using Q-Chem.  Have a nice day.  *
