 Gaussian 16, Revision A.03,
 Gaussian 16:  ES64L-G16RevA.03 25-Dec-2016

 --------------------------------------
 #P UB3LYP/6-311++G(d,p) nosym opt freq
 --------------------------------------

 --------
 Oxidized
 --------
 Symbolic Z-matrix:
 Charge =  0 Multiplicity = 1

 SCF Done:  E(UB3LYP) =  -1144.77125504     A.U. after   17 cycles
 SCF Done:  E(UB3LYP) =  -1144.81008328     A.U. after   15 cycles
 SCF Done:  E(UB3LYP) =  -1144.82451262     A.U. after   14 cycles
 SCF Done:  E(UB3LYP) =  -1144.82775899     A.U. after   14 cycles
 SCF Done:  E(UB3LYP) =  -1144.82795312     A.U. after   13 cycles
 SCF Done:  E(UB3LYP) =  -1144.82822193     A.U. after   13 cycles
 SCF Done:  E(UB3LYP) =  -1144.82842352     A.U. after   13 cycles
 SCF Done:  E(UB3LYP) =  -1144.82855460     A.U. after   13 cycles
 SCF Done:  E(UB3LYP) =  -1144.82860708     A.U. after   12 cycles
 SCF Done:  E(UB3LYP) =  -1144.82865135     A.U. after   12 cycles
 SCF Done:  E(UB3LYP) =  -1144.82977064     A.U. after   10 cycles
 SCF Done:  E(UB3LYP) =  -1144.82976999     A.U. after    9 cycles
 SCF Done:  E(UB3LYP) =  -1144.82977171     A.U. after    9 cycles
 SCF Done:  E(UB3LYP) =  -1144.82977198     A.U. after    8 cycles
 SCF Done:  E(UB3LYP) =  -1144.82977263     A.U. after    9 cycles
 SCF Done:  E(UB3LYP) =  -1144.82977343     A.U. after   10 cycles
 SCF Done:  E(UB3LYP) =  -1144.82977383     A.U. after    9 cycles
 SCF Done:  E(UB3LYP) =  -1144.82977395     A.U. after    8 cycles
 SCF Done:  E(UB3LYP) =  -1144.82977399     A.U. after    9 cycles
 Optimization completed.
    -- Stationary point found.
 Normal termination of Gaussian 16 at Thu Dec 21 14:50:03 2023.

 ----------------------------------------------------------------------
 #P Geom=AllCheck Guess=TCheck SCRF=Check GenChk UB3LYP/6-311++G(d,p) F
 req
 ----------------------------------------------------------------------

 Structure from the checkpoint file:  "146.chk"
 --------
 Oxidized
 --------
 Charge =  0 Multiplicity = 1

                          Input orientation:
 ---------------------------------------------------------------------
 Center     Atomic      Atomic             Coordinates (Angstroms)
 Number     Number       Type             X           Y           Z
 ---------------------------------------------------------------------
      1          6           0        2.697139    2.982033    1.517812
      2          6           0        2.507750    1.504682    1.695144
      3          8           0        2.205216    0.928764    2.700078
      4          8           0        2.752312    0.851845    0.501816
      5          6           0        2.463449   -0.500258    0.428036
      6          6           0        3.521959   -1.383540    0.604610
      7          6           0        3.322120   -2.754106    0.475753
      8          6           0        2.061814   -3.240051    0.153926
      9          6           0        1.001657   -2.355137   -0.045419
     10          6           0       -0.318811   -2.927461   -0.434234
     11          8           0       -0.497925   -4.133406   -0.465877
     12          6           0       -1.398680   -1.978112   -0.828004
     13          6           0       -2.573771   -2.511918   -1.358029
     14          6           0       -3.593135   -1.668012   -1.778544
     15          6           0       -3.441128   -0.290136   -1.663154
     16          6           0       -2.280931    0.244633   -1.115598
     17          8           0       -2.171500    1.624735   -1.097191
     18          6           0       -2.486910    2.286121    0.074725
     19          6           0       -2.121350    3.736122   -0.042185
     20          8           0       -2.990278    1.739526    1.013291
     21          6           0       -1.229498   -0.585131   -0.685789
     22          6           0        0.019880   -0.029102   -0.076747
     23          8           0        0.089459    1.137491    0.272491
     24          6           0        1.176886   -0.962981    0.097413
     25          1           0        1.886180    3.359338    0.890870
     26          1           0        2.671946    3.471108    2.489222
     27          1           0        3.639037    3.190870    1.007409
     28          1           0        4.496558   -0.977457    0.846186
     29          1           0        4.150227   -3.436934    0.625162
     30          1           0        1.874252   -4.300280    0.043846
     31          1           0       -2.660250   -3.587923   -1.436219
     32          1           0       -4.505004   -2.077499   -2.197057
     33          1           0       -4.216977    0.390798   -1.991024
     34          1           0       -2.526562    4.282906    0.806530
     35          1           0       -1.031998    3.815813   -0.049237
     36          1           0       -2.493138    4.152661   -0.980010
 ---------------------------------------------------------------------

 SCF Done:  E(UB3LYP) =  -1144.82977399     A.U. after    1 cycles

 Alpha  occ. eigenvalues --  -19.18398 -19.18398 -19.13394 -19.13151 -19.12467
 Alpha  occ. eigenvalues --  -19.12466 -10.31783 -10.31782 -10.29289 -10.28440
 Alpha  occ. eigenvalues --  -10.27005 -10.27004 -10.22189 -10.22188 -10.21720
 Alpha  occ. eigenvalues --  -10.21720 -10.20993 -10.20992 -10.20792 -10.20791
 Alpha  occ. eigenvalues --  -10.20339 -10.20339 -10.18774 -10.18772  -1.12783
 Alpha  occ. eigenvalues --   -1.12689  -1.06997  -1.06636  -1.04449  -1.04367
 Alpha  occ. eigenvalues --   -0.90304  -0.89134  -0.82430  -0.79920  -0.79764
 Alpha  occ. eigenvalues --   -0.78412  -0.75795  -0.75528  -0.70100  -0.68374
 Alpha  occ. eigenvalues --   -0.66576  -0.65322  -0.63721  -0.58758  -0.58475
 Alpha  occ. eigenvalues --   -0.55421  -0.54949  -0.51638  -0.51236  -0.50755
 Alpha  occ. eigenvalues --   -0.50570  -0.50543  -0.50000  -0.49176  -0.48670
 Alpha  occ. eigenvalues --   -0.48210  -0.46879  -0.46018  -0.45868  -0.45598
 Alpha  occ. eigenvalues --   -0.44260  -0.42672  -0.42554  -0.42236  -0.42089
 Alpha  occ. eigenvalues --   -0.41709  -0.41532  -0.40246  -0.39804  -0.39152
 Alpha  occ. eigenvalues --   -0.38915  -0.38532  -0.38490  -0.37114  -0.33680
 Alpha  occ. eigenvalues --   -0.33099  -0.29768  -0.29669  -0.29625  -0.28951
 Alpha  occ. eigenvalues --   -0.28541  -0.27915  -0.27663  -0.27020
 Alpha virt. eigenvalues --   -0.12151  -0.07901  -0.04631  -0.03269  -0.01539
 Alpha virt. eigenvalues --   -0.01032  -0.00815  -0.00575  -0.00405   0.00730
 Alpha virt. eigenvalues --    0.01282   0.02073   0.02440   0.02567   0.02853

  Beta  occ. eigenvalues --  -19.18398 -19.18398 -19.13394 -19.13151 -19.12467
  Beta  occ. eigenvalues --  -19.12466 -10.31783 -10.31782 -10.29289 -10.28440
  Beta  occ. eigenvalues --  -10.27005 -10.27004 -10.22189 -10.22188 -10.21720
  Beta  occ. eigenvalues --  -10.21720 -10.20993 -10.20992 -10.20792 -10.20791
  Beta  occ. eigenvalues --  -10.20339 -10.20339 -10.18774 -10.18772  -1.12783
  Beta  occ. eigenvalues --   -1.12689  -1.06997  -1.06636  -1.04449  -1.04367
  Beta  occ. eigenvalues --   -0.90304  -0.89134  -0.82430  -0.79920  -0.79764
  Beta  occ. eigenvalues --   -0.78412  -0.75795  -0.75528  -0.70100  -0.68374
  Beta  occ. eigenvalues --   -0.66576  -0.65322  -0.63721  -0.58758  -0.58475
  Beta  occ. eigenvalues --   -0.55421  -0.54949  -0.51638  -0.51236  -0.50755
  Beta  occ. eigenvalues --   -0.50570  -0.50543  -0.50000  -0.49176  -0.48670
  Beta  occ. eigenvalues --   -0.48210  -0.46879  -0.46018  -0.45868  -0.45598
  Beta  occ. eigenvalues --   -0.44260  -0.42672  -0.42554  -0.42236  -0.42089
  Beta  occ. eigenvalues --   -0.41709  -0.41532  -0.40246  -0.39804  -0.39152
  Beta  occ. eigenvalues --   -0.38915  -0.38532  -0.38490  -0.37114  -0.33680
  Beta  occ. eigenvalues --   -0.33099  -0.29768  -0.29669  -0.29625  -0.28951
  Beta  occ. eigenvalues --   -0.28541  -0.27915  -0.27663  -0.27020
  Beta virt. eigenvalues --   -0.12151  -0.07901  -0.04631  -0.03269  -0.01539
  Beta virt. eigenvalues --   -0.01032  -0.00815  -0.00575  -0.00405   0.00730
  Beta virt. eigenvalues --    0.01282   0.02073   0.02440   0.02567   0.02853

 Mulliken charges and spin densities:
               1          2
     1  C   -0.438920   0.000000
     2  C   -0.066565  -0.000000
     3  O   -0.169106   0.000000
     4  O    0.044114   0.000000
     5  C   -0.304728   0.000000
     6  C    0.256008  -0.000000
     7  C   -0.367186  -0.000000
     8  C   -0.121676  -0.000000
     9  C    0.451318  -0.000000
    10  C   -0.716175  -0.000000
    11  O   -0.209337  -0.000000
    12  C    0.452921  -0.000000
    13  C   -0.119752  -0.000000
    14  C   -0.367871   0.000000
    15  C    0.255146   0.000000
    16  C   -0.303538  -0.000000
    17  O    0.043784   0.000000
    18  C   -0.066782  -0.000000
    19  C   -0.438354   0.000000
    20  O   -0.169030   0.000000
    21  C    0.276272   0.000000
    22  C   -0.204671   0.000000
    23  O   -0.212205  -0.000000
    24  C    0.275336   0.000000
    25  H    0.201450   0.000000
    26  H    0.172146   0.000000
    27  H    0.170105  -0.000000
    28  H    0.185469  -0.000000
    29  H    0.191954  -0.000000
    30  H    0.189476   0.000000
    31  H    0.189534  -0.000000
    32  H    0.191915   0.000000
    33  H    0.185507  -0.000000
    34  H    0.172066   0.000000
    35  H    0.201371   0.000000
    36  H    0.170006   0.000000
 Sum of Mulliken charges =  -0.00000  -0.00000

 Dipole moment (field-independent basis, Debye):
    X=              1.3989    Y=              1.6620    Z=             -3.5032  Tot=              4.1220
 Quadrupole moment (field-independent basis, Debye-Ang):
   XX=           -116.4962   YY=           -128.0896   ZZ=           -146.6043
   XY=             -2.4154   XZ=             11.0622   YZ=             -0.1257

  Exact polarizability: 268.978  -7.875 271.393  45.845  17.599 152.944
 Approx polarizability: 400.237   0.508 447.935  56.507  12.574 251.422

                      1                      2                      3
                      A                      A                      A
 Frequencies --     23.1521                24.9619                48.9800
 Red. masses --      8.3310                 5.4957                 7.0736
 Frc consts  --      0.0026                 0.0020                 0.0100
 IR Inten    --      0.8809                 0.0635                 2.0772

                      4                      5                      6
                      A                      A                      A
 Frequencies --     51.8751                61.4550                68.5106
 Red. masses --      3.1523                 4.0331                 2.2188
 Frc consts  --      0.0050                 0.0090                 0.0061
 IR Inten    --      1.2973                 0.3830                 5.8721

                      7                      8                      9
                      A                      A                      A
 Frequencies --     85.0729                90.1414                97.1248
 Red. masses --      1.8716                 1.6378                 1.7021
 Frc consts  --      0.0080                 0.0078                 0.0095
 IR Inten    --      1.7387                 2.7414                 1.1253

                     10                     11                     12
                      A                      A                      A
 Frequencies --    115.4237               127.2908               156.4663
 Red. masses --      6.6391                 7.4914                 7.1908
 Frc consts  --      0.0521                 0.0715                 0.1037
 IR Inten    --      0.6510                 5.4259                 0.9395

                     13                     14                     15
                      A                      A                      A
 Frequencies --    202.2522               207.7510               257.7804
 Red. masses --      4.6087                 8.1391                 5.8449
 Frc consts  --      0.1111                 0.2070                 0.2288
 IR Inten    --      0.0390                 0.4431                 0.9556

                     16                     17                     18
                      A                      A                      A
 Frequencies --    266.5657               302.3213               317.7019
 Red. masses --      6.1758                 4.8019                 3.8138
 Frc consts  --      0.2586                 0.2586                 0.2268
 IR Inten    --      1.2082                 0.0001                 4.2858

                     19                     20                     21
                      A                      A                      A
 Frequencies --    318.3803               336.7437               391.4248
 Red. masses --      7.5950                 5.8115                 7.0345
 Frc consts  --      0.4536                 0.3883                 0.6350
 IR Inten    --      2.0446                 0.4770                 3.6058

                     22                     23                     24
                      A                      A                      A
 Frequencies --    410.6991               429.1028               446.7777
 Red. masses --     10.2349                 5.3194                 7.5975
 Frc consts  --      1.0171                 0.5771                 0.8935
 IR Inten    --     18.0300                 0.2850                 1.9583

                     25                     26                     27
                      A                      A                      A
 Frequencies --    466.6907               486.4508               491.5828
 Red. masses --      5.9591                 8.5788                 3.9344
 Frc consts  --      0.7647                 1.1961                 0.5602
 IR Inten    --      5.5816                 2.8194                 0.0071

                     28                     29                     30
                      A                      A                      A
 Frequencies --    512.8503               547.8080               551.7412
 Red. masses --      5.2341                 5.3211                 5.8381
 Frc consts  --      0.8111                 0.9408                 1.0471
 IR Inten    --      8.0553                 2.6301                 1.8276

                     31                     32                     33
                      A                      A                      A
 Frequencies --    557.5170               580.1967               586.9185
 Red. masses --      4.1988                 2.9819                 3.4225
 Frc consts  --      0.7689                 0.5914                 0.6946
 IR Inten    --     17.8601                14.1676                 0.7505

                     34                     35                     36
                      A                      A                      A
 Frequencies --    631.6309               657.5923               677.2077
 Red. masses --      5.7280                 5.6683                 6.0125
 Frc consts  --      1.3464                 1.4442                 1.6246
 IR Inten    --      3.8575                 6.9641                 0.6046

                     37                     38                     39
                      A                      A                      A
 Frequencies --    705.2837               712.6544               735.4245
 Red. masses --      3.7649                 7.2266                 3.1411
 Frc consts  --      1.1034                 2.1624                 1.0009
 IR Inten    --     30.6294                 0.1059                 0.4015

                     40                     41                     42
                      A                      A                      A
 Frequencies --    759.1172               788.3702               795.2127
 Red. masses --      3.7196                 5.9572                 2.0218
 Frc consts  --      1.2629                 2.1815                 0.7533
 IR Inten    --     20.9122                11.6228                 9.3274

                     43                     44                     45
                      A                      A                      A
 Frequencies --    808.2834               835.0243               847.1749
 Red. masses --      2.9660                 3.5380                 3.3135
 Frc consts  --      1.1417                 1.4535                 1.4011
 IR Inten    --     19.1144                11.7222                24.3829

                     46                     47                     48
                      A                      A                      A
 Frequencies --    886.9115               899.1517               925.1108
 Red. masses --      4.0912                 4.8407                 6.3632
 Frc consts  --      1.8961                 2.3058                 3.2086
 IR Inten    --     96.2586                54.4459                 5.6297

                     49                     50                     51
                      A                      A                      A
 Frequencies --    953.6745               954.8225               981.0236
 Red. masses --      1.5212                 1.5466                 4.1645
 Frc consts  --      0.8151                 0.8307                 2.3614
 IR Inten    --      3.2418                 1.2329                15.7220

                     52                     53                     54
                      A                      A                      A
 Frequencies --   1008.0232              1010.3291              1011.6447
 Red. masses --      2.0808                 1.3661                 1.3374
 Frc consts  --      1.2458                 0.8216                 0.8064
 IR Inten    --     22.9627                 2.0953                 1.1513

                     55                     56                     57
                      A                      A                      A
 Frequencies --   1027.1962              1056.3837              1060.6312
 Red. masses --      2.3225                 3.1507                 1.9621
 Frc consts  --      1.4438                 2.0716                 1.3005
 IR Inten    --    225.5315                22.7743                 5.1427

                     58                     59                     60
                      A                      A                      A
 Frequencies --   1061.4027              1088.9023              1108.1085
 Red. masses --      1.7702                 2.4643                 1.7115
 Frc consts  --      1.1750                 1.7216                 1.2382
 IR Inten    --      1.6846                 0.4829                 1.1499

                     61                     62                     63
                      A                      A                      A
 Frequencies --   1174.0628              1185.1549              1186.4271
 Red. masses --      2.7040                 2.9643                 1.2033
 Frc consts  --      2.1960                 2.4531                 0.9980
 IR Inten    --     30.3001               122.5516                 5.0617

                     64                     65                     66
                      A                      A                      A
 Frequencies --   1189.3424              1201.8160              1235.9464
 Red. masses --      1.2504                 3.6915                 2.6479
 Frc consts  --      1.0421                 3.1415                 2.3831
 IR Inten    --     11.8388              1013.6961                17.0448

                     67                     68                     69
                      A                      A                      A
 Frequencies --   1256.3415              1262.5101              1268.7071
 Red. masses --      3.3892                 2.9840                 3.8917
 Frc consts  --      3.1519                 2.8024                 3.6907
 IR Inten    --     14.2997                30.3336               260.3967

                     70                     71                     72
                      A                      A                      A
 Frequencies --   1321.4310              1346.4497              1351.3445
 Red. masses --      4.0994                 8.7961                 9.2228
 Frc consts  --      4.2175                 9.3955                 9.9231
 IR Inten    --    222.3883               108.7276                 2.2588

                     73                     74                     75
                      A                      A                      A
 Frequencies --   1393.3806              1396.3532              1461.3763
 Red. masses --      1.3138                 1.3149                 3.8160
 Frc consts  --      1.5028                 1.5105                 4.8015
 IR Inten    --      0.0185               126.9572                54.5707

                     76                     77                     78
                      A                      A                      A
 Frequencies --   1470.5291              1471.6720              1473.2572
 Red. masses --      1.0503                 2.8508                 1.1007
 Frc consts  --      1.3382                 3.6378                 1.4076
 IR Inten    --      0.3844                 3.3430                18.5574

                     79                     80                     81
                      A                      A                      A
 Frequencies --   1473.7379              1476.8484              1487.6107
 Red. masses --      1.0521                 1.0888                 2.5134
 Frc consts  --      1.3463                 1.3992                 3.2771
 IR Inten    --     15.8164                 8.2275                 4.7276

                     82                     83                     84
                      A                      A                      A
 Frequencies --   1490.5956              1605.1618              1611.9920
 Red. masses --      2.6792                 6.5437                 6.7104
 Frc consts  --      3.5073                 9.9337                10.2736
 IR Inten    --      1.0857                 5.9035                18.2756

                     85                     86                     87
                      A                      A                      A
 Frequencies --   1627.5861              1628.5876              1718.9273
 Red. masses --      6.8055                 6.2273                12.5195
 Frc consts  --     10.6219                 9.7313                21.7948
 IR Inten    --    145.8744                 7.0301                98.8314

                     88                     89                     90
                      A                      A                      A
 Frequencies --   1728.3582              1832.6123              1836.1617
 Red. masses --     12.4131                11.8140                11.8211
 Frc consts  --     21.8474                23.3769                23.4817
 IR Inten    --    336.4304                13.8429               433.4671

                     91                     92                     93
                      A                      A                      A
 Frequencies --   3054.1976              3054.5836              3118.0483
 Red. masses --      1.0355                 1.0355                 1.0999
 Frc consts  --      5.6911                 5.6923                 6.3006
 IR Inten    --      0.3853                 4.3651                 5.1306

                     94                     95                     96
                      A                      A                      A
 Frequencies --   3118.3139              3157.7869              3157.9161
 Red. masses --      1.0998                 1.1039                 1.1039
 Frc consts  --      6.3011                 6.4856                 6.4859
 IR Inten    --      1.6440                 0.8982                11.1609

                     97                     98                     99
                      A                      A                      A
 Frequencies --   3180.5093              3180.5620              3198.6451
 Red. masses --      1.0882                 1.0882                 1.0934
 Frc consts  --      6.4859                 6.4861                 6.5912
 IR Inten    --      4.4357                 6.1543                 4.6058

                    100                    101                    102
                      A                      A                      A
 Frequencies --   3198.7122              3208.1761              3208.6053
 Red. masses --      1.0934                 1.0942                 1.0944
 Frc consts  --      6.5916                 6.6354                 6.6381
 IR Inten    --      0.4988                 9.2855                 0.1117

 - Thermochemistry -
 -------------------
 Temperature   298.150 Kelvin.  Pressure   1.00000 Atm.
 Atom     1 has atomic number  6 and mass  12.00000

 Molecular mass:   324.06339 amu.
 Principal axes and moments of inertia in atomic units:
                           1         2         3
     Eigenvalues --  5868.524737382.95218**********
           X            0.94063   0.06508  -0.33313
           Y           -0.14633   0.96331  -0.22501
           Z            0.30626   0.26040   0.91564
 This molecule is an asymmetric top.
 Rotational symmetry number  1.
 Warning -- assumption of classical behavior for rotation
           may cause significant error
 Rotational temperatures (Kelvin)      0.01476     0.01173     0.00694
 Rotational constants (GHZ):           0.30753     0.24445     0.14464
 Zero-point vibrational energy     685498.2 (Joules/Mol)
                                  163.83799 (Kcal/Mol)
 Warning -- explicit consideration of  33 degrees of freedom as
           vibrations may cause significant error
 Vibrational temperatures:     33.31    35.91    70.47    74.64    88.42
          (Kelvin)             98.57   122.40   129.69   139.74   166.07
                              183.14   225.12   291.00   298.91   370.89
                              383.53   434.97   457.10   458.08   484.50
                              563.17   590.90   617.38   642.81   671.46
                              699.89   707.28   737.88   788.17   793.83
                              802.14   834.77   844.44   908.78   946.13
                              974.35  1014.75  1025.35  1058.11  1092.20
                             1134.29  1144.13  1162.94  1201.41  1218.90
                             1276.07  1293.68  1331.03  1372.12  1373.78
                             1411.47  1450.32  1453.64  1455.53  1477.91
                             1519.90  1526.01  1527.12  1566.69  1594.32
                             1689.21  1705.17  1707.00  1711.20  1729.15
                             1778.25  1807.60  1816.47  1825.39  1901.24
                             1937.24  1944.28  2004.76  2009.04  2102.59
                             2115.76  2117.41  2119.69  2120.38  2124.86
                             2140.34  2144.63  2309.47  2319.30  2341.73
                             2343.17  2473.15  2486.72  2636.72  2641.83
                             4394.31  4394.86  4486.18  4486.56  4543.35
                             4543.54  4576.04  4576.12  4602.14  4602.23
                             4615.85  4616.47

 Zero-point correction=                           0.261092 (Hartree/Particle)
 Thermal correction to Energy=                    0.281883
 Thermal correction to Enthalpy=                  0.282827
 Thermal correction to Gibbs Free Energy=         0.209097
 Sum of electronic and zero-point Energies=          -1144.568682
 Sum of electronic and thermal Energies=             -1144.547891
 Sum of electronic and thermal Enthalpies=           -1144.546947
 Sum of electronic and thermal Free Energies=        -1144.620677

                     E (Thermal)             CV                S
                      KCal/Mol        Cal/Mol-Kelvin    Cal/Mol-Kelvin
 Total                  176.884             77.514            155.177
 Electronic               0.000              0.000              0.000
 Translational            0.889              2.981             43.223
 Rotational               0.889              2.981             34.646
 Vibrational            175.107             71.552             77.308
 Vibration     1          0.593              1.985              6.344
 Vibration     2          0.593              1.985              6.194
 Vibration     3          0.595              1.978              4.858
 Vibration     4          0.596              1.977              4.745
 Vibration     5          0.597              1.973              4.410
 Vibration     6          0.598              1.969              4.196
 Vibration     7          0.601              1.960              3.770
 Vibration     8          0.602              1.956              3.657
 Vibration     9          0.603              1.951              3.511
 Vibration    10          0.608              1.937              3.176
 Vibration    11          0.611              1.926              2.987
 Vibration    12          0.620              1.895              2.592
 Vibration    13          0.639              1.837              2.113
 Vibration    14          0.641              1.829              2.063
 Vibration    15          0.667              1.750              1.677
 Vibration    16          0.672              1.734              1.618
 Vibration    17          0.694              1.669              1.404
 Vibration    18          0.704              1.640              1.322
 Vibration    19          0.705              1.638              1.318
 Vibration    20          0.717              1.602              1.228
 Vibration    21          0.759              1.489              0.995
 Vibration    22          0.775              1.447              0.924
 Vibration    23          0.790              1.407              0.862
 Vibration    24          0.806              1.368              0.806
 Vibration    25          0.824              1.324              0.747
 Vibration    26          0.842              1.280              0.693
 Vibration    27          0.847              1.269              0.680
 Vibration    28          0.868              1.222              0.627
 Vibration    29          0.903              1.144              0.549
 Vibration    30          0.907              1.136              0.541
 Vibration    31          0.913              1.123              0.529
 Vibration    32          0.937              1.074              0.485
 Vibration    33          0.944              1.060              0.473

                           ! Non-Optimized Parameters !
 Normal termination of Gaussian 16 at Thu Dec 21 18:31:30 2023.
