 Q-Chem 5.4, Q-Chem, Inc., Pleasanton, CA (2021)
 Q-Chem 5.4.0 for Intel X86 EM64T Linux

User input:
--------------------------------------------------------------
$molecule
-2 1
C                 -1.7105020000      2.9272360000     -0.8319000000
C                 -2.8461770000      2.1983630000     -0.5120390000
C                 -2.7171110000      0.8922520000     -0.0420790000
C                 -0.4376520000      2.3674130000     -0.6908970000
C                 -0.2932210000      1.0333230000     -0.2214800000
C                 -1.4517790000      0.3074770000      0.0978890000
C                  0.7320810000      3.1959900000     -1.0471010000
C                  2.1372190000      2.5575490000     -0.8727050000
C                  2.1815290000      1.1897350000     -0.3952200000
C                  1.0712100000      0.4752020000     -0.0934420000
O                  0.6461350000      4.3395900000     -1.4641450000
O                  3.1327940000      3.2172220000     -1.1416160000
H                 -1.7829430000      3.9443770000     -1.2000160000
H                 -3.8401590000      2.6118290000     -0.6293510000
S                 -4.2567660000      0.0074620000      0.4364720000
H                 -1.3737910000     -0.7129130000      0.4483090000
H                  3.1547460000      0.7286680000     -0.2776610000
S                  1.3563290000     -1.2576260000      0.4858990000
O                  2.8327320000     -1.4134140000      0.4870620000
O                  0.6613070000     -2.0797430000     -0.5322920000
O                  0.7437360000     -1.2827450000      1.8347140000
O                 -4.3635740000      0.2520900000      1.8984880000
O                 -4.0333940000     -1.4060870000      0.0608230000
O                 -5.3159810000      0.6926910000     -0.3567920000
$end

$rem
BASIS  =  6-311++G(d,p)
GUI  =  2
JOB_TYPE  =  SP
METHOD  =  B3LYP
SCF_CONVERGENCE  = 8
SOLVENT_METHOD = sm12
$end

$smx
solvent dimethylformamide
charges CM5
$end

--------------------------------------------------------------

             Standard Nuclear Orientation (Angstroms)
    I     Atom           X                Y                Z
 ----------------------------------------------------------------
    1      C      -1.7105020000     2.9272360000    -0.8319000000
    2      C      -2.8461770000     2.1983630000    -0.5120390000
    3      C      -2.7171110000     0.8922520000    -0.0420790000
    4      C      -0.4376520000     2.3674130000    -0.6908970000
    5      C      -0.2932210000     1.0333230000    -0.2214800000
    6      C      -1.4517790000     0.3074770000     0.0978890000
    7      C       0.7320810000     3.1959900000    -1.0471010000
    8      C       2.1372190000     2.5575490000    -0.8727050000
    9      C       2.1815290000     1.1897350000    -0.3952200000
   10      C       1.0712100000     0.4752020000    -0.0934420000
   11      O       0.6461350000     4.3395900000    -1.4641450000
   12      O       3.1327940000     3.2172220000    -1.1416160000
   13      H      -1.7829430000     3.9443770000    -1.2000160000
   14      H      -3.8401590000     2.6118290000    -0.6293510000
   15      S      -4.2567660000     0.0074620000     0.4364720000
   16      H      -1.3737910000    -0.7129130000     0.4483090000
   17      H       3.1547460000     0.7286680000    -0.2776610000
   18      S       1.3563290000    -1.2576260000     0.4858990000
   19      O       2.8327320000    -1.4134140000     0.4870620000
   20      O       0.6613070000    -2.0797430000    -0.5322920000
   21      O       0.7437360000    -1.2827450000     1.8347140000
   22      O      -4.3635740000     0.2520900000     1.8984880000
   23      O      -4.0333940000    -1.4060870000     0.0608230000
   24      O      -5.3159810000     0.6926910000    -0.3567920000
 ----------------------------------------------------------------

   16   -1781.9445839022      5.72e-09  Convergence criterion met
 Total energy in the final basis set =    -1782.1907923333

                    Orbital Energies (a.u.)
 --------------------------------------------------------------

 Alpha MOs
 -- Occupied --
-89.0429 -89.0362 -19.1445 -19.1404 -19.0862 -19.0861 -19.0859 -19.0798
-19.0791 -19.0789 -10.2853 -10.2802 -10.2364 -10.2268 -10.2164 -10.2118
-10.2061 -10.2038 -10.2004 -10.1979  -8.1015  -8.0949  -6.0641  -6.0639
 -6.0638  -6.0574  -6.0573  -6.0571  -1.1063  -1.0982  -1.0823  -1.0542
 -0.9701  -0.9694  -0.9635  -0.9598  -0.8997  -0.8440  -0.7909  -0.7706
 -0.7218  -0.6597  -0.6462  -0.6234  -0.5875  -0.5665  -0.5458  -0.5205
 -0.5063  -0.4904  -0.4794  -0.4651  -0.4613  -0.4585  -0.4556  -0.4446
 -0.4435  -0.4402  -0.4346  -0.4235  -0.4107  -0.4057  -0.3918  -0.3787
 -0.3453  -0.3282  -0.3256  -0.3217  -0.3205  -0.3165  -0.3051  -0.2935
 -0.2894  -0.2869  -0.2841  -0.2821  -0.2703  -0.2614  -0.2590  -0.2487
 -0.2419

          Ground-State Mulliken Net Atomic Charges

     Atom                 Charge (a.u.)
  ----------------------------------------
      1 C                     1.900747
      2 C                    -0.277742
      3 C                    -2.288896
      4 C                     0.679259
      5 C                     0.150432
      6 C                    -1.495397
      7 C                     0.152748
      8 C                     1.374177
      9 C                     0.260126
     10 C                    -1.646150
     11 O                    -0.113500
     12 O                    -0.192376
     13 H                     0.384193
     14 H                     0.324567
     15 S                     0.193812
     16 H                    -0.098312
     17 H                     0.288645
     18 S                     0.275710
     19 O                    -0.153725
     20 O                    -0.344563
     21 O                    -0.350461
     22 O                    -0.326444
     23 O                    -0.395735
     24 O                    -0.301115
  ----------------------------------------
  Sum of atomic charges =    -2.000000

                    Cartesian Multipole Moments
 -----------------------------------------------------------------
    Charge (ESU x 10^10)
                -9.6064
    Dipole Moment (Debye)
         X      11.0671      Y       2.6270      Z      -3.2741
       Tot      11.8365
    Quadrupole Moments (Debye-Ang)
        XX    -263.2941     XY     -10.1230     YY    -181.5883
        XZ      13.6168     YZ      12.4729     ZZ    -153.8741

 Total job time:  615.78s(wall), 4486.76s(cpu)
        *  Thank you very much for using Q-Chem.  Have a nice day.  *
