 Gaussian 16, Revision A.03,
 Gaussian 16:  ES64L-G16RevA.03 25-Dec-2016

 -------------------------------
 #P UB3LYP/genecp nosym opt freq
 -------------------------------

 -------
 Radical
 -------
 Symbolic Z-matrix:
 Charge = -1 Multiplicity = 2

 SCF Done:  E(UB3LYP) =  -976.039187882     A.U. after   22 cycles
 SCF Done:  E(UB3LYP) =  -976.051167070     A.U. after   19 cycles
 SCF Done:  E(UB3LYP) =  -976.051590387     A.U. after   16 cycles
 SCF Done:  E(UB3LYP) =  -976.051650965     A.U. after   14 cycles
 SCF Done:  E(UB3LYP) =  -976.051652945     A.U. after   12 cycles
 Optimization completed.
    -- Stationary point found.
 Normal termination of Gaussian 16 at Thu Dec 21 03:44:26 2023.

 ------------------------------------------------------------------
 #P Geom=AllCheck Guess=TCheck SCRF=Check GenChk UB3LYP/GenECP Freq
 ------------------------------------------------------------------

 Structure from the checkpoint file:  "013-rad.chk"
 -------
 Radical
 -------
 Charge = -1 Multiplicity = 2

                          Input orientation:
 ---------------------------------------------------------------------
 Center     Atomic      Atomic             Coordinates (Angstroms)
 Number     Number       Type             X           Y           Z
 ---------------------------------------------------------------------
      1         53           0       -2.797916   -2.052882    0.003992
      2          6           0       -1.119934   -0.744272    0.000727
      3          6           0       -1.319051    0.605714   -0.016302
      4          6           0       -0.205089    1.536293   -0.019190
      5          8           0       -0.371451    2.783941   -0.034841
      6          6           0        1.113720    0.930544   -0.002922
      7          6           0        1.276004   -0.424596    0.013919
      8         53           0        3.238427   -1.246460    0.037255
      9          6           0        0.186461   -1.395912    0.017519
     10          8           0        0.350968   -2.632297    0.032920
     11          1           0       -2.313221    1.034979   -0.028286
     12          1           0        1.961080    1.604948   -0.004790
 ---------------------------------------------------------------------

 SCF Done:  E(UB3LYP) =  -976.051652945     A.U. after    1 cycles

 Alpha  occ. eigenvalues --  -18.96360 -18.96025 -10.11934 -10.10805 -10.09721
 Alpha  occ. eigenvalues --  -10.09718 -10.05811 -10.05811  -6.72187  -6.72185
 Alpha  occ. eigenvalues --   -4.74569  -4.74567  -4.73515  -4.73513  -4.73454
 Alpha  occ. eigenvalues --   -4.73451  -1.79391  -1.79388  -1.79044  -1.79041
 Alpha  occ. eigenvalues --   -1.78998  -1.78995  -1.78084  -1.78083  -1.78081
 Alpha  occ. eigenvalues --   -1.78080  -0.89278  -0.88202  -0.72228  -0.65694
 Alpha  occ. eigenvalues --   -0.59463  -0.56721  -0.55701  -0.46537  -0.44796
 Alpha  occ. eigenvalues --   -0.37050  -0.35756  -0.30128  -0.29993  -0.29135
 Alpha  occ. eigenvalues --   -0.28542  -0.26082  -0.25118  -0.22345  -0.19332
 Alpha  occ. eigenvalues --   -0.18296  -0.14801  -0.14616  -0.14052  -0.12650
 Alpha  occ. eigenvalues --   -0.12244  -0.11825  -0.04828
 Alpha virt. eigenvalues --    0.06594   0.09342   0.09750   0.10478   0.11387
 Alpha virt. eigenvalues --    0.14121   0.14668   0.16469   0.17019   0.17569
 Alpha virt. eigenvalues --    0.18025   0.20206   0.20447   0.20580   0.22403

  Beta  occ. eigenvalues --  -18.95644 -18.95241 -10.11833 -10.10734 -10.09616
  Beta  occ. eigenvalues --  -10.09613 -10.05673 -10.05671  -6.72188  -6.72185
  Beta  occ. eigenvalues --   -4.74573  -4.74570  -4.73513  -4.73510  -4.73454
  Beta  occ. eigenvalues --   -4.73451  -1.79394  -1.79391  -1.79044  -1.79041
  Beta  occ. eigenvalues --   -1.79001  -1.78999  -1.78082  -1.78081  -1.78079
  Beta  occ. eigenvalues --   -1.78078  -0.88058  -0.86849  -0.71609  -0.65448
  Beta  occ. eigenvalues --   -0.59003  -0.56570  -0.55025  -0.46153  -0.44381
  Beta  occ. eigenvalues --   -0.36830  -0.35330  -0.29332  -0.29003  -0.28361
  Beta  occ. eigenvalues --   -0.27967  -0.24773  -0.23180  -0.22154  -0.18868
  Beta  occ. eigenvalues --   -0.16070  -0.14667  -0.14601  -0.12357  -0.12013
  Beta  occ. eigenvalues --   -0.11755  -0.11214
  Beta virt. eigenvalues --    0.02466   0.06725   0.09827   0.10496   0.10806
  Beta virt. eigenvalues --    0.11406   0.14706   0.16202   0.16522   0.17030
  Beta virt. eigenvalues --    0.17959   0.18078   0.20369   0.20508   0.20735

 Mulliken charges and spin densities:
               1          2
     1  I   -0.181750  -0.002666
     2  C    1.591551   0.088243
     3  C   -0.424996   0.109882
     4  C   -0.249154   0.078399
     5  O   -0.397756   0.277671
     6  C   -0.424024   0.110352
     7  C    1.591860   0.088247
     8  I   -0.181722  -0.002653
     9  C   -2.339234   0.002951
    10  O   -0.241557   0.265342
    11  H    0.128409  -0.007872
    12  H    0.128373  -0.007895
 Sum of Mulliken charges =  -1.00000   1.00000

 Dipole moment (field-independent basis, Debye):
    X=             -0.2293    Y=              1.7254    Z=             -0.0215  Tot=              1.7407
 Quadrupole moment (field-independent basis, Debye-Ang):
   XX=           -117.7386   YY=           -138.1565   ZZ=           -103.9842
   XY=              2.7676   XZ=             -0.1291   YZ=              0.4149

  Exact polarizability: 216.934   2.697 197.208   0.832  -1.169  94.550
 Approx polarizability: 304.302  -9.559 374.930   1.155  -2.597 156.301

                      1                      2                      3
                      A                      A                      A
 Frequencies --     64.4081                92.0658               144.0888
 Red. masses --     16.8245                35.7285                11.4890
 Frc consts  --      0.0411                 0.1784                 0.1405
 IR Inten    --      3.9960                 1.8985                 4.9183

                      4                      5                      6
                      A                      A                      A
 Frequencies --    169.1957               184.4686               206.1333
 Red. masses --      4.9417                13.3304                19.8425
 Frc consts  --      0.0833                 0.2673                 0.4968
 IR Inten    --      0.0001                 0.3988                 1.4986

                      7                      8                      9
                      A                      A                      A
 Frequencies --    235.3499               319.3501               426.7772
 Red. masses --     15.8809                 7.0032                 8.8906
 Frc consts  --      0.5183                 0.4208                 0.9541
 IR Inten    --      2.0917                 1.8388                16.6366

                     10                     11                     12
                      A                      A                      A
 Frequencies --    448.5155               476.1997               595.8278
 Red. masses --      5.4640                12.6820                 6.4264
 Frc consts  --      0.6476                 1.6944                 1.3442
 IR Inten    --      0.0000                 0.0010                 9.8537

                     13                     14                     15
                      A                      A                      A
 Frequencies --    619.7696               678.6689               733.0974
 Red. masses --      2.9545                 9.5576                10.2470
 Frc consts  --      0.6687                 2.5937                 3.2447
 IR Inten    --      0.0321                62.4558                 2.8839

                     16                     17                     18
                      A                      A                      A
 Frequencies --    813.4333               854.4609               865.4233
 Red. masses --      6.8016                 1.3029                 9.0336
 Frc consts  --      2.6516                 0.5605                 3.9863
 IR Inten    --     46.8158                 0.0001                27.9670

                     19                     20                     21
                      A                      A                      A
 Frequencies --    871.5050               982.7813              1089.6487
 Red. masses --      1.6223                 2.9218                 5.0033
 Frc consts  --      0.7260                 1.6627                 3.5001
 IR Inten    --     29.9648                78.4514                45.1833

                     22                     23                     24
                      A                      A                      A
 Frequencies --   1224.6422              1291.2256              1356.3108
 Red. masses --      1.7059                 1.6348                 5.2385
 Frc consts  --      1.5074                 1.6059                 5.6778
 IR Inten    --      2.5074                 3.3773               111.3355

                     25                     26                     27
                      A                      A                      A
 Frequencies --   1466.6773              1511.9658              1538.9014
 Red. masses --      6.2148                11.5973                 9.9293
 Frc consts  --      7.8767                15.6204                13.8545
 IR Inten    --      6.6235               149.4083               279.2451

                     28                     29                     30
                      A                      A                      A
 Frequencies --   1602.7279              3187.7365              3188.6749
 Red. masses --      8.3821                 1.0909                 1.0908
 Frc consts  --     12.6859                 6.5314                 6.5345
 IR Inten    --     25.1343                 0.3268                 6.8018

 - Thermochemistry -
 -------------------
 Temperature   298.150 Kelvin.  Pressure   1.00000 Atm.
 Atom     1 has atomic number 53 and mass 126.90040

 Molecular mass:   359.80628 amu.
 Principal axes and moments of inertia in atomic units:
                           1         2         3
     Eigenvalues --  1968.597838691.49890**********
           X            0.99118  -0.13235  -0.00705
           Y            0.13243   0.99113   0.01156
           Z            0.00546  -0.01240   0.99991
 This molecule is an asymmetric top.
 Rotational symmetry number  1.
 Warning -- assumption of classical behavior for rotation
           may cause significant error
 Rotational temperatures (Kelvin)      0.04400     0.00997     0.00813
 Rotational constants (GHZ):           0.91676     0.20764     0.16930
 Zero-point vibrational energy     162931.6 (Joules/Mol)
                                   38.94158 (Kcal/Mol)
 Warning -- explicit consideration of  13 degrees of freedom as
           vibrations may cause significant error
 Vibrational temperatures:     92.67   132.46   207.31   243.43   265.41
          (Kelvin)            296.58   338.62   459.47   614.04   645.31
                              685.15   857.26   891.71   976.45  1054.76
                             1170.35  1229.38  1245.15  1253.90  1414.00
                             1567.76  1761.99  1857.79  1951.43  2110.22
                             2175.38  2214.14  2305.97  4586.44  4587.79

 Zero-point correction=                           0.062057 (Hartree/Particle)
 Thermal correction to Energy=                    0.071454
 Thermal correction to Enthalpy=                  0.072398
 Thermal correction to Gibbs Free Energy=         0.023004
 Sum of electronic and zero-point Energies=           -975.989596
 Sum of electronic and thermal Energies=              -975.980199
 Sum of electronic and thermal Enthalpies=            -975.979255
 Sum of electronic and thermal Free Energies=         -976.028649

                     E (Thermal)             CV                S
                      KCal/Mol        Cal/Mol-Kelvin    Cal/Mol-Kelvin
 Total                   44.838             32.247            103.957
 Electronic               0.000              0.000              1.377
 Translational            0.889              2.981             43.535
 Rotational               0.889              2.981             33.566
 Vibrational             43.060             26.285             25.478
 Vibration     1          0.597              1.971              4.317
 Vibration     2          0.602              1.955              3.616
 Vibration     3          0.616              1.909              2.749
 Vibration     4          0.625              1.880              2.444
 Vibration     5          0.631              1.861              2.283
 Vibration     6          0.641              1.831              2.078
 Vibration     7          0.655              1.787              1.838
 Vibration     8          0.705              1.637              1.313
 Vibration     9          0.788              1.412              0.869
 Vibration    10          0.808              1.364              0.800
 Vibration    11          0.833              1.303              0.720
 Vibration    12          0.954              1.041              0.457
 Vibration    13          0.980              0.990              0.417

 Optimization completed.
    -- Stationary point found.
 Normal termination of Gaussian 16 at Thu Dec 21 03:52:27 2023.
