 Gaussian 16, Revision A.03,
 Gaussian 16:  ES64L-G16RevA.03 25-Dec-2016

 ----------------------------------------------------------------------
 #P UB3LYP/6-311++G(d,p) nosym opt freq SCRF=(PCM,Solvent=n,n-DiMethylF
 ormamide)
 ----------------------------------------------------------------------

 -------
 Reduced
 -------
 Symbolic Z-matrix:
 Charge = -2 Multiplicity = 1

 SCF Done:  E(UB3LYP) =  -539.114141573     A.U. after   17 cycles
 SCF Done:  E(UB3LYP) =  -539.115284221     A.U. after   14 cycles
 SCF Done:  E(UB3LYP) =  -539.114958096     A.U. after   14 cycles
 SCF Done:  E(UB3LYP) =  -539.115433579     A.U. after   13 cycles
 SCF Done:  E(UB3LYP) =  -539.115572018     A.U. after   13 cycles
 SCF Done:  E(UB3LYP) =  -539.115592961     A.U. after   12 cycles
 SCF Done:  E(UB3LYP) =  -539.115600257     A.U. after   12 cycles
 SCF Done:  E(UB3LYP) =  -539.115600773     A.U. after   10 cycles
 SCF Done:  E(UB3LYP) =  -539.115600886     A.U. after    9 cycles
 Optimization completed.
    -- Stationary point found.
 Normal termination of Gaussian 16 at Sat Feb 10 10:40:17 2024.

 ----------------------------------------------------------------------
 #P Geom=AllCheck Guess=TCheck SCRF=Check GenChk UB3LYP/6-311++G(d,p) F
 req
 ----------------------------------------------------------------------

 Structure from the checkpoint file:  "033-an.chk"
 -------
 Reduced
 -------
 Charge = -2 Multiplicity = 1

                          Input orientation:
 ---------------------------------------------------------------------
 Center     Atomic      Atomic             Coordinates (Angstroms)
 Number     Number       Type             X           Y           Z
 ---------------------------------------------------------------------
      1          6           0       -1.794692    1.111668    0.651389
      2          6           0       -1.131242   -0.088879   -0.065343
      3          6           0       -1.664209   -1.372596    0.601462
      4          6           0       -1.585698   -0.118679   -1.544196
      5          6           0        0.405908    0.050172    0.006735
      6          6           0        1.178282   -0.922298    0.666890
      7          6           0        2.596131   -0.899736    0.803698
      8          8           0        3.265083   -1.846161    1.442441
      9          6           0        3.215340    0.220914    0.196372
     10          6           0        2.472875    1.205544   -0.466553
     11          6           0        1.057038    1.188497   -0.599949
     12          8           0        0.419768    2.154964   -1.233215
     13          1           0       -2.886715    1.067331    0.554967
     14          1           0       -1.552711    1.099949    1.719886
     15          1           0       -1.436080    2.047158    0.221653
     16          1           0       -2.754804   -1.403893    0.505178
     17          1           0       -1.425490   -1.413548    1.668203
     18          1           0       -1.264195   -2.275845    0.131179
     19          1           0       -1.188843   -1.007129   -2.047839
     20          1           0       -2.679997   -0.156243   -1.613268
     21          1           0       -1.222219    0.769764   -2.060743
     22          1           0        0.680472   -1.773090    1.122267
     23          1           0        4.299851    0.312458    0.254249
     24          1           0        2.996147    2.049677   -0.915461
 ---------------------------------------------------------------------

 SCF Done:  E(UB3LYP) =  -539.115600886     A.U. after    3 cycles

 Alpha  occ. eigenvalues --  -19.00553 -19.00057 -10.16074 -10.15778 -10.15733
 Alpha  occ. eigenvalues --  -10.13853 -10.13135 -10.13018 -10.12521 -10.11413
 Alpha  occ. eigenvalues --  -10.11361 -10.11167  -0.90796  -0.90384  -0.79787
 Alpha  occ. eigenvalues --   -0.75940  -0.68502  -0.66462  -0.66048  -0.63539
 Alpha  occ. eigenvalues --   -0.56717  -0.53028  -0.49376  -0.43624  -0.42687
 Alpha  occ. eigenvalues --   -0.41616  -0.41359  -0.39525  -0.38643  -0.37475
 Alpha  occ. eigenvalues --   -0.35639  -0.34602  -0.34076  -0.33534  -0.33168
 Alpha  occ. eigenvalues --   -0.31024  -0.30946  -0.29795  -0.29132  -0.29094
 Alpha  occ. eigenvalues --   -0.21151  -0.20362  -0.18599  -0.17897  -0.11150
 Alpha virt. eigenvalues --    0.00077   0.01316   0.01802   0.02343   0.02705
 Alpha virt. eigenvalues --    0.03180   0.03437   0.04497   0.04766   0.05669
 Alpha virt. eigenvalues --    0.05740   0.06321   0.07255   0.07366   0.08530

  Beta  occ. eigenvalues --  -19.00553 -19.00057 -10.16074 -10.15778 -10.15733
  Beta  occ. eigenvalues --  -10.13853 -10.13135 -10.13018 -10.12521 -10.11413
  Beta  occ. eigenvalues --  -10.11361 -10.11167  -0.90796  -0.90384  -0.79787
  Beta  occ. eigenvalues --   -0.75940  -0.68502  -0.66462  -0.66048  -0.63539
  Beta  occ. eigenvalues --   -0.56717  -0.53028  -0.49376  -0.43624  -0.42687
  Beta  occ. eigenvalues --   -0.41616  -0.41359  -0.39525  -0.38643  -0.37475
  Beta  occ. eigenvalues --   -0.35639  -0.34602  -0.34076  -0.33534  -0.33168
  Beta  occ. eigenvalues --   -0.31024  -0.30946  -0.29795  -0.29132  -0.29094
  Beta  occ. eigenvalues --   -0.21151  -0.20362  -0.18599  -0.17897  -0.11150
  Beta virt. eigenvalues --    0.00077   0.01316   0.01802   0.02343   0.02705
  Beta virt. eigenvalues --    0.03180   0.03437   0.04497   0.04766   0.05669
  Beta virt. eigenvalues --    0.05740   0.06321   0.07255   0.07366   0.08530

 Mulliken charges and spin densities:
               1          2
     1  C   -0.681738  -0.000000
     2  C    0.624710  -0.000000
     3  C   -0.517929  -0.000000
     4  C   -0.669430  -0.000000
     5  C    1.095132   0.000000
     6  C   -0.454780  -0.000000
     7  C   -0.663679   0.000000
     8  O   -0.774209  -0.000000
     9  C    0.104971   0.000000
    10  C   -0.144024  -0.000000
    11  C   -0.858235  -0.000000
    12  O   -0.699641   0.000000
    13  H    0.127657   0.000000
    14  H    0.118268   0.000000
    15  H    0.178739   0.000000
    16  H    0.156324  -0.000000
    17  H    0.122782   0.000000
    18  H    0.124408   0.000000
    19  H    0.116836   0.000000
    20  H    0.127535   0.000000
    21  H    0.180230   0.000000
    22  H    0.141535  -0.000000
    23  H    0.121276   0.000000
    24  H    0.123261   0.000000
 Sum of Mulliken charges =  -2.00000   0.00000

 Dipole moment (field-independent basis, Debye):
    X=            -17.6664    Y=             -0.8349    Z=             -1.3416  Tot=             17.7369
 Quadrupole moment (field-independent basis, Debye-Ang):
   XX=           -136.8864   YY=           -117.6418   ZZ=            -99.7924
   XY=             21.0728   XZ=            -17.9911   YZ=             21.5528

  Exact polarizability: 248.542  -8.487 218.982  15.007 -41.224 177.275
 Approx polarizability: 258.832 -10.412 237.488  16.451 -48.205 188.670

                      1                      2                      3
                      A                      A                      A
 Frequencies --     68.2559               110.7649               165.1258
 Red. masses --      3.5303                 3.9169                 5.8640
 Frc consts  --      0.0097                 0.0283                 0.0942
 IR Inten    --      0.4105                 9.5342                15.7987

                      4                      5                      6
                      A                      A                      A
 Frequencies --    199.2678               239.0053               273.0166
 Red. masses --      3.2922                 1.0689                 2.2940
 Frc consts  --      0.0770                 0.0360                 0.1007
 IR Inten    --      6.1001                 0.7984                11.6537

                      7                      8                      9
                      A                      A                      A
 Frequencies --    283.5578               293.7261               325.8703
 Red. masses --      1.4374                 2.9654                 2.8029
 Frc consts  --      0.0681                 0.1507                 0.1754
 IR Inten    --      3.6167                 1.9061                17.1555

                     10                     11                     12
                      A                      A                      A
 Frequencies --    330.4994               366.2508               394.1332
 Red. masses --      1.0688                 3.9156                 3.3757
 Frc consts  --      0.0688                 0.3095                 0.3090
 IR Inten    --      0.7236                 0.5226                 6.2405

                     13                     14                     15
                      A                      A                      A
 Frequencies --    406.4788               411.5106               480.8466
 Red. masses --      2.7230                 4.0461                 7.0328
 Frc consts  --      0.2651                 0.4037                 0.9581
 IR Inten    --      0.0063                 2.1103                 0.0128

                     16                     17                     18
                      A                      A                      A
 Frequencies --    501.2552               528.4113               590.1358
 Red. masses --      2.6493                 3.8057                 3.7892
 Frc consts  --      0.3922                 0.6261                 0.7775
 IR Inten    --     15.1444                 2.5500                 0.6347

                     19                     20                     21
                      A                      A                      A
 Frequencies --    630.6732               695.7175               743.0917
 Red. masses --      2.6965                 6.2892                 2.3716
 Frc consts  --      0.6319                 1.7935                 0.7716
 IR Inten    --      9.7071                12.7904                 0.7311

                     22                     23                     24
                      A                      A                      A
 Frequencies --    799.7105               810.4687               812.2775
 Red. masses --      6.2353                 2.1700                 3.0704
 Frc consts  --      2.3495                 0.8398                 1.1936
 IR Inten    --    269.0442                56.0118                 1.6692

                     25                     26                     27
                      A                      A                      A
 Frequencies --    852.7922               894.1023               921.5859
 Red. masses --      1.7474                 1.3336                 1.7659
 Frc consts  --      0.7487                 0.6281                 0.8836
 IR Inten    --     47.8027                 2.0333                 1.3899

                     28                     29                     30
                      A                      A                      A
 Frequencies --    922.4856               931.2452               948.9025
 Red. masses --      1.7605                 3.4764                 1.2053
 Frc consts  --      0.8827                 1.7763                 0.6394
 IR Inten    --      5.5169                32.8176                 0.8247

                     31                     32                     33
                      A                      A                      A
 Frequencies --   1028.7157              1040.1575              1067.1621
 Red. masses --      1.5747                 1.3849                 2.0514
 Frc consts  --      0.9819                 0.8828                 1.3765
 IR Inten    --     64.4205                 0.4686                70.1471

                     34                     35                     36
                      A                      A                      A
 Frequencies --   1118.6578              1189.7287              1210.0032
 Red. masses --      1.4132                 4.9423                 2.7057
 Frc consts  --      1.0420                 4.1217                 2.3340
 IR Inten    --     22.9251               214.6036                 9.7814

                     37                     38                     39
                      A                      A                      A
 Frequencies --   1210.8609              1240.0272              1263.6490
 Red. masses --      2.1204                 2.3326                 2.2810
 Frc consts  --      1.8317                 2.1133                 2.1460
 IR Inten    --      4.4326               638.8922                 2.5417

                     40                     41                     42
                      A                      A                      A
 Frequencies --   1279.6407              1295.3589              1357.3836
 Red. masses --      2.7054                 7.5168                 1.2225
 Frc consts  --      2.6101                 7.4313                 1.3271
 IR Inten    --    585.9845                99.2340                16.8815

                     43                     44                     45
                      A                      A                      A
 Frequencies --   1368.9772              1389.0296              1402.9187
 Red. masses --      1.2598                 2.4445                 1.5307
 Frc consts  --      1.3910                 2.7788                 1.7750
 IR Inten    --     15.3076               371.3263                89.8230

                     46                     47                     48
                      A                      A                      A
 Frequencies --   1447.5711              1464.8417              1483.6506
 Red. masses --      2.4638                 1.0497                 1.1063
 Frc consts  --      3.0418                 1.3271                 1.4348
 IR Inten    --    575.7114                 1.1767                29.8133

                     49                     50                     51
                      A                      A                      A
 Frequencies --   1485.5899              1488.3656              1499.8593
 Red. masses --      1.0541                 1.0506                 1.0530
 Frc consts  --      1.3707                 1.3713                 1.3956
 IR Inten    --      4.2716                 5.2083                 6.8701

                     52                     53                     54
                      A                      A                      A
 Frequencies --   1506.0600              1515.3547              1603.6873
 Red. masses --      3.8826                 1.1165                 6.3206
 Frc consts  --      5.1887                 1.5106                 9.5774
 IR Inten    --    107.6881                12.2688                37.5103

                     55                     56                     57
                      A                      A                      A
 Frequencies --   2990.1973              2995.5694              3011.0154
 Red. masses --      1.0391                 1.0392                 1.0358
 Frc consts  --      5.4738                 5.4944                 5.5328
 IR Inten    --     96.4156               131.2435               105.7447

                     58                     59                     60
                      A                      A                      A
 Frequencies --   3045.8204              3048.6846              3065.9073
 Red. masses --      1.0995                 1.0986                 1.1002
 Frc consts  --      6.0099                 6.0162                 6.0929
 IR Inten    --     58.5021                91.0106               132.8520

                     61                     62                     63
                      A                      A                      A
 Frequencies --   3077.0556              3087.8738              3104.4491
 Red. masses --      1.1016                 1.0836                 1.0987
 Frc consts  --      6.1452                 6.0874                 6.2390
 IR Inten    --     78.9519                93.9413                 6.0755

                     64                     65                     66
                      A                      A                      A
 Frequencies --   3111.3117              3112.2660              3142.1018
 Red. masses --      1.0973                 1.0920                 1.0858
 Frc consts  --      6.2587                 6.2321                 6.3161
 IR Inten    --     15.5731               144.6786                65.0554

 - Thermochemistry -
 -------------------
 Temperature   298.150 Kelvin.  Pressure   1.00000 Atm.
 Atom     1 has atomic number  6 and mass  12.00000

 Molecular mass:   164.08373 amu.
 Principal axes and moments of inertia in atomic units:
                           1         2         3
     Eigenvalues --  1248.419062432.783683281.81112
           X            0.95346   0.28820  -0.08868
           Y           -0.20520   0.83563   0.50952
           Z            0.22094  -0.46761   0.85588
 This molecule is an asymmetric top.
 Rotational symmetry number  1.
 Warning -- assumption of classical behavior for rotation
           may cause significant error
 Rotational temperatures (Kelvin)      0.06938     0.03560     0.02639
 Rotational constants (GHZ):           1.44562     0.74184     0.54992
 Zero-point vibrational energy     506502.9 (Joules/Mol)
                                  121.05709 (Kcal/Mol)
 Warning -- explicit consideration of  18 degrees of freedom as
           vibrations may cause significant error
 Vibrational temperatures:     98.20   159.37   237.58   286.70   343.88
          (Kelvin)            392.81   407.98   422.61   468.85   475.51
                              526.95   567.07   584.83   592.07   691.83
                              721.19   760.27   849.07   907.40  1000.98
                             1069.14  1150.61  1166.08  1168.69  1226.98
                             1286.41  1325.96  1327.25  1339.85  1365.26
                             1480.09  1496.55  1535.41  1609.50  1711.75
                             1740.92  1742.16  1784.12  1818.11  1841.12
                             1863.73  1952.97  1969.65  1998.50  2018.49
                             2082.73  2107.58  2134.64  2137.43  2141.43
                             2157.96  2166.88  2180.26  2307.35  4302.23
                             4309.96  4332.18  4382.26  4386.38  4411.16
                             4427.20  4442.76  4466.61  4476.48  4477.86
                             4520.78

 Zero-point correction=                           0.192917 (Hartree/Particle)
 Thermal correction to Energy=                    0.204319
 Thermal correction to Enthalpy=                  0.205263
 Thermal correction to Gibbs Free Energy=         0.156650
 Sum of electronic and zero-point Energies=           -538.922684
 Sum of electronic and thermal Energies=              -538.911282
 Sum of electronic and thermal Enthalpies=            -538.910338
 Sum of electronic and thermal Free Energies=         -538.958951

                     E (Thermal)             CV                S
                      KCal/Mol        Cal/Mol-Kelvin    Cal/Mol-Kelvin
 Total                  128.212             45.475            102.316
 Electronic               0.000              0.000              0.000
 Translational            0.889              2.981             41.194
 Rotational               0.889              2.981             30.678
 Vibrational            126.435             39.513             30.444
 Vibration     1          0.598              1.969              4.203
 Vibration     2          0.607              1.941              3.255
 Vibration     3          0.624              1.885              2.490
 Vibration     4          0.637              1.841              2.140
 Vibration     5          0.657              1.781              1.810
 Vibration     6          0.676              1.723              1.577
 Vibration     7          0.682              1.704              1.512
 Vibration     8          0.689              1.685              1.452
 Vibration     9          0.710              1.624              1.280
 Vibration    10          0.713              1.615              1.258
 Vibration    11          0.739              1.542              1.095
 Vibration    12          0.761              1.483              0.984
 Vibration    13          0.771              1.456              0.939
 Vibration    14          0.775              1.445              0.921
 Vibration    15          0.837              1.293              0.708
 Vibration    16          0.857              1.247              0.655
 Vibration    17          0.883              1.187              0.591
 Vibration    18          0.947              1.053              0.467

                           ! Non-Optimized Parameters !
 Normal termination of Gaussian 16 at Sat Feb 10 11:13:01 2024.
