 Gaussian 16, Revision A.03,
 Gaussian 16:  ES64L-G16RevA.03 25-Dec-2016

 ----------------------------------------------------------------------
 #P UB3LYP/6-311++G(d,p) nosym opt freq SCRF=(PCM,Solvent=n,n-DiMethylF
 ormamide)
 ----------------------------------------------------------------------

 -------
 Reduced
 -------
 Symbolic Z-matrix:
 Charge = -2 Multiplicity = 1

 SCF Done:  E(UB3LYP) =  -839.704602405     A.U. after   16 cycles
 SCF Done:  E(UB3LYP) =  -839.705295245     A.U. after   13 cycles
 SCF Done:  E(UB3LYP) =  -839.705261265     A.U. after   13 cycles
 SCF Done:  E(UB3LYP) =  -839.705492858     A.U. after   12 cycles
 SCF Done:  E(UB3LYP) =  -839.705483919     A.U. after   11 cycles
 SCF Done:  E(UB3LYP) =  -839.705498607     A.U. after   10 cycles
 SCF Done:  E(UB3LYP) =  -839.705504027     A.U. after   10 cycles
 SCF Done:  E(UB3LYP) =  -839.705504439     A.U. after   10 cycles
 Optimization completed.
    -- Stationary point found.
 Normal termination of Gaussian 16 at Sat Feb 10 22:42:28 2024.

 ----------------------------------------------------------------------
 #P Geom=AllCheck Guess=TCheck SCRF=Check GenChk UB3LYP/6-311++G(d,p) F
 req
 ----------------------------------------------------------------------

 Structure from the checkpoint file:  "186-an.chk"
 -------
 Reduced
 -------
 Charge = -2 Multiplicity = 1

                          Input orientation:
 ---------------------------------------------------------------------
 Center     Atomic      Atomic             Coordinates (Angstroms)
 Number     Number       Type             X           Y           Z
 ---------------------------------------------------------------------
      1          8           0        3.062427   -2.188345    0.225156
      2          6           0        2.814527   -0.898506    0.267806
      3          6           0        3.823945    0.057755    0.432657
      4          6           0        3.530164    1.440169    0.475436
      5          6           0        2.236493    1.900368    0.354106
      6          6           0        1.155372    0.989121    0.183409
      7          6           0       -0.198794    1.513292    0.054841
      8          8           0       -0.396539    2.780895    0.078153
      9          6           0       -1.258697    0.534725   -0.094978
     10          6           0       -2.647867    0.880616   -0.204435
     11          8           0       -3.020412    2.205105   -0.143027
     12          6           0       -3.637395   -0.072266   -0.364447
     13          6           0       -3.307802   -1.449749   -0.422551
     14          6           0       -2.003801   -1.848646   -0.314054
     15          6           0       -0.949563   -0.892276   -0.144585
     16          6           0        0.374270   -1.333706   -0.027540
     17          8           0        0.635400   -2.690598   -0.076150
     18          6           0        1.434627   -0.417274    0.140283
     19          1           0        1.646295   -2.730134    0.035212
     20          1           0        4.848611   -0.290602    0.528175
     21          1           0        4.345042    2.148004    0.607153
     22          1           0        2.010354    2.958302    0.386792
     23          1           0       -3.982006    2.237678   -0.222488
     24          1           0       -4.673783    0.244844   -0.442969
     25          1           0       -4.099686   -2.180878   -0.551269
     26          1           0       -1.741183   -2.897895   -0.354003
 ---------------------------------------------------------------------

 SCF Done:  E(UB3LYP) =  -839.705504439     A.U. after    1 cycles

 Alpha  occ. eigenvalues --  -19.13772 -19.09134 -19.04640 -19.02450 -10.22181
 Alpha  occ. eigenvalues --  -10.19579 -10.19054 -10.18410 -10.15598 -10.15193
 Alpha  occ. eigenvalues --  -10.14980 -10.14625 -10.14573 -10.14532 -10.14421
 Alpha  occ. eigenvalues --  -10.13850 -10.12927 -10.12685  -1.04783  -1.00704
 Alpha  occ. eigenvalues --   -0.95033  -0.94415  -0.83330  -0.80945  -0.76242
 Alpha  occ. eigenvalues --   -0.72703  -0.71231  -0.69648  -0.64946  -0.61623
 Alpha  occ. eigenvalues --   -0.59977  -0.56896  -0.54693  -0.51645  -0.50322
 Alpha  occ. eigenvalues --   -0.48576  -0.46762  -0.44789  -0.43997  -0.43616
 Alpha  occ. eigenvalues --   -0.41061  -0.40555  -0.39271  -0.38487  -0.38344
 Alpha  occ. eigenvalues --   -0.38280  -0.36117  -0.35580  -0.34921  -0.34414
 Alpha  occ. eigenvalues --   -0.33768  -0.33605  -0.32170  -0.31041  -0.30709
 Alpha  occ. eigenvalues --   -0.28289  -0.24775  -0.22304  -0.22055  -0.21576
 Alpha  occ. eigenvalues --   -0.19536  -0.18171  -0.12033
 Alpha virt. eigenvalues --   -0.01883  -0.00006   0.00011   0.00744   0.01273
 Alpha virt. eigenvalues --    0.02379   0.02477   0.03319   0.04374   0.04740
 Alpha virt. eigenvalues --    0.04880   0.05024   0.06512   0.06910   0.06958

  Beta  occ. eigenvalues --  -19.13772 -19.09134 -19.04640 -19.02450 -10.22181
  Beta  occ. eigenvalues --  -10.19579 -10.19054 -10.18410 -10.15598 -10.15193
  Beta  occ. eigenvalues --  -10.14980 -10.14625 -10.14573 -10.14532 -10.14421
  Beta  occ. eigenvalues --  -10.13850 -10.12927 -10.12685  -1.04783  -1.00704
  Beta  occ. eigenvalues --   -0.95033  -0.94415  -0.83330  -0.80945  -0.76242
  Beta  occ. eigenvalues --   -0.72703  -0.71231  -0.69648  -0.64946  -0.61623
  Beta  occ. eigenvalues --   -0.59977  -0.56896  -0.54693  -0.51645  -0.50322
  Beta  occ. eigenvalues --   -0.48576  -0.46762  -0.44789  -0.43997  -0.43616
  Beta  occ. eigenvalues --   -0.41061  -0.40555  -0.39271  -0.38487  -0.38344
  Beta  occ. eigenvalues --   -0.38280  -0.36117  -0.35580  -0.34921  -0.34414
  Beta  occ. eigenvalues --   -0.33768  -0.33605  -0.32170  -0.31041  -0.30709
  Beta  occ. eigenvalues --   -0.28289  -0.24775  -0.22304  -0.22055  -0.21576
  Beta  occ. eigenvalues --   -0.19536  -0.18171  -0.12033
  Beta virt. eigenvalues --   -0.01883  -0.00006   0.00011   0.00744   0.01273
  Beta virt. eigenvalues --    0.02379   0.02477   0.03319   0.04374   0.04740
  Beta virt. eigenvalues --    0.04880   0.05024   0.06512   0.06910   0.06958

 Mulliken charges and spin densities:
               1          2
     1  O   -0.658922   0.000000
     2  C   -0.440522  -0.000000
     3  C   -0.230997   0.000000
     4  C   -0.403640   0.000000
     5  C   -0.264769   0.000000
     6  C    0.470745   0.000000
     7  C   -0.508043  -0.000000
     8  O   -0.611872   0.000000
     9  C   -0.068172   0.000000
    10  C   -0.072289   0.000000
    11  O   -0.246892  -0.000000
    12  C   -0.325258  -0.000000
    13  C   -0.355059  -0.000000
    14  C   -0.436680  -0.000000
    15  C    0.533703  -0.000000
    16  C   -0.076768   0.000000
    17  O   -0.532165  -0.000000
    18  C    0.655078   0.000000
    19  H    0.417338   0.000000
    20  H    0.140090  -0.000000
    21  H    0.154077  -0.000000
    22  H    0.132741   0.000000
    23  H    0.285910   0.000000
    24  H    0.132712  -0.000000
    25  H    0.171390   0.000000
    26  H    0.138264  -0.000000
 Sum of Mulliken charges =  -2.00000  -0.00000

 Dipole moment (field-independent basis, Debye):
    X=             -9.5318    Y=             -0.6923    Z=             -1.0119  Tot=              9.6104
 Quadrupole moment (field-independent basis, Debye-Ang):
   XX=           -142.8258   YY=           -164.3111   ZZ=           -116.6437
   XY=             16.1229   XZ=             -2.4016   YZ=             -0.3993

  Exact polarizability: 519.770  25.405 370.629  40.547  14.383 157.378
 Approx polarizability: 562.215  22.023 454.889  43.151  17.620 174.357

                      1                      2                      3
                      A                      A                      A
 Frequencies --     65.1268                72.4862               107.6810
 Red. masses --      6.6620                 6.3867                10.1960
 Frc consts  --      0.0166                 0.0198                 0.0697
 IR Inten    --     11.7762                 0.9926                 7.9247

                      4                      5                      6
                      A                      A                      A
 Frequencies --    158.7938               201.1020               218.0023
 Red. masses --      7.4623                 4.5739                 6.2910
 Frc consts  --      0.1109                 0.1090                 0.1762
 IR Inten    --      1.3284                 0.0932                23.6899

                      7                      8                      9
                      A                      A                      A
 Frequencies --    234.0647               290.7346               312.7858
 Red. masses --      4.4945                 4.2908                 9.6124
 Frc consts  --      0.1451                 0.2137                 0.5541
 IR Inten    --      5.3014                 7.4396                23.2331

                     10                     11                     12
                      A                      A                      A
 Frequencies --    349.7219               380.9809               384.6248
 Red. masses --      7.5471                 6.4201                 8.2732
 Frc consts  --      0.5438                 0.5490                 0.7211
 IR Inten    --     22.1872                 6.1252                 3.2877

                     13                     14                     15
                      A                      A                      A
 Frequencies --    396.6057               398.4315               441.9000
 Red. masses --      5.2400                 1.2993                 8.4419
 Frc consts  --      0.4856                 0.1215                 0.9713
 IR Inten    --     44.4868               106.0680                18.0946

                     16                     17                     18
                      A                      A                      A
 Frequencies --    484.3496               490.6853               514.3857
 Red. masses --      9.9171                 4.1326                 7.3147
 Frc consts  --      1.3707                 0.5862                 1.1403
 IR Inten    --     10.9111                 4.0638                 3.9883

                     19                     20                     21
                      A                      A                      A
 Frequencies --    542.3017               543.5350               581.8518
 Red. masses --      5.0306                 6.9412                 4.5723
 Frc consts  --      0.8717                 1.2082                 0.9120
 IR Inten    --      4.3121                12.0759                 3.0954

                     22                     23                     24
                      A                      A                      A
 Frequencies --    591.5221               605.0434               647.7399
 Red. masses --      6.4938                 6.1357                 3.8914
 Frc consts  --      1.3387                 1.3234                 0.9620
 IR Inten    --     49.3823                33.3347                 0.3881

                     25                     26                     27
                      A                      A                      A
 Frequencies --    690.1271               693.3407               732.1813
 Red. masses --      6.2031                 2.1270                 1.5820
 Frc consts  --      1.7407                 0.6024                 0.4997
 IR Inten    --     14.1461               113.9083                15.1142

                     28                     29                     30
                      A                      A                      A
 Frequencies --    744.0623               766.9447               774.3250
 Red. masses --      2.2392                 2.9131                 7.0177
 Frc consts  --      0.7304                 1.0096                 2.4791
 IR Inten    --     32.1255               133.9297                71.9716

                     31                     32                     33
                      A                      A                      A
 Frequencies --    802.4592               813.6695               833.4400
 Red. masses --      5.4038                 1.5752                 2.6086
 Frc consts  --      2.0502                 0.6144                 1.0676
 IR Inten    --      0.8523                 6.3761                48.0480

                     34                     35                     36
                      A                      A                      A
 Frequencies --    835.2507               906.2018               942.8729
 Red. masses --      2.9434                 7.1450                 1.2374
 Frc consts  --      1.2099                 3.4570                 0.6481
 IR Inten    --     59.0249                18.5365                 0.2467

                     37                     38                     39
                      A                      A                      A
 Frequencies --    947.0024               954.7623               964.8453
 Red. masses --      1.0704                 1.2227                 5.9789
 Frc consts  --      0.5656                 0.6567                 3.2794
 IR Inten    --    122.5420                11.4333               241.7103

                     40                     41                     42
                      A                      A                      A
 Frequencies --   1023.6631              1064.1665              1083.4075
 Red. masses --      5.6834                 1.8207                 2.1252
 Frc consts  --      3.5089                 1.2148                 1.4697
 IR Inten    --    483.2256                60.3879               299.7924

                     43                     44                     45
                      A                      A                      A
 Frequencies --   1131.1363              1147.3969              1166.5845
 Red. masses --      2.4473                 1.7996                 1.1918
 Frc consts  --      1.8449                 1.3959                 0.9556
 IR Inten    --     42.2365               192.2886                81.7771

                     46                     47                     48
                      A                      A                      A
 Frequencies --   1185.9226              1220.1518              1237.7469
 Red. masses --      2.3304                 2.9690                 1.9575
 Frc consts  --      1.9310                 2.6043                 1.7670
 IR Inten    --     34.8574               311.0547                 3.6360

                     49                     50                     51
                      A                      A                      A
 Frequencies --   1254.3390              1281.4539              1314.2371
 Red. masses --      2.6563                 3.4150                 4.8432
 Frc consts  --      2.4624                 3.3041                 4.9286
 IR Inten    --    117.9462               336.9875               145.6931

                     52                     53                     54
                      A                      A                      A
 Frequencies --   1337.7026              1362.3650              1394.4785
 Red. masses --      4.3626                 5.1989                 4.3022
 Frc consts  --      4.5996                 5.6853                 4.9291
 IR Inten    --     11.8302               344.5270               461.0700

                     55                     56                     57
                      A                      A                      A
 Frequencies --   1413.3698              1442.0058              1450.7113
 Red. masses --      2.8408                 2.6334                 3.6751
 Frc consts  --      3.3435                 3.2262                 4.5571
 IR Inten    --   1370.6507               793.5772               513.0408

                     58                     59                     60
                      A                      A                      A
 Frequencies --   1487.1955              1502.5450              1525.0720
 Red. masses --      3.0284                 2.8682                 4.2629
 Frc consts  --      3.9464                 3.8151                 5.8417
 IR Inten    --     75.2883               145.1720               516.6493

                     61                     62                     63
                      A                      A                      A
 Frequencies --   1569.7711              1588.3886              1625.0889
 Red. masses --      6.6026                 5.6274                 5.1468
 Frc consts  --      9.5860                 8.3651                 8.0084
 IR Inten    --     54.9543                22.3193               146.7237

                     64                     65                     66
                      A                      A                      A
 Frequencies --   1644.3849              2737.4199              3124.0582
 Red. masses --      1.9406                 1.0785                 1.0854
 Frc consts  --      3.0917                 4.7617                 6.2415
 IR Inten    --     36.1888              1584.6422                55.0573

                     67                     68                     69
                      A                      A                      A
 Frequencies --   3137.4217              3146.2157              3158.3853
 Red. masses --      1.0870                 1.0918                 1.0909
 Frc consts  --      6.3039                 6.3676                 6.4117
 IR Inten    --     46.8963                98.3052                37.0702

                     70                     71                     72
                      A                      A                      A
 Frequencies --   3188.0322              3192.6177              3787.6356
 Red. masses --      1.0909                 1.0927                 1.0656
 Frc consts  --      6.5323                 6.5621                 9.0068
 IR Inten    --     42.6592                33.4692                63.2218

 - Thermochemistry -
 -------------------
 Temperature   298.150 Kelvin.  Pressure   1.00000 Atm.
 Atom     1 has atomic number  8 and mass  15.99491

 Molecular mass:   240.04226 amu.
 Principal axes and moments of inertia in atomic units:
                           1         2         3
     Eigenvalues --  2340.407865033.702127373.49878
           X            0.98916   0.10313  -0.10458
           Y           -0.10927   0.99250  -0.05481
           Z            0.09814   0.06564   0.99301
 This molecule is an asymmetric top.
 Rotational symmetry number  1.
 Warning -- assumption of classical behavior for rotation
           may cause significant error
 Rotational temperatures (Kelvin)      0.03701     0.01721     0.01175
 Rotational constants (GHZ):           0.77112     0.35853     0.24476
 Zero-point vibrational energy     480546.0 (Joules/Mol)
                                  114.85324 (Kcal/Mol)
 Warning -- explicit consideration of  23 degrees of freedom as
           vibrations may cause significant error
 Vibrational temperatures:     93.70   104.29   154.93   228.47   289.34
          (Kelvin)            313.66   336.77   418.30   450.03   503.17
                              548.15   553.39   570.63   573.25   635.80
                              696.87   705.99   740.09   780.25   782.03
                              837.15   851.07   870.52   931.95   992.94
                              997.56  1053.45  1070.54  1103.46  1114.08
                             1154.56  1170.69  1199.13  1201.74  1303.82
                             1356.58  1362.53  1373.69  1388.20  1472.82
                             1531.10  1558.78  1627.45  1650.85  1678.45
                             1706.28  1755.53  1780.84  1804.71  1843.73
                             1890.89  1924.66  1960.14  2006.34  2033.52
                             2074.72  2087.25  2139.74  2161.83  2194.24
                             2258.55  2285.34  2338.14  2365.90  3938.54
                             4494.82  4514.05  4526.70  4544.21  4586.87
                             4593.46  5449.56

 Zero-point correction=                           0.183030 (Hartree/Particle)
 Thermal correction to Energy=                    0.196277
 Thermal correction to Enthalpy=                  0.197221
 Thermal correction to Gibbs Free Energy=         0.143634
 Sum of electronic and zero-point Energies=           -839.522474
 Sum of electronic and thermal Energies=              -839.509228
 Sum of electronic and thermal Enthalpies=            -839.508283
 Sum of electronic and thermal Free Energies=         -839.561870

                     E (Thermal)             CV                S
                      KCal/Mol        Cal/Mol-Kelvin    Cal/Mol-Kelvin
 Total                  123.166             54.699            112.783
 Electronic               0.000              0.000              0.000
 Translational            0.889              2.981             42.328
 Rotational               0.889              2.981             32.829
 Vibrational            121.388             48.737             37.625
 Vibration     1          0.597              1.971              4.295
 Vibration     2          0.599              1.967              4.085
 Vibration     3          0.606              1.943              3.310
 Vibration     4          0.621              1.893              2.564
 Vibration     5          0.638              1.838              2.123
 Vibration     6          0.646              1.814              1.976
 Vibration     7          0.654              1.789              1.848
 Vibration     8          0.687              1.691              1.470
 Vibration     9          0.701              1.649              1.348
 Vibration    10          0.727              1.576              1.167
 Vibration    11          0.751              1.511              1.035
 Vibration    12          0.754              1.503              1.021
 Vibration    13          0.763              1.477              0.975
 Vibration    14          0.765              1.473              0.968
 Vibration    15          0.802              1.379              0.821
 Vibration    16          0.840              1.285              0.698
 Vibration    17          0.846              1.271              0.682
 Vibration    18          0.869              1.218              0.623
 Vibration    19          0.897              1.157              0.560
 Vibration    20          0.899              1.154              0.558
 Vibration    21          0.939              1.071              0.482
 Vibration    22          0.949              1.050              0.464
 Vibration    23          0.964              1.021              0.441

                           ! Non-Optimized Parameters !
 Normal termination of Gaussian 16 at Sat Feb 10 23:46:26 2024.
