 Q-Chem 5.4, Q-Chem, Inc., Pleasanton, CA (2021)
 Q-Chem 5.4.0 for Intel X86 EM64T Linux

User input:
--------------------------------------------------------------
$molecule
0 1
C                 -4.5815120000      0.2267800000      0.0184000000
C                 -3.1352910000     -0.1997940000      0.0207220000
C                 -2.7938400000     -1.5623630000     -0.0126890000
C                 -1.4686170000     -1.9704050000     -0.0124070000
C                 -0.4377710000     -1.0247680000      0.0215790000
C                  0.9772910000     -1.4875620000      0.0212130000
O                  1.2590240000     -2.6752570000     -0.0082820000
C                  2.0419220000     -0.4409580000      0.0583290000
C                  3.3829970000     -0.8364230000      0.0590130000
C                  4.3930930000      0.1176710000      0.0930620000
C                  4.0722280000      1.4776700000      0.1268000000
C                  2.7420200000      1.8802050000      0.1264350000
C                  1.7189910000      0.9274220000      0.0923090000
C                  0.2992110000      1.3885390000      0.0928270000
O                  0.0196590000      2.5762570000      0.1226610000
C                 -0.7634490000      0.3411970000      0.0554410000
C                 -2.1042520000      0.7373830000      0.0547010000
H                 -5.0912630000     -0.1216960000     -0.8851190000
H                 -4.6768200000      1.3126750000      0.0621310000
H                 -5.1164400000     -0.1954190000      0.8745210000
H                 -3.5821650000     -2.3081150000     -0.0390930000
H                 -1.2054030000     -3.0207130000     -0.0381290000
H                  3.6083370000     -1.8953670000      0.0325030000
H                  5.4313580000     -0.1943130000      0.0934140000
H                  4.8616120000      2.2202800000      0.1533140000
H                  2.4704240000      2.9282500000      0.1522780000
H                 -2.3213430000      1.7988240000      0.0815460000
$end
$rem
MAX_SCF_CYCLES=200
BASIS  =  6-311++G(d,p)
GUI  =  2
JOB_TYPE  =  SP
METHOD  =  B3LYP
SOLVENT_METHOD = COSMO
$end
$solvent
dielectric 37.219
opticaldielectric 1.43
$end

--------------------------------------------------------------

             Standard Nuclear Orientation (Angstroms)
    I     Atom           X                Y                Z
 ----------------------------------------------------------------
    1      C       4.7764982989    -0.8555015474    -0.0011055498
    2      C       3.3950616905    -0.2512193562     0.0002656158
    3      C       3.2271332467     1.1438072952     0.0004649663
    4      C       1.9634422516     1.7145957022     0.0003362796
    5      C       0.8220871119     0.9050672809     0.0001363306
    6      C      -0.5238753621     1.5414350179     0.0000581624
    7      O      -0.6544774694     2.7554391105    -0.0000038311
    8      C      -1.7114131966     0.6359237900    -0.0000085209
    9      C      -2.9924084042     1.1962151677    -0.0002082005
   10      C      -4.1142364449     0.3756967725    -0.0003941737
   11      C      -3.9664133289    -1.0142090541    -0.0003740389
   12      C      -2.6970870685    -1.5801584085    -0.0001380313
   13      C      -1.5625915585    -0.7625593213     0.0000465732
   14      C      -0.2117405199    -1.3978590745     0.0003620278
   15      O      -0.0833090263    -2.6116212595     0.0007435958
   16      C       0.9739374355    -0.4913619706     0.0001617218
   17      C       2.2545732840    -1.0523329035     0.0002837697
   18      H       5.3365037353    -0.5507236895    -0.8905618762
   19      H       4.7347162601    -1.9455383856     0.0143190700
   20      H       5.3498472597    -0.5256673190     0.8705729909
   21      H       4.1027987937     1.7852971652     0.0008098157
   22      H       1.8339842347     2.7899238908     0.0005219908
   23      H      -3.0832030350     2.2753813383    -0.0002544094
   24      H      -5.1052582263     0.8152467106    -0.0005704299
   25      H      -4.8427378081    -1.6524528049    -0.0005337848
   26      H      -2.5590318576    -2.6542958876    -0.0000703641
   27      H       2.3368679955    -2.1329501688     0.0005272866
 ----------------------------------------------------------------

    9    -728.2825868693      1.92e-06  Convergence criterion met
 Total energy in the final basis set =     -728.2825868693
    5    -728.2968185090      2.95e-06  Convergence criterion met
 Total energy in the final basis set =     -728.2968185090

                    Orbital Energies (a.u.)
 --------------------------------------------------------------

 Alpha MOs
 -- Occupied --
-19.1323 -19.1310 -10.2839 -10.2828 -10.2076 -10.2071 -10.2066 -10.2062
-10.2042 -10.1962 -10.1959 -10.1955 -10.1953 -10.1947 -10.1923 -10.1919
-10.1702  -1.0676  -1.0655  -0.8934  -0.8815  -0.8169  -0.7839  -0.7771
 -0.7719  -0.7148  -0.6833  -0.6578  -0.6307  -0.6133  -0.5852  -0.5584
 -0.5463  -0.5057  -0.4894  -0.4843  -0.4711  -0.4606  -0.4558  -0.4508
 -0.4475  -0.4433  -0.4343  -0.4272  -0.4204  -0.3943  -0.3874  -0.3858
 -0.3708  -0.3695  -0.3620  -0.3599  -0.2894  -0.2870  -0.2785  -0.2760
 -0.2756  -0.2669

          Ground-State Mulliken Net Atomic Charges

     Atom                 Charge (a.u.)
  ----------------------------------------
      1 C                    -0.397628
      2 C                     0.397229
      3 C                    -0.379745
      4 C                     0.188763
      5 C                     0.163452
      6 C                    -0.677643
      7 O                    -0.300978
      8 C                     0.065239
      9 C                     0.206728
     10 C                    -0.452248
     11 C                    -0.443005
     12 C                     0.133138
     13 C                     0.338148
     14 C                    -0.576972
     15 O                    -0.294208
     16 C                     0.156857
     17 C                    -0.116331
     18 H                     0.184011
     19 H                     0.186678
     20 H                     0.181800
     21 H                     0.224439
     22 H                     0.199117
     23 H                     0.200563
     24 H                     0.226254
     25 H                     0.227772
     26 H                     0.198681
     27 H                     0.159889
  ----------------------------------------
  Sum of atomic charges =     0.000000

                    Cartesian Multipole Moments
 -----------------------------------------------------------------
    Charge (ESU x 10^10)
                 0.0000
    Dipole Moment (Debye)
         X       0.8886      Y      -0.2668      Z      -0.0047
       Tot       0.9278
    Quadrupole Moments (Debye-Ang)
        XX     -60.4473     XY       4.2301     YY    -112.0861
        XZ      -0.0105     YZ       0.0070     ZZ    -100.7549

 Total job time:  54.17s(wall), 411.30s(cpu)
        *  Thank you very much for using Q-Chem.  Have a nice day.  *
