 Q-Chem 5.4, Q-Chem, Inc., Pleasanton, CA (2021)
 Q-Chem 5.4.0 for Intel X86 EM64T Linux

User input:
--------------------------------------------------------------
$molecule
0 1
C                 16.3756520000      2.9520330000      0.9729340000
C                 15.5665540000      1.9567320000      1.7036950000
C                 16.0066260000      1.3431470000      2.8124860000
C                 17.3738180000      1.6760210000      3.3288400000
C                 18.2104360000      2.6784130000      2.5984150000
C                 17.7397690000      3.2879440000      1.4859490000
O                 15.9294870000      3.4848900000     -0.0339150000
O                 17.7936820000      1.1272990000      4.3367000000
C                 18.5326950000      4.3059200000      0.7167010000
C                 19.5728790000      2.9686600000      3.1644960000
H                 14.5898080000      1.7477700000      1.2823350000
H                 18.8080870000      5.1519880000      1.3543140000
H                 17.9561750000      4.6769330000     -0.1289600000
H                 19.4657860000      3.8732110000      0.3411930000
H                 19.7664960000      2.3460200000      4.0359700000
H                 19.6561320000      4.0192170000      3.4619190000
H                 20.3533820000      2.7858160000      2.4194220000
C                 15.2263770000      0.3108180000      3.5931320000
C                 13.7797680000      0.1788360000      3.2068840000
C                 13.1738300000     -0.8524720000      2.6019240000
C                 11.6843790000     -0.8020530000      2.3288920000
C                 11.3112280000     -0.7366460000      0.8264920000
C                  9.8224330000     -0.7405580000      0.6138850000
C                  9.0463020000      0.2136550000      0.0805430000
C                  7.5492490000      0.0022170000     -0.0248630000
C                  6.7114750000      0.9118600000      0.9082640000
C                  5.2331790000      0.7000250000      0.7322070000
C                  4.3357480000      0.2563140000      1.6238760000
C                  2.8786470000      0.1181790000      1.2317670000
C                 13.8739550000     -2.1152550000      2.1645350000
C                  9.5552890000      1.5285360000     -0.4578030000
C                  4.6660620000     -0.1343450000      3.0442660000
C                  1.9316530000      1.1165120000      1.9441860000
C                  0.4929330000      0.9080190000      1.5598390000
C                 -0.3328120000      1.7379490000      0.9065580000
C                 -1.7561540000      1.3125620000      0.6059900000
C                 -2.0375720000      1.0524200000     -0.8956160000
C                 -3.4743390000      0.6892980000     -1.1507340000
C                 -3.9821140000     -0.4636850000     -1.6092630000
C                 -5.4802000000     -0.6212480000     -1.7768860000
C                 -6.1327750000     -1.5985590000     -0.7666360000
C                 -7.6059510000     -1.7726280000     -1.0128600000
C                 -8.6368350000     -1.4329270000     -0.2258920000
C                -10.0588530000     -1.6895050000     -0.6833360000
C                -10.8585320000     -0.4062750000     -1.0231140000
C                -12.2801110000     -0.7077140000     -1.4097030000
C                -12.8904860000     -0.5172160000     -2.5881070000
C                  0.0434420000      3.1215110000      0.4349780000
C                 -3.1564450000     -1.6651130000     -2.0005370000
C                 -8.4988110000     -0.8022350000      1.1384090000
C                -12.2333110000      0.0938130000     -3.8017830000
C                -14.3427050000     -0.9135690000     -2.7645640000
C                -14.5598120000     -2.1326200000     -3.6964210000
C                -16.0170770000     -2.4500700000     -3.8882600000
C                -16.6959120000     -3.5453010000     -3.5179610000
C                -16.0817360000     -4.7376650000     -2.8256360000
C                -18.1810930000     -3.6508990000     -3.8011430000
C                -19.0756910000     -3.5829290000     -2.5378470000
C                -20.5340110000     -3.7514230000     -2.8633340000
C                -21.5342330000     -2.8741030000     -2.7057890000
C                -21.3831980000     -1.4871610000     -2.1329070000
C                -22.9460000000     -3.2309940000     -3.1042280000
H                 15.3030970000      0.5789030000      4.6535930000
H                 15.7602700000     -0.6409390000      3.5159780000
H                 13.1606480000      1.0337800000      3.4749370000
H                 11.2481610000      0.0642180000      2.8341290000
H                 11.2096510000     -1.6909190000      2.7657950000
H                 11.7402140000     -1.6052610000      0.3124080000
H                 11.7786220000      0.1462070000      0.3846710000
H                  9.3246440000     -1.6485380000      0.9553630000
H                  7.3094030000     -1.0408720000      0.2004650000
H                  7.2300160000      0.1797910000     -1.0607980000
H                  6.9417580000      1.9612050000      0.6867780000
H                  7.0234100000      0.7411780000      1.9411220000
H                  4.8632650000      0.9337890000     -0.2664900000
H                  2.5382390000     -0.9021460000      1.4552960000
H                  2.7752070000      0.2521370000      0.1511400000
H                 14.9267520000     -2.1416820000      2.4444600000
H                 13.8200340000     -2.2387530000      1.0779990000
H                 13.3861860000     -2.9928260000      2.6038970000
H                 10.6396930000      1.6208860000     -0.4087560000
H                  9.1269010000      2.3741540000      0.0905780000
H                  9.2555780000      1.6520980000     -1.5050500000
H                  5.7370930000     -0.1443270000      3.2444720000
H                  4.2734690000     -1.1336280000      3.2649610000
H                  4.2024000000      0.5492490000      3.7639010000
H                  2.2651500000      2.1333570000      1.7251280000
H                  2.0259230000      0.9860470000      3.0291460000
H                  0.0879520000     -0.0613080000      1.8520610000
H                 -2.4494290000      2.0875200000      0.9602100000
H                 -1.9932220000      0.4029690000      1.1652820000
H                 -1.3558500000      0.2761110000     -1.2499900000
H                 -1.7997120000      1.9581990000     -1.4664910000
H                 -4.1852330000      1.4813210000     -0.9134410000
H                 -5.6963920000     -0.9768890000     -2.7934720000
H                 -5.9653840000      0.3540640000     -1.6781300000
H                 -5.9318910000     -1.2411930000      0.2457390000
H                 -5.6468040000     -2.5781220000     -0.8516750000
H                 -7.8482040000     -2.2300860000     -1.9725680000
H                -10.5989000000     -2.2380240000      0.1003310000
H                -10.0496210000     -2.3354850000     -1.5659440000
H                -10.3317660000      0.1358710000     -1.8115060000
H                -10.8673250000      0.2526090000     -0.1463280000
H                -12.8761250000     -1.1518530000     -0.6118880000
H                  1.0631020000      3.4000110000      0.6990690000
H                 -0.6321740000      3.8682320000      0.8687700000
H                 -0.0517930000      3.2096380000     -0.6524680000
H                 -2.0847490000     -1.4985670000     -1.8969780000
H                 -3.3549310000     -1.9402670000     -3.0431770000
H                 -3.4149100000     -2.5390020000     -1.3931320000
H                 -7.4615950000     -0.6613890000      1.4406730000
H                 -8.9886060000     -1.4245360000      1.8967650000
H                 -8.9890770000      0.1764220000      1.1744970000
H                -11.2023900000      0.3968960000     -3.6218800000
H                -12.7910890000      0.9781440000     -4.1320230000
H                -12.2296660000     -0.6050050000     -4.6450300000
H                -14.9048990000     -0.0616150000     -3.1705190000
H                -14.7822700000     -1.1407220000     -1.7890920000
H                -14.0106120000     -2.9852260000     -3.2909630000
H                -14.1176950000     -1.9168070000     -4.6766790000
H                -16.5837640000     -1.6649710000     -4.3897240000
H                -15.0082650000     -4.6350020000     -2.6702340000
H                -16.2510570000     -5.6478270000     -3.4131590000
H                -16.5421850000     -4.9085780000     -1.8467680000
H                -18.3852200000     -4.5971150000     -4.3205020000
H                -18.4826250000     -2.8503100000     -4.4826720000
H                -18.8843800000     -2.6391030000     -2.0223180000
H                -18.7780840000     -4.3793620000     -1.8448610000
H                -20.7887610000     -4.7192410000     -3.2957410000
H                -20.3558080000     -1.2377670000     -1.8695760000
H                -21.9989630000     -1.3742990000     -1.2326150000
H                -21.7396680000     -0.7368100000     -2.8483910000
H                -23.0096220000     -4.2415740000     -3.5127000000
H                -23.3297930000     -2.5328810000     -3.8578500000
H                -23.6246710000     -3.1667430000     -2.2451600000
$end
$rem
MAX_SCF_CYCLES=200
BASIS  =  6-311++G(d,p)
GUI  =  2
JOB_TYPE  =  SP
METHOD  =  B3LYP
THRESH = 14
SOLVENT_METHOD = COSMO
SCF_GUESS = SADMO
SCF_ALGORITHM = RCA_DIIS
$end

$solvent
dielectric 37.219
opticaldielectric 1.43
$end

--------------------------------------------------------------

             Standard Nuclear Orientation (Angstroms)
    I     Atom           X                Y                Z
 ----------------------------------------------------------------
    1      C      16.7798302385    -1.5460050100     0.9563249170
    2      C      15.9742796344    -0.4283468926     0.4260383434
    3      C      16.4956208842     0.5296157880    -0.3550366869
    4      C      17.9528142920     0.4674035685    -0.7005182785
    5      C      18.7862819054    -0.6550268958    -0.1678629769
    6      C      18.2338742278    -1.6123456346     0.6125360595
    7      O      16.2578331655    -2.3959707990     1.6647188129
    8      O      18.4472579573     1.3309569680    -1.4097180949
    9      C      19.0206092585    -2.7646198015     1.1693677210
   10      C      20.2410286494    -0.6616003045    -0.5481400457
   11      H      14.9290015054    -0.4276637764     0.7135018746
   12      H      19.4830259337    -3.3480146272     0.3668445451
   13      H      18.3749638223    -3.4194971697     1.7519877403
   14      H      19.8319925401    -2.4099246445     1.8133791084
   15      H      20.4847250312     0.2141354878    -1.1467500529
   16      H      20.4892811828    -1.5581071326    -1.1258144349
   17      H      20.8781622822    -0.6695594601     0.3416630295
   18      C      15.7213108404     1.6999044037    -0.9160788916
   19      C      14.2285624128     1.6072446839    -0.7664103481
   20      C      13.4244163814     2.3542502396     0.0030475859
   21      C      11.9274225202     2.1213911045    -0.0153598196
   22      C      11.3503456922     1.5639309886     1.3101385991
   23      C       9.8563952040     1.4015101989     1.2513251805
   24      C       9.1284338462     0.2786214618     1.3322486813
   25      C       7.6175854714     0.3458196367     1.2332247894
   26      C       7.0367790445    -0.2796717178    -0.0596271435
   27      C       5.5340521590    -0.2329711899    -0.0889557390
   28      C       4.7298117577     0.4066388453    -0.9500201018
   29      C       3.2251827241     0.3172709184    -0.7948462795
   30      C      13.9005411323     3.4603436558     0.9118752012
   31      C       9.7045906089    -1.1015856071     1.5344071785
   32      C       5.2147303294     1.2436709091    -2.1090976868
   33      C       2.5154349719    -0.4686669834    -1.9260257477
   34      C       1.0217348980    -0.4877226039    -1.7539671578
   35      C       0.2130319992    -1.5337560231    -1.5320924580
   36      C      -1.2788458707    -1.3200735535    -1.3713507561
   37      C      -1.8038879487    -1.5627491186     0.0664009319
   38      C      -3.2950487205    -1.3947149238     0.1635927784
   39      C      -3.9957722293    -0.4800178127     0.8489903651
   40      C      -5.5103480709    -0.4834124578     0.7921244801
   41      C      -6.1194324295     0.7152036453     0.0214548587
   42      C      -7.6228866416     0.7044933629     0.0476182706
   43      C      -8.4815097342     0.5602380412    -0.9718884782
   44      C      -9.9750581924     0.5649576289    -0.7139869391
   45      C     -10.6594387082    -0.8105695883    -0.9168736306
   46      C     -12.1475312187    -0.7411307280    -0.7120266056
   47      C     -12.8959356626    -1.3314787604     0.2307687619
   48      C       0.6765436670    -2.9669900477    -1.4361980299
   49      C      -3.3824149464     0.5907889280     1.7181391714
   50      C      -8.0737971657     0.3992891597    -2.4161897491
   51      C     -12.3548518156    -2.2465096832     1.3023057576
   52      C     -14.3947539004    -1.1083603741     0.2613444568
   53      C     -14.8864038513    -0.2598870854     1.4613243160
   54      C     -16.3831543040    -0.1166709679     1.4819449542
   55      C     -17.1248004364     0.9914669144     1.3424433485
   56      C     -16.5608060830     2.3789287493     1.1550453785
   57      C     -18.6373806494     0.9035140799     1.3807967515
   58      C     -19.3248325083     1.1749752094     0.0189740453
   59      C     -20.8245474124     1.1351517357     0.1204557432
   60      C     -21.6813598063     0.2865086760    -0.4631814194
   61      C     -21.2870457455    -0.8378609800    -1.3878017559
   62      C     -23.1680404248     0.4054235600    -0.2289787853
   63      H      15.9821278648     1.7832034872    -1.9778551396
   64      H      16.1229320731     2.6130642871    -0.4669961876
   65      H      13.7595725673     0.8398899563    -1.3806631259
   66      H      11.6738892184     1.4298202186    -0.8237078819
   67      H      11.4201816296     3.0685395327    -0.2432856964
   68      H      11.5952144346     2.2544680299     2.1262276011
   69      H      11.8489618126     0.6204482123     1.5431934900
   70      H       9.3103993472     2.3353371085     1.1146334808
   71      H       7.2922774638     1.3885071642     1.2907651539
   72      H       7.1743753856    -0.1681986804     2.0969108131
   73      H       7.3539841743    -1.3277218075    -0.1243044378
   74      H       7.4731813600     0.2263659470    -0.9237511730
   75      H       5.0530528961    -0.7919456103     0.7142036345
   76      H       2.8034907460     1.3311065339    -0.7599300030
   77      H       2.9823638993    -0.1549984909     0.1613963235
   78      H      14.9723744320     3.6434392918     0.8405500246
   79      H      13.6753021243     3.2334304364     1.9590129618
   80      H      13.3821709788     4.3966902320     0.6760025713
   81      H      10.7878872757    -1.1012086311     1.6498816580
   82      H       9.4625910526    -1.7595551141     0.6930867020
   83      H       9.2725787895    -1.5666743612     2.4282073626
   84      H       6.2948308418     1.3874388922    -2.1073268673
   85      H       4.7438284634     2.2331961672    -2.0868882982
   86      H       4.9439322482     0.7904699681    -3.0690117697
   87      H       2.9305783355    -1.4782676334    -1.9653058389
   88      H       2.7502840897     0.0010373958    -2.8889742607
   89      H       0.5525642898     0.4949983198    -1.8099731130
   90      H      -1.8175604751    -1.9896255381    -2.0555646486
   91      H      -1.5372654981    -0.2990681373    -1.6665378831
   92      H      -1.2767041116    -0.8927379376     0.7491481032
   93      H      -1.5468197426    -2.5837162419     0.3737335084
   94      H      -3.8660489195    -2.1182324796    -0.4190390083
   95      H      -5.9120879016    -0.4793502927     1.8145017121
   96      H      -5.8582159049    -1.4088644029     0.3242394237
   97      H      -5.7331405124     0.7071649851    -1.0001526563
   98      H      -5.7692984271     1.6490314598     0.4778701395
   99      H      -8.0539175380     0.8210816730     1.0424113724
  100      H     -10.4561793604     1.2939236106    -1.3801617223
  101      H     -10.1699517209     0.9011002385     0.3084596025
  102      H     -10.1927989683    -1.5358660386    -0.2466803286
  103      H     -10.4634451171    -1.1607306525    -1.9376247626
  104      H     -12.6693327647    -0.1103579149    -1.4323388425
  105      H       1.7493042099    -3.0799359684    -1.5893021072
  106      H       0.1634187332    -3.5836897393    -2.1835995440
  107      H       0.4354174846    -3.3974294463    -0.4584685353
  108      H      -2.2949808943     0.5371011640     1.7581286607
  109      H      -3.7610988139     0.5116269583     2.7440711850
  110      H      -3.6506793528     1.5916091876     1.3634280343
  111      H      -6.9943988896     0.4298766775    -2.5610411119
  112      H      -8.5178829970     1.1935835348    -3.0278642700
  113      H      -8.4353650775    -0.5492989192    -2.8271422036
  114      H     -11.2803684663    -2.4083585275     1.2228514553
  115      H     -12.8470071897    -3.2249869934     1.2514991298
  116      H     -12.5557186909    -1.8483577084     2.3025821642
  117      H     -14.9060413050    -2.0801750264     0.2904759726
  118      H     -14.7115981264    -0.6170433050    -0.6630898413
  119      H     -14.3880306626     0.7115208086     1.4305885170
  120      H     -14.5690781261    -0.7417897642     2.3940743530
  121      H     -16.9205693776    -1.0553654781     1.6198521486
  122      H     -15.4715963677     2.4021151823     1.1657246338
  123      H     -16.9192641339     3.0458216896     1.9481464910
  124      H     -16.8910746621     2.8166352592     0.2070249286
  125      H     -19.0243653984     1.6235839028     2.1146009323
  126      H     -18.9386320426    -0.0885228653     1.7293026616
  127      H     -18.9512750266     0.4551130994    -0.7127574062
  128      H     -19.0252857747     2.1664009439    -0.3422070913
  129      H     -21.2511737519     1.8995344870     0.7702665105
  130      H     -20.2102168376    -0.9229550921    -1.5301720126
  131      H     -21.7480106458    -0.7039774862    -2.3737107894
  132      H     -21.6530948296    -1.7966136280    -1.0020346418
  133      H     -23.4084413953     1.2305910219     0.4444268156
  134      H     -23.5725998188    -0.5176139427     0.2033849644
  135      H     -23.7024955290     0.5682406735    -1.1726782475
 ----------------------------------------------------------------

   12   -2218.7517140844      7.55E-06 Convergence criterion met
    4   -2218.7775222581      7.24E-06 Convergence criterion met
 Total energy in the final basis set = -2218.77752226

                    Orbital Energies (a.u.)
 --------------------------------------------------------------

 Alpha MOs
 -- Occupied --
-19.1398 -19.1369 -10.2835 -10.2812 -10.2155 -10.2090 -10.2081 -10.1970
-10.1838 -10.1803 -10.1752 -10.1736 -10.1731 -10.1727 -10.1727 -10.1727
-10.1727 -10.1726 -10.1696 -10.1695 -10.1672 -10.1669 -10.1657 -10.1652
-10.1650 -10.1650 -10.1648 -10.1648 -10.1648 -10.1648 -10.1648 -10.1646
-10.1644 -10.1644 -10.1644 -10.1643 -10.1643 -10.1613 -10.1592 -10.1588
-10.1586 -10.1585 -10.1585 -10.1584 -10.1584 -10.1584 -10.1584 -10.1583
-10.1583 -10.1581 -10.1581 -10.1581 -10.1581 -10.1581 -10.1579  -1.0717
 -1.0675  -0.8665  -0.8347  -0.8300  -0.8285  -0.8260  -0.8227  -0.8187
 -0.8142  -0.8094  -0.8051  -0.8021  -0.7757  -0.7699  -0.7623  -0.7539
 -0.7468  -0.7449  -0.7369  -0.7295  -0.7234  -0.7191  -0.6906  -0.6894
 -0.6888  -0.6864  -0.6859  -0.6851  -0.6836  -0.6813  -0.6778  -0.6727
 -0.6667  -0.6517  -0.6414  -0.6311  -0.6202  -0.6097  -0.6004  -0.5932
 -0.5893  -0.5845  -0.5812  -0.5758  -0.5383  -0.5216  -0.5205  -0.5196
 -0.5183  -0.5165  -0.5144  -0.5124  -0.5107  -0.5095  -0.4952  -0.4800
 -0.4779  -0.4770  -0.4762  -0.4757  -0.4751  -0.4727  -0.4704  -0.4669
 -0.4620  -0.4604  -0.4491  -0.4451  -0.4437  -0.4416  -0.4387  -0.4358
 -0.4340  -0.4325  -0.4315  -0.4291  -0.4281  -0.4268  -0.4262  -0.4208
 -0.4204  -0.4160  -0.4150  -0.4144  -0.4135  -0.4110  -0.4095  -0.4091
 -0.4078  -0.4060  -0.4043  -0.4018  -0.4010  -0.4002  -0.3990  -0.3975
 -0.3941  -0.3911  -0.3890  -0.3866  -0.3817  -0.3809  -0.3747  -0.3722
 -0.3714  -0.3710  -0.3704  -0.3702  -0.3693  -0.3686  -0.3679  -0.3676
 -0.3669  -0.3650  -0.3636  -0.3629  -0.3610  -0.3590  -0.3575  -0.3546
 -0.3545  -0.3525  -0.3485  -0.3427  -0.3366  -0.3355  -0.3344  -0.3325
 -0.3322  -0.3295  -0.3265  -0.3261  -0.3255  -0.3244  -0.3194  -0.3140
 -0.3095  -0.3066  -0.2990  -0.2922  -0.2760  -0.2712  -0.2525  -0.2505
 -0.2479  -0.2446  -0.2399  -0.2344  -0.2296  -0.2256  -0.2222

          Ground-State Mulliken Net Atomic Charges

     Atom                 Charge (a.u.)
  ----------------------------------------
      1 C                    -1.100208
      2 C                    -0.952519
      3 C                     1.114962
      4 C                    -0.812102
      5 C                     0.360473
      6 C                     1.135094
      7 O                    -0.302179
      8 O                    -0.268124
      9 C                    -0.401219
     10 C                    -0.519497
     11 H                     0.165882
     12 H                     0.181995
     13 H                     0.200917
     14 H                     0.186080
     15 H                     0.204030
     16 H                     0.186979
     17 H                     0.179480
     18 C                    -0.142030
     19 C                    -0.295930
     20 C                     0.663640
     21 C                    -0.812793
     22 C                    -0.241838
     23 C                    -0.087230
     24 C                     0.483263
     25 C                    -0.600030
     26 C                    -0.342225
     27 C                    -0.360435
     28 C                     0.611850
     29 C                    -0.406964
     30 C                    -0.683189
     31 C                    -0.760858
     32 C                    -0.722711
     33 C                    -0.394960
     34 C                    -0.320706
     35 C                     0.543449
     36 C                    -0.449055
     37 C                    -0.299025
     38 C                    -0.302817
     39 C                     0.473568
     40 C                    -0.431163
     41 C                    -0.303865
     42 C                    -0.306774
     43 C                     0.500998
     44 C                    -0.457247
     45 C                    -0.282026
     46 C                    -0.396866
     47 C                     0.531153
     48 C                    -0.711733
     49 C                    -0.733781
     50 C                    -0.728462
     51 C                    -0.727101
     52 C                    -0.414481
     53 C                    -0.222954
     54 C                    -0.199193
     55 C                     0.456566
     56 C                    -0.767874
     57 C                    -0.597701
     58 C                    -0.269910
     59 C                     0.008723
     60 C                     0.282112
     61 C                    -0.703344
     62 C                    -0.638452
     63 H                     0.225873
     64 H                     0.238141
     65 H                     0.188345
     66 H                     0.226333
     67 H                     0.136712
     68 H                     0.140132
     69 H                     0.176318
     70 H                     0.220452
     71 H                     0.168011
     72 H                     0.146704
     73 H                     0.141808
     74 H                     0.149357
     75 H                     0.213687
     76 H                     0.160121
     77 H                     0.172872
     78 H                     0.125312
     79 H                     0.185801
     80 H                     0.180996
     81 H                     0.125350
     82 H                     0.175780
     83 H                     0.169753
     84 H                     0.136767
     85 H                     0.170528
     86 H                     0.179426
     87 H                     0.141203
     88 H                     0.140371
     89 H                     0.192861
     90 H                     0.143977
     91 H                     0.184354
     92 H                     0.151030
     93 H                     0.133513
     94 H                     0.201208
     95 H                     0.144964
     96 H                     0.182010
     97 H                     0.148540
     98 H                     0.133752
     99 H                     0.201276
    100 H                     0.146673
    101 H                     0.177926
    102 H                     0.144389
    103 H                     0.134202
    104 H                     0.195991
    105 H                     0.134883
    106 H                     0.169254
    107 H                     0.173974
    108 H                     0.136348
    109 H                     0.169621
    110 H                     0.174134
    111 H                     0.136865
    112 H                     0.169467
    113 H                     0.174490
    114 H                     0.138571
    115 H                     0.169857
    116 H                     0.173945
    117 H                     0.140027
    118 H                     0.185853
    119 H                     0.151504
    120 H                     0.130084
    121 H                     0.216616
    122 H                     0.135156
    123 H                     0.170968
    124 H                     0.176354
    125 H                     0.143832
    126 H                     0.170828
    127 H                     0.142960
    128 H                     0.131402
    129 H                     0.203832
    130 H                     0.147197
    131 H                     0.152876
    132 H                     0.155631
    133 H                     0.158231
    134 H                     0.158336
    135 H                     0.154447
  ----------------------------------------
  Sum of atomic charges =     0.000000

                    Cartesian Multipole Moments
 -----------------------------------------------------------------
    Charge (ESU x 10^10)
                -0.0000
    Dipole Moment (Debye)
         X       0.6742      Y       0.2979      Z      -0.4672
       Tot       0.8726
    Quadrupole Moments (Debye-Ang)
        XX    -305.2362     XY      -1.7373     YY    -346.4876
        XZ       7.3305     YZ       9.3546     ZZ    -354.4745

 Total job time:  2860.08s(wall), 20674.22s(cpu)
        *  Thank you very much for using Q-Chem.  Have a nice day.  *
