 Q-Chem 5.4, Q-Chem, Inc., Pleasanton, CA (2021)
 Q-Chem 5.4.0 for Intel X86 EM64T Linux

User input:
--------------------------------------------------------------
$molecule
-1 2
C                 -0.0683730000      0.7498270000     -1.0212190000
C                 -0.9674230000     -0.1236090000     -0.4379900000
C                 -0.5207020000     -1.3583850000      0.0743780000
C                  1.3017960000      0.4226550000     -1.1134160000
C                  1.7551370000     -0.8246530000     -0.5959330000
C                  0.8208170000     -1.6947290000     -0.0074950000
C                  2.2424510000      1.3383310000     -1.7240760000
C                  3.6231010000      0.9155940000     -1.7722090000
C                  4.0930380000     -0.2875080000     -1.2895280000
C                  3.1785000000     -1.2177100000     -0.6640170000
O                  1.9460300000      2.4763210000     -2.2159090000
O                  3.5705910000     -2.3189560000     -0.1961460000
O                  4.4514920000      1.8293810000     -2.3566000000
H                 -0.3880040000      1.7050490000     -1.4222730000
H                 -2.0189080000      0.1411570000     -0.3739300000
H                 -1.2276830000     -2.0437840000      0.5322250000
H                  1.1921510000     -2.6371320000      0.3790000000
H                  3.8240570000      2.5481230000     -2.5935080000
C                  5.5507370000     -0.6587930000     -1.3744780000
C                  6.3251150000     -0.3543080000     -0.0778010000
H                  6.0183030000     -0.1253980000     -2.2080730000
H                  5.6196030000     -1.7337560000     -1.5711910000
H                  5.8304880000     -0.8747600000      0.7489250000
H                  6.2615630000      0.7198740000      0.1341620000
C                  7.7955040000     -0.7775330000     -0.1456610000
C                  8.5664100000     -0.4865370000      1.1580380000
C                 10.0172950000     -0.9048030000      1.1035410000
C                 11.0117650000     -0.0164570000      0.6759560000
C                 10.4076370000     -2.2055320000      1.4455840000
C                 11.7380820000     -2.6115680000      1.3611490000
C                 12.7004920000     -1.7075820000      0.9258280000
C                 12.3467600000     -0.4064440000      0.5867630000
O                 14.0434740000     -2.0863560000      0.9105870000
C                 14.5962460000     -2.5885500000     -0.2430100000
C                 13.8846460000     -2.7877710000     -1.4273000000
C                 15.9559480000     -2.9090250000     -0.1765210000
C                 16.5988510000     -3.4269550000     -1.2945770000
C                 14.5451710000     -3.3084490000     -2.5408880000
C                 15.8986370000     -3.6305460000     -2.4856630000
H                  8.2932430000     -0.2635630000     -0.9779190000
H                  7.8579490000     -1.8503870000     -0.3657060000
H                  8.0679340000     -1.0029530000      1.9854340000
H                  8.5039060000      0.5850560000      1.3767820000
H                 10.7378380000      1.0005350000      0.4138680000
H                  9.6580670000     -2.9116850000      1.7881420000
H                 12.0359370000     -3.6170500000      1.6353610000
H                 13.1131850000      0.2889430000      0.2641960000
H                 12.8324500000     -2.5410620000     -1.4796000000
H                 16.4844720000     -2.7449760000      0.7550050000
H                 17.6536400000     -3.6728700000     -1.2351200000
H                 13.9872060000     -3.4614230000     -3.4582140000
H                 16.4022670000     -4.0343620000     -3.3561760000
$end
$rem
MAX_SCF_CYCLES=200
BASIS  =  6-311++G(d,p)
GUI  =  2
JOB_TYPE  =  SP
SCF_CONVERGENCE = 8
METHOD  =  B3LYP
SOLVENT_METHOD = COSMO
$end
$solvent
dielectric 37.219
opticaldielectric 1.43
$end

--------------------------------------------------------------

             Standard Nuclear Orientation (Angstroms)
    I     Atom           X                Y                Z
 ----------------------------------------------------------------
    1      C       7.8667090298    -0.2912522702     0.0033156788
    2      C       8.5507476293     0.8655911355    -0.3209403067
    3      C       7.8478675222     1.9919553374    -0.7942432003
    4      C       6.4635222812    -0.3641384788    -0.1332838893
    5      C       5.7514689266     0.7732511657    -0.6112052023
    6      C       6.4705106494     1.9374211989    -0.9335908758
    7      C       5.7482076856    -1.5760594799     0.2069697194
    8      C       4.3140428969    -1.5546083748     0.0339697534
    9      C       3.5958830352    -0.4748001398    -0.4345777286
   10      C       4.2821546444     0.7532856825    -0.7718550874
   11      O       6.2838657030    -2.6473470667     0.6430886757
   12      O       3.6610483543     1.7667570422    -1.1871672074
   13      O       3.7072632977    -2.7277557183     0.3779101545
   14      H       8.3852256353    -1.1702768488     0.3692578552
   15      H       9.6305531545     0.9074879079    -0.2109852628
   16      H       8.3860880062     2.9001220134    -1.0487423125
   17      H       5.9044792826     2.7887750232    -1.2944175609
   18      H       4.4737918663    -3.2784251375     0.6528415757
   19      C       2.0979304721    -0.5272523397    -0.5873596443
   20      C       1.3494287240     0.0749699811     0.6171390290
   21      H       1.7786419797    -1.5645434724    -0.7291015893
   22      H       1.8245506392     0.0427110699    -1.4814453004
   23      H       1.6980580420     1.1030735120     0.7601871358
   24      H       1.6168533910    -0.4843490588     1.5218380940
   25      C      -0.1719410179     0.0676880800     0.4406474603
   26      C      -0.9199979093     0.6846232804     1.6399838023
   27      C      -2.4218047117     0.6868660600     1.4739869620
   28      C      -3.2024063589    -0.3835413642     1.9276907678
   29      C      -3.0759236650     1.7440934227     0.8292739089
   30      C      -4.4561859937     1.7364293374     0.6371917227
   31      C      -5.2019815534     0.6552210287     1.0929390712
   32      C      -4.5837489416    -0.4061861726     1.7442874324
   33      O      -6.5918078530     0.6770419751     0.9696127285
   34      C      -7.1878334760     0.0916142517    -0.1215195153
   35      C      -6.4842821861    -0.5107580392    -1.1659186615
   36      C      -8.5856419913     0.1303880952    -0.1448108231
   37      C      -9.2744470422    -0.4337228804    -1.2120274743
   38      C      -7.1910647654    -1.0727113762    -2.2299411808
   39      C      -8.5826485842    -1.0399383320    -2.2629092565
   40      H      -0.5246897862    -0.9605583616     0.2895176706
   41      H      -0.4377018014     0.6204684075    -0.4688249148
   42      H      -0.5668234698     1.7111309678     1.7859212258
   43      H      -0.6543790970     0.1317628670     2.5476507318
   44      H      -2.7218026921    -1.2114644529     2.4391224094
   45      H      -2.4956149499     2.5901236797     0.4752572043
   46      H      -4.9584082182     2.5613962476     0.1451487280
   47      H      -5.1834842859    -1.2333434005     2.1064314189
   48      H      -5.4028206180    -0.5405076234    -1.1493995179
   49      H      -9.1070214801     0.6044097415     0.6782671132
   50      H     -10.3585698276    -0.3997749257    -1.2227269666
   51      H      -6.6392085596    -1.5390766758    -3.0387496326
   52      H      -9.1220650278    -1.4792841957    -3.0938776881
 ----------------------------------------------------------------

   21   -1305.3478034200      9.97e-09  Convergence criterion met
 Total energy in the final basis set =    -1305.3478034200
   12   -1305.4332652617      5.82e-09  Convergence criterion met
 Total energy in the final basis set =    -1305.4332652617

                    Orbital Energies (a.u.)
 --------------------------------------------------------------

 Alpha MOs
 -- Occupied --
-19.1692 -19.1448 -19.0891 -19.0772 -10.2447 -10.2372 -10.2257 -10.2238
-10.2230 -10.1848 -10.1804 -10.1804 -10.1804 -10.1801 -10.1784 -10.1783
-10.1775 -10.1761 -10.1758 -10.1736 -10.1723 -10.1722 -10.1713 -10.1710
-10.1696 -10.1672 -10.1639 -10.1610 -10.1581 -10.1566  -1.0873  -1.0650
 -1.0028  -0.9993  -0.8720  -0.8594  -0.8580  -0.8149  -0.7988  -0.7747
 -0.7564  -0.7562  -0.7532  -0.7512  -0.7347  -0.7040  -0.6745  -0.6501
 -0.6265  -0.6229  -0.6173  -0.6139  -0.5946  -0.5783  -0.5742  -0.5690
 -0.5529  -0.5377  -0.5076  -0.5055  -0.4931  -0.4853  -0.4814  -0.4771
 -0.4661  -0.4541  -0.4512  -0.4489  -0.4454  -0.4379  -0.4289  -0.4286
 -0.4277  -0.4221  -0.4185  -0.4129  -0.4106  -0.4056  -0.3942  -0.3907
 -0.3879  -0.3850  -0.3764  -0.3697  -0.3682  -0.3621  -0.3599  -0.3502
 -0.3456  -0.3416  -0.3401  -0.3380  -0.3335  -0.3323  -0.3246  -0.3196
 -0.2692  -0.2675  -0.2634  -0.2623  -0.2589  -0.2475  -0.2421  -0.2362
 -0.2288  -0.1536

 Beta MOs
 -- Occupied --
-19.1692 -19.1443 -19.0830 -19.0720 -10.2447 -10.2372 -10.2243 -10.2221
-10.2207 -10.1848 -10.1804 -10.1804 -10.1804 -10.1801 -10.1784 -10.1783
-10.1775 -10.1761 -10.1757 -10.1725 -10.1722 -10.1722 -10.1705 -10.1704
-10.1698 -10.1672 -10.1631 -10.1610 -10.1582 -10.1566  -1.0873  -1.0628
 -0.9937  -0.9890  -0.8720  -0.8580  -0.8570  -0.8127  -0.7975  -0.7735
 -0.7564  -0.7560  -0.7523  -0.7493  -0.7340  -0.7025  -0.6678  -0.6480
 -0.6258  -0.6229  -0.6165  -0.6128  -0.5930  -0.5777  -0.5737  -0.5667
 -0.5529  -0.5359  -0.5075  -0.5033  -0.4931  -0.4827  -0.4813  -0.4769
 -0.4647  -0.4533  -0.4504  -0.4489  -0.4453  -0.4295  -0.4287  -0.4272
 -0.4254  -0.4201  -0.4148  -0.4114  -0.4095  -0.4038  -0.3898  -0.3889
 -0.3845  -0.3792  -0.3748  -0.3691  -0.3619  -0.3614  -0.3551  -0.3476
 -0.3411  -0.3396  -0.3370  -0.3337  -0.3311  -0.3297  -0.3236  -0.3188
 -0.2675  -0.2623  -0.2580  -0.2520  -0.2497  -0.2471  -0.2375  -0.2361
 -0.2203

          Ground-State Mulliken Net Atomic Charges

     Atom                 Charge (a.u.)    Spin (a.u.)
  --------------------------------------------------------
      1 C                     0.079824       0.077371
      2 C                    -0.395954      -0.001354
      3 C                    -0.465985       0.072091
      4 C                     0.351563      -0.007637
      5 C                     0.013500       0.058182
      6 C                     0.111440       0.005313
      7 C                    -0.827690       0.177546
      8 C                    -0.589847       0.059787
      9 C                     2.024111       0.048427
     10 C                    -0.745651       0.083527
     11 O                    -0.553519       0.222091
     12 O                    -0.479593       0.192395
     13 O                    -0.301279       0.016297
     14 H                     0.181427      -0.004101
     15 H                     0.204572      -0.000635
     16 H                     0.199967      -0.005040
     17 H                     0.179077      -0.000369
     18 H                     0.308404      -0.003375
     19 C                    -0.385482       0.009693
     20 C                    -0.849872      -0.003801
     21 H                     0.227197      -0.001086
     22 H                     0.205404       0.003094
     23 H                     0.174363      -0.001850
     24 H                     0.165133       0.002295
     25 C                    -0.210900       0.002436
     26 C                    -0.993775      -0.000852
     27 C                     1.334824      -0.001082
     28 C                    -0.402914      -0.000261
     29 C                    -0.339313       0.000451
     30 C                    -0.013276      -0.000360
     31 C                    -0.511066       0.000125
     32 C                     0.000634       0.000167
     33 O                    -0.069749      -0.000003
     34 C                    -0.144950       0.000021
     35 C                    -0.021256       0.000033
     36 C                    -0.228526      -0.000025
     37 C                    -0.215705       0.000000
     38 C                    -0.194888       0.000004
     39 C                    -0.360938       0.000001
     40 H                     0.131973       0.000234
     41 H                     0.132481       0.000411
     42 H                     0.177405       0.000077
     43 H                     0.180278      -0.000266
     44 H                     0.214137      -0.000008
     45 H                     0.217671       0.000025
     46 H                     0.229170      -0.000000
     47 H                     0.228506       0.000012
     48 H                     0.183207      -0.000002
     49 H                     0.204852       0.000001
     50 H                     0.217516      -0.000000
     51 H                     0.235537      -0.000001
     52 H                     0.187956       0.000001
  --------------------------------------------------------
  Sum of atomic charges =    -1.000000

                    Cartesian Multipole Moments
 -----------------------------------------------------------------
    Charge (ESU x 10^10)
                -4.8032
    Dipole Moment (Debye)
         X     -20.2329      Y       1.6814      Z       0.7804
       Tot      20.3177
    Quadrupole Moments (Debye-Ang)
        XX    -304.4423     XY      27.6945     YY    -200.1942
        XZ      10.1736     YZ       6.2754     ZZ    -185.0695

 Total job time:  843.86s(wall), 6195.98s(cpu)
        *  Thank you very much for using Q-Chem.  Have a nice day.  *
