 Q-Chem 5.4, Q-Chem, Inc., Pleasanton, CA (2021)
 Q-Chem 5.4.0 for Intel X86 EM64T Linux

User input:
--------------------------------------------------------------
$molecule
-2 1
C                 -2.7888400000     -0.8703500000     -0.9810300000
C                 -1.4412210000     -0.4172740000     -0.4628090000
C                 -0.2894430000     -1.1236970000     -0.7697150000
C                  0.9981180000     -0.7330970000     -0.3400440000
C                  2.1666070000     -1.5410150000     -0.7029720000
O                  2.0737660000     -2.6135820000     -1.4054960000
C                  3.3979320000     -1.0301110000     -0.1997170000
C                  3.5068520000      0.1307060000      0.5760560000
C                  2.4003710000      0.9461770000      0.9517880000
O                  2.5100080000      2.0165660000      1.6551880000
C                  1.1100130000      0.4585320000      0.4547950000
C                 -0.0733590000      1.1709780000      0.7498040000
C                 -1.3277440000      0.7779480000      0.3118140000
C                 -2.5622840000      1.5673310000      0.6894810000
H                 -2.7007580000     -1.8156340000     -1.5246580000
H                 -3.5186870000     -1.0167700000     -0.1778800000
H                 -3.2450240000     -0.1365060000     -1.6689250000
H                 -0.3425040000     -2.0246400000     -1.3748690000
H                  4.2935900000     -1.6022100000     -0.4422210000
H                  4.4876810000      0.4583490000      0.9209240000
H                  0.0410850000      2.0639350000      1.3583000000
H                 -3.2610730000      0.9842570000      1.3152090000
H                 -2.2941800000      2.4666370000      1.2518070000
H                 -3.1409100000      1.8834690000     -0.1848320000
$end
$rem
MAX_SCF_CYCLES=200
BASIS  =  6-311++G(d,p)
GUI  =  2
JOB_TYPE  =  SP
METHOD  =  B3LYP
SOLVENT_METHOD = PCM
$end
$pcm
theory = CPCM
$end
$solvent
dielectric 37.219
opticaldielectric 1.43
$end

--------------------------------------------------------------

             Standard Nuclear Orientation (Angstroms)
    I     Atom           X                Y                Z
 ----------------------------------------------------------------
    1      C      -2.7888400000    -0.8703500000    -0.9810300000
    2      C      -1.4412210000    -0.4172740000    -0.4628090000
    3      C      -0.2894430000    -1.1236970000    -0.7697150000
    4      C       0.9981180000    -0.7330970000    -0.3400440000
    5      C       2.1666070000    -1.5410150000    -0.7029720000
    6      O       2.0737660000    -2.6135820000    -1.4054960000
    7      C       3.3979320000    -1.0301110000    -0.1997170000
    8      C       3.5068520000     0.1307060000     0.5760560000
    9      C       2.4003710000     0.9461770000     0.9517880000
   10      O       2.5100080000     2.0165660000     1.6551880000
   11      C       1.1100130000     0.4585320000     0.4547950000
   12      C      -0.0733590000     1.1709780000     0.7498040000
   13      C      -1.3277440000     0.7779480000     0.3118140000
   14      C      -2.5622840000     1.5673310000     0.6894810000
   15      H      -2.7007580000    -1.8156340000    -1.5246580000
   16      H      -3.5186870000    -1.0167700000    -0.1778800000
   17      H      -3.2450240000    -0.1365060000    -1.6689250000
   18      H      -0.3425040000    -2.0246400000    -1.3748690000
   19      H       4.2935900000    -1.6022100000    -0.4422210000
   20      H       4.4876810000     0.4583490000     0.9209240000
   21      H       0.0410850000     2.0639350000     1.3583000000
   22      H      -3.2610730000     0.9842570000     1.3152090000
   23      H      -2.2941800000     2.4666370000     1.2518070000
   24      H      -3.1409100000     1.8834690000    -0.1848320000
 ----------------------------------------------------------------

    9    -614.1698333095      4.54e-06  Convergence criterion met
 Total energy in the final basis set =     -614.1698333095

                    Orbital Energies (a.u.)
 --------------------------------------------------------------

 Alpha MOs
 -- Occupied --
-19.0167 -19.0167 -10.1678 -10.1678 -10.1553 -10.1549 -10.1510 -10.1510
-10.1400 -10.1400 -10.1342 -10.1338 -10.1161 -10.1156  -0.9354  -0.9324
 -0.8319  -0.7710  -0.7401  -0.7254  -0.6807  -0.6523  -0.6258  -0.5742
 -0.5569  -0.5221  -0.4607  -0.4558  -0.4382  -0.4156  -0.4054  -0.4008
 -0.3914  -0.3824  -0.3700  -0.3662  -0.3646  -0.3552  -0.3508  -0.3392
 -0.3183  -0.3089  -0.3019  -0.3009  -0.2235  -0.2234  -0.2070  -0.1991
 -0.1943  -0.1090

          Ground-State Mulliken Net Atomic Charges

     Atom                 Charge (a.u.)
  ----------------------------------------
      1 C                    -0.567041
      2 C                     0.555355
      3 C                    -0.410401
      4 C                     0.036157
      5 C                    -0.526355
      6 O                    -0.736232
      7 C                    -0.057991
      8 C                    -0.060286
      9 C                    -0.524814
     10 O                    -0.736623
     11 C                     0.029565
     12 C                    -0.412066
     13 C                     0.547251
     14 C                    -0.566171
     15 H                     0.164794
     16 H                     0.151326
     17 H                     0.160779
     18 H                     0.109641
     19 H                     0.128777
     20 H                     0.128835
     21 H                     0.109510
     22 H                     0.160579
     23 H                     0.164472
     24 H                     0.150942
  ----------------------------------------
  Sum of atomic charges =    -2.000000

                    Cartesian Multipole Moments
 -----------------------------------------------------------------
    Charge (ESU x 10^10)
                -9.6064
    Dipole Moment (Debye)
         X     -21.3496      Y       2.7804      Z      -1.1656
       Tot      21.5614
    Quadrupole Moments (Debye-Ang)
        XX    -141.1242     XY       2.3328     YY    -134.8564
        XZ      -5.0748     YZ     -26.2491     ZZ    -111.3478

 Total job time:  42.39s(wall), 236.08s(cpu)
        *  Thank you very much for using Q-Chem.  Have a nice day.  *
