 Gaussian 16, Revision A.03,
 Gaussian 16:  ES64L-G16RevA.03 25-Dec-2016

 --------------------------------------
 #P UB3LYP/6-311++G(d,p) nosym opt freq
 --------------------------------------

 -------
 Radical
 -------
 Symbolic Z-matrix:
 Charge = -1 Multiplicity = 2

 SCF Done:  E(UB3LYP) =  -1144.89870573     A.U. after   24 cycles
 SCF Done:  E(UB3LYP) =  -1144.91376674     A.U. after   19 cycles
 SCF Done:  E(UB3LYP) =  -1144.91494100     A.U. after   17 cycles
 SCF Done:  E(UB3LYP) =  -1144.91503578     A.U. after   15 cycles
 SCF Done:  E(UB3LYP) =  -1144.91491422     A.U. after   15 cycles
 SCF Done:  E(UB3LYP) =  -1144.91517453     A.U. after   14 cycles
 SCF Done:  E(UB3LYP) =  -1144.91521651     A.U. after   14 cycles
 SCF Done:  E(UB3LYP) =  -1144.91529488     A.U. after   14 cycles
 SCF Done:  E(UB3LYP) =  -1144.91535467     A.U. after   16 cycles
 SCF Done:  E(UB3LYP) =  -1144.91536869     A.U. after   13 cycles
 SCF Done:  E(UB3LYP) =  -1144.91537682     A.U. after   10 cycles
 SCF Done:  E(UB3LYP) =  -1144.91537688     A.U. after    9 cycles
 SCF Done:  E(UB3LYP) =  -1144.91537692     A.U. after    9 cycles
 SCF Done:  E(UB3LYP) =  -1144.91537696     A.U. after   10 cycles
 SCF Done:  E(UB3LYP) =  -1144.91537700     A.U. after    9 cycles
 SCF Done:  E(UB3LYP) =  -1144.91537703     A.U. after   10 cycles
 SCF Done:  E(UB3LYP) =  -1144.91537706     A.U. after   10 cycles
 SCF Done:  E(UB3LYP) =  -1144.91537709     A.U. after   10 cycles
 SCF Done:  E(UB3LYP) =  -1144.91537711     A.U. after   10 cycles
 Optimization completed.
    -- Stationary point found.
 Normal termination of Gaussian 16 at Thu Dec 21 09:20:17 2023.

 ----------------------------------------------------------------------
 #P Geom=AllCheck Guess=TCheck SCRF=Check GenChk UB3LYP/6-311++G(d,p) F
 req
 ----------------------------------------------------------------------

 Structure from the checkpoint file:  "148-rad.chk"
 -------
 Radical
 -------
 Charge = -1 Multiplicity = 2

                          Input orientation:
 ---------------------------------------------------------------------
 Center     Atomic      Atomic             Coordinates (Angstroms)
 Number     Number       Type             X           Y           Z
 ---------------------------------------------------------------------
      1          6           0       -3.008801    3.729791    0.408610
      2          6           0       -4.250551    3.155053    0.495809
      3          6           0       -4.434293    1.762625    0.420009
      4          6           0       -1.863642    2.919246    0.242630
      5          6           0       -2.024260    1.505767    0.165577
      6          6           0       -3.323138    0.961255    0.259020
      7          6           0       -0.553560    3.561088    0.146539
      8          6           0        0.585279    2.661023   -0.027858
      9          6           0        0.430701    1.246897   -0.105442
     10          6           0       -0.883050    0.605297   -0.014911
     11          6           0        1.881109    3.214219   -0.131648
     12          6           0        2.966652    2.394074   -0.301358
     13          6           0        2.838759    0.995736   -0.382959
     14          6           0        1.578363    0.444403   -0.282006
     15          8           0       -0.415212    4.809002    0.207737
     16          8           0       -1.022626   -0.638494   -0.091143
     17          1           0       -3.417252   -0.116539    0.197637
     18          1           0        1.432837   -0.627979   -0.337570
     19          1           0       -2.879869    4.804075    0.454798
     20          1           0        1.989349    4.290696   -0.083448
     21          1           0        3.716341    0.374552   -0.513397
     22          8           0        4.227515    3.007232   -0.502750
     23          6           0        5.243931    2.791910    0.364577
     24          6           0        6.459772    3.580055   -0.068139
     25          8           0        5.189750    2.085624    1.338386
     26          8           0       -5.370876    4.019528    0.557780
     27          1           0        6.236780    4.649068   -0.025196
     28          1           0        6.716558    3.340832   -1.102353
     29          1           0        7.295145    3.350596    0.590748
     30          6           0       -6.198643    3.997916    1.628330
     31          6           0       -7.288884    5.030764    1.451468
     32          8           0       -6.083369    3.272313    2.582425
     33          1           0       -5.428049    1.338740    0.496109
     34          1           0       -6.845524    6.029376    1.426679
     35          1           0       -7.993662    4.960588    2.277906
     36          1           0       -7.803789    4.877838    0.500574
 ---------------------------------------------------------------------

 SCF Done:  E(UB3LYP) =  -1144.91537711     A.U. after    1 cycles

 Alpha  occ. eigenvalues --  -19.08742 -19.08741 -19.03245 -19.03244 -18.95698
 Alpha  occ. eigenvalues --  -18.95606 -10.22684 -10.22683 -10.13183 -10.13183
 Alpha  occ. eigenvalues --  -10.11071 -10.11071 -10.10814 -10.10566 -10.07250
 Alpha  occ. eigenvalues --  -10.07249 -10.06626 -10.06625 -10.06547 -10.06547
 Alpha  occ. eigenvalues --  -10.06444 -10.06443 -10.06104 -10.06104  -1.02754
 Alpha  occ. eigenvalues --   -1.02754  -0.94655  -0.94654  -0.88438  -0.88102
 Alpha  occ. eigenvalues --   -0.75789  -0.75150  -0.69895  -0.68977  -0.66840
 Alpha  occ. eigenvalues --   -0.64790  -0.64756  -0.63305  -0.57274  -0.55038
 Alpha  occ. eigenvalues --   -0.54978  -0.50195  -0.49945  -0.47314  -0.44952
 Alpha  occ. eigenvalues --   -0.42309  -0.41856  -0.41190  -0.40799  -0.40177
 Alpha  occ. eigenvalues --   -0.39949  -0.39014  -0.38775  -0.36523  -0.35936
 Alpha  occ. eigenvalues --   -0.34553  -0.34473  -0.33569  -0.33132  -0.32388
 Alpha  occ. eigenvalues --   -0.32095  -0.31667  -0.30994  -0.30654  -0.29884
 Alpha  occ. eigenvalues --   -0.29864  -0.29170  -0.28332  -0.26575  -0.26065
 Alpha  occ. eigenvalues --   -0.25515  -0.25036  -0.24666  -0.22776  -0.22703
 Alpha  occ. eigenvalues --   -0.21869  -0.20276  -0.20253  -0.15292  -0.15162
 Alpha  occ. eigenvalues --   -0.14536  -0.13718  -0.12664  -0.11848  -0.02608
 Alpha virt. eigenvalues --    0.05546   0.05822   0.05833   0.07229   0.07715
 Alpha virt. eigenvalues --    0.08546   0.09025   0.09477   0.09628   0.09707
 Alpha virt. eigenvalues --    0.10138   0.10161   0.10834   0.11231   0.11797

  Beta  occ. eigenvalues --  -19.08741 -19.08740 -19.03245 -19.03245 -18.95124
  Beta  occ. eigenvalues --  -18.94972 -10.22678 -10.22678 -10.13138 -10.13138
  Beta  occ. eigenvalues --  -10.11071 -10.11071 -10.10698 -10.10422 -10.07189
  Beta  occ. eigenvalues --  -10.07189 -10.06648 -10.06648 -10.06544 -10.06543
  Beta  occ. eigenvalues --  -10.06351 -10.06350 -10.06009 -10.06008  -1.02743
  Beta  occ. eigenvalues --   -1.02743  -0.94648  -0.94648  -0.87445  -0.87015
  Beta  occ. eigenvalues --   -0.75555  -0.75045  -0.69709  -0.68948  -0.66579
  Beta  occ. eigenvalues --   -0.64646  -0.64583  -0.63147  -0.56845  -0.54860
  Beta  occ. eigenvalues --   -0.54697  -0.50001  -0.49822  -0.47189  -0.44711
  Beta  occ. eigenvalues --   -0.42246  -0.41832  -0.41123  -0.40718  -0.40155
  Beta  occ. eigenvalues --   -0.39920  -0.38855  -0.38706  -0.36387  -0.35857
  Beta  occ. eigenvalues --   -0.34523  -0.34462  -0.33420  -0.33051  -0.32354
  Beta  occ. eigenvalues --   -0.32054  -0.31531  -0.30923  -0.29891  -0.29784
  Beta  occ. eigenvalues --   -0.29484  -0.28753  -0.27797  -0.26445  -0.25382
  Beta  occ. eigenvalues --   -0.24854  -0.24443  -0.23718  -0.22709  -0.22397
  Beta  occ. eigenvalues --   -0.20956  -0.20249  -0.20242  -0.14831  -0.13669
  Beta  occ. eigenvalues --   -0.13151  -0.12870  -0.12102  -0.11282
  Beta virt. eigenvalues --    0.03376   0.05817   0.05820   0.06283   0.07382
  Beta virt. eigenvalues --    0.07821   0.08940   0.09033   0.09625   0.09675
  Beta virt. eigenvalues --    0.10011   0.10150   0.10238   0.10991   0.11230

 Mulliken charges and spin densities:
               1          2
     1  C   -0.013351   0.017687
     2  C   -0.721072   0.025212
     3  C    0.162729   0.051652
     4  C    0.465690   0.066986
     5  C    0.354699   0.045582
     6  C    0.197729   0.009589
     7  C   -0.978170   0.078124
     8  C    0.466111   0.067015
     9  C    0.353844   0.045559
    10  C   -0.760144   0.048838
    11  C   -0.012811   0.017688
    12  C   -0.721874   0.025227
    13  C    0.163253   0.051640
    14  C    0.197910   0.009568
    15  O   -0.355240   0.237054
    16  O   -0.351016   0.214099
    17  H    0.170878  -0.000475
    18  H    0.170868  -0.000475
    19  H    0.180814  -0.001918
    20  H    0.180788  -0.001917
    21  H    0.167645  -0.004015
    22  O   -0.021030   0.000616
    23  C    0.065624   0.000002
    24  C   -0.539313   0.000523
    25  O   -0.240573  -0.000721
    26  O   -0.021163   0.000618
    27  H    0.169827   0.000137
    28  H    0.163450   0.000130
    29  H    0.158587  -0.000046
    30  C    0.065849   0.000007
    31  C   -0.539601   0.000521
    32  O   -0.240619  -0.000717
    33  H    0.167729  -0.004014
    34  H    0.169916   0.000138
    35  H    0.158564  -0.000046
    36  H    0.163473   0.000131
 Sum of Mulliken charges =  -1.00000   1.00000

 Dipole moment (field-independent basis, Debye):
    X=              3.1798    Y=             -8.9575    Z=             -3.7798  Tot=             10.2291
 Quadrupole moment (field-independent basis, Debye-Ang):
   XX=           -161.6191   YY=           -179.2990   ZZ=           -156.3568
   XY=              5.5902   XZ=              3.1740   YZ=             -7.0416

  Exact polarizability: 440.656 -18.893 259.715 -32.333   7.015 146.857
 Approx polarizability: 564.141  -8.744 484.705 -36.220   1.315 240.024

                      1                      2                      3
                      A                      A                      A
 Frequencies --     17.6679                23.4710                35.1098
 Red. masses --      8.8097                 6.1738                 2.7745
 Frc consts  --      0.0016                 0.0020                 0.0020
 IR Inten    --      0.6109                 0.5781                 5.4523

                      4                      5                      6
                      A                      A                      A
 Frequencies --     39.8715                40.2670                57.4563
 Red. masses --      2.1389                 1.5634                 3.3163
 Frc consts  --      0.0020                 0.0015                 0.0065
 IR Inten    --      1.3790                 0.1471                 0.4539

                      7                      8                      9
                      A                      A                      A
 Frequencies --     69.2337                80.2070                80.9593
 Red. masses --      1.9478                 2.3994                 6.7902
 Frc consts  --      0.0055                 0.0091                 0.0262
 IR Inten    --      2.7154                 1.9508                 0.5863

                     10                     11                     12
                      A                      A                      A
 Frequencies --    132.7885               148.0212               161.6710
 Red. masses --      4.7307                 6.6738                 8.4447
 Frc consts  --      0.0491                 0.0862                 0.1300
 IR Inten    --      2.6466                 4.4820                 5.0073

                     13                     14                     15
                      A                      A                      A
 Frequencies --    179.1361               199.7012               234.8401
 Red. masses --      7.8973                 7.5718                 5.0044
 Frc consts  --      0.1493                 0.1779                 0.1626
 IR Inten    --      1.2718                 2.5803                 3.3933

                     16                     17                     18
                      A                      A                      A
 Frequencies --    250.3187               288.3787               304.0789
 Red. masses --      9.9241                 4.9910                 6.2758
 Frc consts  --      0.3664                 0.2445                 0.3419
 IR Inten    --      0.5313                 0.3167                 2.0628

                     19                     20                     21
                      A                      A                      A
 Frequencies --    342.4536               388.6075               395.9230
 Red. masses --      5.6782                10.1540                 5.5012
 Frc consts  --      0.3923                 0.9035                 0.5081
 IR Inten    --      1.9951                12.2981                 4.1851

                     22                     23                     24
                      A                      A                      A
 Frequencies --    398.5701               419.5625               422.5297
 Red. masses --      4.6469                 5.0085                 4.3856
 Frc consts  --      0.4349                 0.5195                 0.4613
 IR Inten    --      6.1463                 1.1056                 1.0045

                     25                     26                     27
                      A                      A                      A
 Frequencies --    467.2197               472.0171               479.1130
 Red. masses --      3.6427                 4.2640                 6.4856
 Frc consts  --      0.4685                 0.5597                 0.8772
 IR Inten    --      3.0890                 4.3475                 6.4591

                     28                     29                     30
                      A                      A                      A
 Frequencies --    493.0685               564.9499               566.5323
 Red. masses --      9.1316                 4.9460                 4.8818
 Frc consts  --      1.3080                 0.9301                 0.9232
 IR Inten    --      1.7470                 6.6697                15.3778

                     31                     32                     33
                      A                      A                      A
 Frequencies --    577.9741               602.3829               604.9354
 Red. masses --      5.0911                 2.8792                 2.9404
 Frc consts  --      1.0020                 0.6156                 0.6340
 IR Inten    --      4.7952                 4.3814                 0.2582

                     34                     35                     36
                      A                      A                      A
 Frequencies --    641.0973               649.9582               676.7567
 Red. masses --      4.0288                 6.9179                 4.5745
 Frc consts  --      0.9756                 1.7218                 1.2344
 IR Inten    --     12.5939                 0.9778                13.3413

                     37                     38                     39
                      A                      A                      A
 Frequencies --    691.1279               711.9651               722.3305
 Red. masses --      6.1893                 6.2315                 5.1311
 Frc consts  --      1.7418                 1.8611                 1.5774
 IR Inten    --      0.2161                 2.2905                19.4155

                     40                     41                     42
                      A                      A                      A
 Frequencies --    723.1622               757.5802               786.9399
 Red. masses --      4.5426                 6.5117                 2.5981
 Frc consts  --      1.3997                 2.2019                 0.9480
 IR Inten    --      0.0601                 4.0430                 5.7790

                     43                     44                     45
                      A                      A                      A
 Frequencies --    791.7289               814.9214               828.2904
 Red. masses --      2.8026                 2.0036                 2.5221
 Frc consts  --      1.0351                 0.7840                 1.0195
 IR Inten    --     16.1555                37.0393                14.8153

                     46                     47                     48
                      A                      A                      A
 Frequencies --    879.4989               906.3387               927.5623
 Red. masses --      4.5291                 2.4050                 1.7301
 Frc consts  --      2.0641                 1.1640                 0.8770
 IR Inten    --     13.7393                12.5798                15.9598

                     49                     50                     51
                      A                      A                      A
 Frequencies --    936.5465               941.0285               960.9528
 Red. masses --      3.7332                 3.1779                 3.9146
 Frc consts  --      1.9293                 1.6580                 2.1298
 IR Inten    --     44.7730                10.5256                28.9410

                     52                     53                     54
                      A                      A                      A
 Frequencies --    979.4631               983.1552              1007.8152
 Red. masses --      1.3063                 1.3350                 2.3741
 Frc consts  --      0.7383                 0.7603                 1.4207
 IR Inten    --      1.5312                 4.8458                 0.4650

                     55                     56                     57
                      A                      A                      A
 Frequencies --   1023.8304              1024.9765              1060.5200
 Red. masses --      1.7191                 1.7523                 1.7807
 Frc consts  --      1.0617                 1.0846                 1.1800
 IR Inten    --     24.6526               241.8846                 4.0748

                     58                     59                     60
                      A                      A                      A
 Frequencies --   1060.5254              1097.7115              1116.8029
 Red. masses --      1.7807                 2.1994                 1.5865
 Frc consts  --      1.1800                 1.5614                 1.1659
 IR Inten    --      7.4541                 0.9116                 5.0443

                     61                     62                     63
                      A                      A                      A
 Frequencies --   1136.4148              1144.6886              1189.4640
 Red. masses --      1.5927                 3.0219                 2.1833
 Frc consts  --      1.2119                 2.3330                 1.8199
 IR Inten    --     38.3612               343.3943                 1.1712

                     64                     65                     66
                      A                      A                      A
 Frequencies --   1211.7580              1213.7859              1217.8709
 Red. masses --      2.8231                 7.6059                 2.8629
 Frc consts  --      2.4424                 6.6022                 2.5019
 IR Inten    --      2.8640                90.2440                 2.8177

                     67                     68                     69
                      A                      A                      A
 Frequencies --   1239.8608              1243.9447              1251.7881
 Red. masses --      4.3052                 2.6541                 2.1916
 Frc consts  --      3.8993                 2.4197                 2.0234
 IR Inten    --   1385.5347               123.4595               115.3223

                     70                     71                     72
                      A                      A                      A
 Frequencies --   1311.0533              1364.7405              1365.4137
 Red. masses --      2.2172                10.6597                10.0366
 Frc consts  --      2.2454                11.6976                11.0247
 IR Inten    --      0.0063                36.2082                25.1177

                     73                     74                     75
                      A                      A                      A
 Frequencies --   1392.3387              1392.6649              1399.8912
 Red. masses --      1.3243                 1.3316                 4.1477
 Frc consts  --      1.5126                 1.5216                 4.7890
 IR Inten    --    136.3865                37.8104               242.2773

                     76                     77                     78
                      A                      A                      A
 Frequencies --   1452.9802              1473.3208              1473.3626
 Red. masses --      3.5763                 1.0514                 1.0511
 Frc consts  --      4.4485                 1.3446                 1.3444
 IR Inten    --     85.8356                 1.5536                27.1881

                     79                     80                     81
                      A                      A                      A
 Frequencies --   1476.9180              1476.9596              1481.6688
 Red. masses --      1.0524                 1.0477                 3.1584
 Frc consts  --      1.3525                 1.3465                 4.0853
 IR Inten    --     18.6474                 2.8823                83.3485

                     82                     83                     84
                      A                      A                      A
 Frequencies --   1487.5047              1528.5718              1543.0548
 Red. masses --      3.9416                 5.6215                10.9237
 Frc consts  --      5.1385                 7.7389                15.3243
 IR Inten    --     99.1759               533.3772                19.8560

                     85                     86                     87
                      A                      A                      A
 Frequencies --   1561.4809              1615.2822              1625.8576
 Red. masses --      6.8289                 8.7456                 6.6566
 Frc consts  --      9.8101                13.4443                10.3674
 IR Inten    --     45.3008                 2.9074               130.3254

                     88                     89                     90
                      A                      A                      A
 Frequencies --   1640.4617              1797.0308              1797.9583
 Red. masses --      8.0779                11.4568                11.4623
 Frc consts  --     12.8079                21.7983                21.8314
 IR Inten    --     16.9983                54.4279               526.7976

                     91                     92                     93
                      A                      A                      A
 Frequencies --   3045.7278              3045.7435              3106.3234
 Red. masses --      1.0359                 1.0359                 1.0998
 Frc consts  --      5.6618                 5.6617                 6.2525
 IR Inten    --     10.1113                 7.0856                 6.7140

                     94                     95                     96
                      A                      A                      A
 Frequencies --   3106.3376              3147.2367              3147.2581
 Red. masses --      1.0998                 1.1033                 1.1033
 Frc consts  --      6.2524                 6.4388                 6.4389
 IR Inten    --      8.7077                18.2260                13.8130

                     97                     98                     99
                      A                      A                      A
 Frequencies --   3178.5086              3178.5449              3193.7332
 Red. masses --      1.0868                 1.0868                 1.0945
 Frc consts  --      6.4689                 6.4691                 6.5777
 IR Inten    --      1.1213                 1.1591                24.6198

                    100                    101                    102
                      A                      A                      A
 Frequencies --   3194.1146              3197.0300              3197.5587
 Red. masses --      1.0945                 1.0906                 1.0908
 Frc consts  --      6.5792                 6.5675                 6.5713
 IR Inten    --      7.5904                23.3773                 0.0286

 - Thermochemistry -
 -------------------
 Temperature   298.150 Kelvin.  Pressure   1.00000 Atm.
 Atom     1 has atomic number  6 and mass  12.00000

 Molecular mass:   324.06339 amu.
 Principal axes and moments of inertia in atomic units:
                           1         2         3
     Eigenvalues --  2792.46288********************
           X            0.98854   0.11989   0.09171
           Y           -0.10421   0.98161  -0.15994
           Z           -0.10919   0.14855   0.98286
 This molecule is an asymmetric top.
 Rotational symmetry number  1.
 Warning -- assumption of classical behavior for rotation
           may cause significant error
 Rotational temperatures (Kelvin)      0.03102     0.00461     0.00416
 Rotational constants (GHZ):           0.64629     0.09597     0.08671
 Zero-point vibrational energy     678807.9 (Joules/Mol)
                                  162.23897 (Kcal/Mol)
 Warning -- explicit consideration of  33 degrees of freedom as
           vibrations may cause significant error
 Vibrational temperatures:     25.42    33.77    50.52    57.37    57.94
          (Kelvin)             82.67    99.61   115.40   116.48   191.05
                              212.97   232.61   257.74   287.33   337.88
                              360.15   414.91   437.50   492.71   559.12
                              569.64   573.45   603.66   607.93   672.22
                              679.13   689.34   709.42   812.84   815.11
                              831.58   866.69   870.37   922.40   935.14
                              973.70   994.38  1024.36  1039.27  1040.47
                             1089.99  1132.23  1139.12  1172.49  1191.73
                             1265.40  1304.02  1334.56  1347.48  1353.93
                             1382.60  1409.23  1414.54  1450.02  1473.06
                             1474.71  1525.85  1525.86  1579.36  1606.83
                             1635.05  1646.95  1711.37  1743.45  1746.37
                             1752.24  1783.88  1789.76  1801.04  1886.31
                             1963.56  1964.53  2003.26  2003.73  2014.13
                             2090.51  2119.78  2119.84  2124.96  2125.02
                             2131.79  2140.19  2199.27  2220.11  2246.62
                             2324.03  2339.25  2360.26  2585.53  2586.86
                             4382.12  4382.15  4469.31  4469.33  4528.17
                             4528.20  4573.16  4573.22  4595.07  4595.62
                             4599.81  4600.57

 Zero-point correction=                           0.258544 (Hartree/Particle)
 Thermal correction to Energy=                    0.279633
 Thermal correction to Enthalpy=                  0.280577
 Thermal correction to Gibbs Free Energy=         0.203920
 Sum of electronic and zero-point Energies=          -1144.656833
 Sum of electronic and thermal Energies=             -1144.635744
 Sum of electronic and thermal Enthalpies=           -1144.634800
 Sum of electronic and thermal Free Energies=        -1144.711458

                     E (Thermal)             CV                S
                      KCal/Mol        Cal/Mol-Kelvin    Cal/Mol-Kelvin
 Total                  175.472             78.105            161.340
 Electronic               0.000              0.000              1.377
 Translational            0.889              2.981             43.223
 Rotational               0.889              2.981             35.345
 Vibrational            173.695             72.144             81.394
 Vibration     1          0.593              1.986              6.880
 Vibration     2          0.593              1.985              6.316
 Vibration     3          0.594              1.982              5.518
 Vibration     4          0.594              1.981              5.265
 Vibration     5          0.594              1.981              5.246
 Vibration     6          0.596              1.975              4.543
 Vibration     7          0.598              1.969              4.175
 Vibration     8          0.600              1.963              3.886
 Vibration     9          0.600              1.962              3.867
 Vibration    10          0.613              1.921              2.905
 Vibration    11          0.617              1.905              2.698
 Vibration    12          0.622              1.889              2.530
 Vibration    13          0.629              1.868              2.337
 Vibration    14          0.638              1.840              2.136
 Vibration    15          0.655              1.788              1.842
 Vibration    16          0.663              1.762              1.728
 Vibration    17          0.685              1.695              1.483
 Vibration    18          0.695              1.666              1.394
 Vibration    19          0.722              1.591              1.201
 Vibration    20          0.757              1.495              1.005
 Vibration    21          0.763              1.479              0.978
 Vibration    22          0.765              1.473              0.968
 Vibration    23          0.782              1.428              0.893
 Vibration    24          0.785              1.421              0.883
 Vibration    25          0.824              1.323              0.745
 Vibration    26          0.829              1.312              0.732
 Vibration    27          0.836              1.296              0.712
 Vibration    28          0.849              1.265              0.676
 Vibration    29          0.921              1.107              0.514
 Vibration    30          0.922              1.104              0.511
 Vibration    31          0.934              1.079              0.489
 Vibration    32          0.961              1.027              0.446
 Vibration    33          0.963              1.021              0.441

                           ! Non-Optimized Parameters !
 Normal termination of Gaussian 16 at Thu Dec 21 11:20:54 2023.
