 Gaussian 16, Revision A.03,
 Gaussian 16:  ES64L-G16RevA.03 25-Dec-2016

 ----------------------------------------------
 #P UB3LYP/6-311++G(d,p) nosym opt freq SCF=YQC
 ----------------------------------------------

 -------
 Reduced
 -------
 Symbolic Z-matrix:
 Charge = -2 Multiplicity = 1

 SCF Done:  E(UB3LYP) =  -771.164278293     a.u. after   18 cycles
 SCF Done:  E(UB3LYP) =  -771.165003344     A.U. after   27 cycles
 SCF Done:  E(UB3LYP) =  -771.180845264     a.u. after   27 cycles
 SCF Done:  E(UB3LYP) =  -771.181114170     A.U. after   24 cycles
 SCF Done:  E(UB3LYP) =  -771.183174310     a.u. after   42 cycles
 SCF Done:  E(UB3LYP) =  -771.183402454     A.U. after   24 cycles
 SCF Done:  E(UB3LYP) =  -771.183180543     a.u. after   94 cycles
 SCF Done:  E(UB3LYP) =  -771.183588806     A.U. after   25 cycles
 SCF Done:  E(UB3LYP) =  -771.184907185     a.u. after   22 cycles
 SCF Done:  E(UB3LYP) =  -771.185133635     A.U. after   25 cycles
 SCF Done:  E(UB3LYP) =  -771.194655949     a.u. after    1 cycles
 SCF Done:  E(UB3LYP) =  -771.194658577     A.U. after   20 cycles
 SCF Done:  E(UB3LYP) =  -771.194651389     a.u. after    1 cycles
 SCF Done:  E(UB3LYP) =  -771.194658760     A.U. after   22 cycles
 SCF Done:  E(UB3LYP) =  -771.194654670     a.u. after    1 cycles
 SCF Done:  E(UB3LYP) =  -771.194658819     A.U. after   20 cycles
 SCF Done:  E(UB3LYP) =  -771.194655503     a.u. after    1 cycles
 SCF Done:  E(UB3LYP) =  -771.194658846     A.U. after   20 cycles
 Optimization completed.
    -- Stationary point found.
 Normal termination of Gaussian 16 at Wed Dec 27 13:50:51 2023.

 ----------------------------------------------------------------------
 #P Geom=AllCheck Guess=TCheck SCRF=Check GenChk UB3LYP/6-311++G(d,p) F
 req
 ----------------------------------------------------------------------

 Structure from the checkpoint file:  "248-an.chk"
 -------
 Reduced
 -------
 Charge = -2 Multiplicity = 1

                          Input orientation:
 ---------------------------------------------------------------------
 Center     Atomic      Atomic             Coordinates (Angstroms)
 Number     Number       Type             X           Y           Z
 ---------------------------------------------------------------------
      1          6           0        5.899061   -5.552609    0.921794
      2          6           0        6.422095   -5.564911   -0.359243
      3          6           0        5.981130   -4.607183   -1.305412
      4          6           0        4.928292   -4.606884    1.321884
      5          6           0        4.479278   -3.638687    0.361682
      6          6           0        5.029798   -3.671506   -0.938884
      7          6           0        4.410861   -4.631948    2.686253
      8          6           0        3.423671   -3.631986    2.991460
      9          6           0        2.986176   -2.677443    2.050103
     10          6           0        3.476572   -2.634014    0.700983
     11          8           0        4.822939   -5.498080    3.541149
     12          8           0        3.071783   -1.770231   -0.157379
     13          1           0        7.168671   -6.305683   -0.639627
     14          6           0        1.964939   -1.620827    2.415729
     15          1           0        6.388297   -4.609078   -2.314786
     16          6           0        2.876061   -3.648542    4.401220
     17          6           0        0.506029   -1.985363    2.062693
     18          6           0       -0.500253   -0.894843    2.449010
     19          6           0       -1.962248   -1.223865    2.113229
     20          6           0       -2.953667   -0.134260    2.537398
     21          1           0        6.216378   -6.271440    1.670687
     22          1           0        4.668008   -2.925792   -1.639852
     23          1           0        2.217437   -0.710595    1.859330
     24          1           0        2.016774   -1.385967    3.486384
     25          1           0        3.232130   -4.553825    4.897326
     26          1           0        1.778507   -3.630526    4.428138
     27          1           0        3.219172   -2.785434    4.992129
     28          1           0        0.234469   -2.924740    2.561819
     29          1           0        0.458797   -2.173129    0.984814
     30          1           0       -0.222932    0.043623    1.949800
     31          1           0       -0.423749   -0.695434    3.527885
     32          1           0       -2.236621   -2.171491    2.594327
     33          1           0       -2.050759   -1.398602    1.033647
     34          1           0       -2.919401    0.038174    3.619817
     35          1           0       -3.988577   -0.390828    2.288059
     36          1           0       -2.731426    0.821888    2.048993
 ---------------------------------------------------------------------

 SCF Done:  E(UB3LYP) =  -771.194658846     a.u. after    1 cycles
 SCF Done:  E(UB3LYP) =  -771.194658846     A.U. after    6 cycles

 Alpha  occ. eigenvalues --  -18.80641 -18.80589  -9.98514  -9.98378  -9.97177
 Alpha  occ. eigenvalues --   -9.96190  -9.96085  -9.95379  -9.95093  -9.95044
 Alpha  occ. eigenvalues --   -9.94145  -9.94129  -9.93984  -9.93517  -9.92859
 Alpha  occ. eigenvalues --   -9.92814  -9.92319  -9.91988  -0.72412  -0.72039
 Alpha  occ. eigenvalues --   -0.61983  -0.61234  -0.57814  -0.54796  -0.51906
 Alpha  occ. eigenvalues --   -0.51645  -0.49143  -0.45275  -0.42100  -0.40768
 Alpha  occ. eigenvalues --   -0.38396  -0.36351  -0.34828  -0.31310  -0.28945
 Alpha  occ. eigenvalues --   -0.27493  -0.26101  -0.24508  -0.23731  -0.22333
 Alpha  occ. eigenvalues --   -0.21741  -0.21570  -0.19414  -0.19170  -0.18384
 Alpha  occ. eigenvalues --   -0.17526  -0.16798  -0.16430  -0.15901  -0.15345
 Alpha  occ. eigenvalues --   -0.14607  -0.14027  -0.13573  -0.13173  -0.12669
 Alpha  occ. eigenvalues --   -0.11586  -0.10142  -0.09921  -0.09444  -0.08952
 Alpha  occ. eigenvalues --   -0.02075  -0.00991   0.00571   0.01596   0.02417
 Alpha  occ. eigenvalues --    0.11300
 Alpha virt. eigenvalues --    0.12338   0.15002   0.15241   0.15730   0.16660
 Alpha virt. eigenvalues --    0.16819   0.17678   0.18595   0.19115   0.19298
 Alpha virt. eigenvalues --    0.20032   0.20498   0.20673   0.20931   0.21348

  Beta  occ. eigenvalues --  -18.80641 -18.80589  -9.98514  -9.98378  -9.97177
  Beta  occ. eigenvalues --   -9.96190  -9.96085  -9.95379  -9.95093  -9.95044
  Beta  occ. eigenvalues --   -9.94145  -9.94129  -9.93984  -9.93517  -9.92859
  Beta  occ. eigenvalues --   -9.92814  -9.92319  -9.91988  -0.72412  -0.72039
  Beta  occ. eigenvalues --   -0.61983  -0.61234  -0.57814  -0.54796  -0.51906
  Beta  occ. eigenvalues --   -0.51645  -0.49143  -0.45275  -0.42100  -0.40768
  Beta  occ. eigenvalues --   -0.38396  -0.36351  -0.34828  -0.31310  -0.28945
  Beta  occ. eigenvalues --   -0.27493  -0.26101  -0.24508  -0.23731  -0.22333
  Beta  occ. eigenvalues --   -0.21741  -0.21570  -0.19414  -0.19170  -0.18384
  Beta  occ. eigenvalues --   -0.17526  -0.16798  -0.16430  -0.15901  -0.15345
  Beta  occ. eigenvalues --   -0.14607  -0.14027  -0.13573  -0.13173  -0.12669
  Beta  occ. eigenvalues --   -0.11586  -0.10142  -0.09921  -0.09444  -0.08952
  Beta  occ. eigenvalues --   -0.02075  -0.00991   0.00571   0.01596   0.02417
  Beta  occ. eigenvalues --    0.11300
  Beta virt. eigenvalues --    0.12338   0.15002   0.15241   0.15730   0.16660
  Beta virt. eigenvalues --    0.16819   0.17678   0.18595   0.19115   0.19298
  Beta virt. eigenvalues --    0.20032   0.20498   0.20673   0.20931   0.21348

 Mulliken charges and spin densities:
               1          2
     1  C    0.110584   0.000000
     2  C   -0.388694   0.000000
     3  C   -0.357720   0.000000
     4  C    0.491350   0.000000
     5  C   -0.019534   0.000000
     6  C   -0.014124  -0.000000
     7  C   -1.035463   0.000000
     8  C    1.225027   0.000000
     9  C    1.161836   0.000000
    10  C   -1.288718  -0.000000
    11  O   -0.486626  -0.000000
    12  O   -0.462987  -0.000000
    13  H    0.079826   0.000000
    14  C   -0.544353  -0.000000
    15  H    0.081376   0.000000
    16  C   -0.613450  -0.000000
    17  C   -0.617672  -0.000000
    18  C    0.866980  -0.000000
    19  C   -2.304930   0.000000
    20  C    2.193686  -0.000000
    21  H    0.138764   0.000000
    22  H    0.140158   0.000000
    23  H    0.170040   0.000000
    24  H    0.071783   0.000000
    25  H    0.178957  -0.000000
    26  H    0.080323   0.000000
    27  H    0.116715  -0.000000
    28  H    0.088462   0.000000
    29  H    0.170410   0.000000
    30  H    0.129597  -0.000000
    31  H    0.168516  -0.000000
    32  H    0.062393  -0.000000
    33  H    0.142713  -0.000000
    34  H   -0.376211   0.000000
    35  H   -1.110715   0.000000
    36  H   -0.248299   0.000000
 Sum of Mulliken charges =  -2.00000  -0.00000

 Dipole moment (field-independent basis, Debye):
    X=            -21.0501    Y=             27.6943    Z=            -16.9373  Tot=             38.6905
 Quadrupole moment (field-independent basis, Debye-Ang):
   XX=           -318.0625   YY=           -260.2508   ZZ=           -190.9814
   XY=            133.6874   XZ=            -18.8333   YZ=             53.8647

  Exact polarizability:2169.557-733.1301004.156-231.433 135.500 698.268
 Approx polarizability:****************4315.917********1061.9681059.412

                      1                      2                      3
                      A                      A                      A
 Frequencies --     27.3675                37.1103                50.0901
 Red. masses --      4.3614                 4.9466                 1.6263
 Frc consts  --      0.0019                 0.0040                 0.0024
 IR Inten    --      1.6485                 0.6915                 0.7691

                      4                      5                      6
                      A                      A                      A
 Frequencies --     83.2820                99.5060               110.0081
 Red. masses --      4.8635                 2.6584                 1.7253
 Frc consts  --      0.0199                 0.0155                 0.0123
 IR Inten    --      8.7603                 6.4391                 1.1078

                      7                      8                      9
                      A                      A                      A
 Frequencies --    124.6510               142.8972               147.8698
 Red. masses --      1.5969                 1.8900                 3.2161
 Frc consts  --      0.0146                 0.0227                 0.0414
 IR Inten    --      1.5197                 0.2269                 0.9308

                     10                     11                     12
                      A                      A                      A
 Frequencies --    162.2234               193.2905               254.5915
 Red. masses --      4.2342                 5.8938                 4.2455
 Frc consts  --      0.0657                 0.1297                 0.1621
 IR Inten    --      1.6530                 4.7427                 3.1225

                     13                     14                     15
                      A                      A                      A
 Frequencies --    263.3769               282.0960               334.2054
 Red. masses --      1.1199                 4.2194                 2.7553
 Frc consts  --      0.0458                 0.1978                 0.1813
 IR Inten    --     18.7541                 6.7281                 0.3826

                     16                     17                     18
                      A                      A                      A
 Frequencies --    338.7934               345.5989               377.9796
 Red. masses --      3.2561                 3.6202                 7.9128
 Frc consts  --      0.2202                 0.2548                 0.6661
 IR Inten    --      0.5857                 2.4669                30.6108

                     19                     20                     21
                      A                      A                      A
 Frequencies --    393.5261               425.2323               429.6673
 Red. masses --      4.6578                 5.9369                 4.2848
 Frc consts  --      0.4250                 0.6325                 0.4661
 IR Inten    --      0.6670               240.1459                 7.9100

                     22                     23                     24
                      A                      A                      A
 Frequencies --    453.3655               476.6703               518.5288
 Red. masses --      3.6084                 5.5090                 6.3236
 Frc consts  --      0.4370                 0.7375                 1.0018
 IR Inten    --     47.8435               287.4893               227.2920

                     25                     26                     27
                      A                      A                      A
 Frequencies --    556.7411               633.1755               669.3949
 Red. masses --      4.9857                 5.0942                 5.4104
 Frc consts  --      0.9105                 1.2033                 1.4284
 IR Inten    --     13.1994                14.8436                 1.6096

                     28                     29                     30
                      A                      A                      A
 Frequencies --    672.2719               683.0596               706.1904
 Red. masses --      3.4316                 2.9294                 2.4547
 Frc consts  --      0.9138                 0.8053                 0.7213
 IR Inten    --      3.0494                25.1129                31.9494

                     31                     32                     33
                      A                      A                      A
 Frequencies --    726.7077               751.4722               760.8715
 Red. masses --      1.0935                 1.2743                 2.5807
 Frc consts  --      0.3403                 0.4240                 0.8803
 IR Inten    --      1.0158                 3.7882                14.9747

                     34                     35                     36
                      A                      A                      A
 Frequencies --    786.7137               817.7980               827.0126
 Red. masses --      2.3639                 1.8717                 2.1208
 Frc consts  --      0.8620                 0.7375                 0.8546
 IR Inten    --      0.7949                 8.2343                 0.9162

                     37                     38                     39
                      A                      A                      A
 Frequencies --    858.0387               881.6527               914.6969
 Red. masses --      1.9560                 2.0735                 2.6945
 Frc consts  --      0.8485                 0.9496                 1.3283
 IR Inten    --      3.7211                12.6790                46.4013

                     40                     41                     42
                      A                      A                      A
 Frequencies --    957.4805               961.7027               972.6071
 Red. masses --      1.2369                 1.3660                 1.4275
 Frc consts  --      0.6681                 0.7443                 0.7956
 IR Inten    --      0.1908                 3.4079                33.6926

                     43                     44                     45
                      A                      A                      A
 Frequencies --    986.2520               997.1105              1020.9042
 Red. masses --      3.1954                 3.5283                 2.0984
 Frc consts  --      1.8313                 2.0668                 1.2886
 IR Inten    --     15.0250                18.6678               346.8186

                     46                     47                     48
                      A                      A                      A
 Frequencies --   1021.6443              1039.6227              1054.5385
 Red. masses --      2.8588                 1.4887                 1.8354
 Frc consts  --      1.7580                 0.9480                 1.2025
 IR Inten    --     16.9613                 6.1315                36.4067

                     49                     50                     51
                      A                      A                      A
 Frequencies --   1056.6017              1096.5552              1117.4092
 Red. masses --      2.3485                 2.0035                 2.3770
 Frc consts  --      1.5448                 1.4194                 1.7487
 IR Inten    --     14.3760                11.8117                14.4967

                     52                     53                     54
                      A                      A                      A
 Frequencies --   1126.6748              1132.3060              1174.4141
 Red. masses --      1.5294                 1.7474                 2.7693
 Frc consts  --      1.1439                 1.3200                 2.2504
 IR Inten    --     74.9586                91.3349               283.2233

                     55                     56                     57
                      A                      A                      A
 Frequencies --   1201.6258              1219.5935              1235.9779
 Red. masses --      1.9971                 1.8763                 2.4564
 Frc consts  --      1.6990                 1.6443                 2.2109
 IR Inten    --      9.1287                14.8823                68.6859

                     58                     59                     60
                      A                      A                      A
 Frequencies --   1253.0204              1266.2290              1295.6867
 Red. masses --      1.2922                 2.2083                 1.2949
 Frc consts  --      1.1953                 2.0861                 1.2808
 IR Inten    --     14.2802                17.2423                 1.3425

                     61                     62                     63
                      A                      A                      A
 Frequencies --   1320.3758              1323.4105              1328.2903
 Red. masses --      1.0730                 1.2744                 1.2352
 Frc consts  --      1.1021                 1.3151                 1.2841
 IR Inten    --     87.8736                12.6129                23.9791

                     64                     65                     66
                      A                      A                      A
 Frequencies --   1342.4026              1358.5333              1363.0699
 Red. masses --      7.1693                 1.4441                 1.4430
 Frc consts  --      7.6119                 1.5703                 1.5796
 IR Inten    --    707.9587                52.8623                27.4073

                     67                     68                     69
                      A                      A                      A
 Frequencies --   1380.9464              1398.8480              1410.3074
 Red. masses --      1.5789                 1.2468                 2.6124
 Frc consts  --      1.7740                 1.4374                 3.0614
 IR Inten    --     55.3254               708.4843                80.0450

                     70                     71                     72
                      A                      A                      A
 Frequencies --   1429.1083              1432.2244              1449.5148
 Red. masses --      3.8664                 3.0532                 3.2876
 Frc consts  --      4.6526                 3.6900                 4.0698
 IR Inten    --   1126.5049               896.7125               481.5820

                     73                     74                     75
                      A                      A                      A
 Frequencies --   1470.6220              1477.4674              1481.8809
 Red. masses --      1.4651                 1.2602                 1.0831
 Frc consts  --      1.8669                 1.6208                 1.4013
 IR Inten    --    111.1664               105.6309                23.4284

                     76                     77                     78
                      A                      A                      A
 Frequencies --   1484.5146              1485.0817              1493.1907
 Red. masses --      1.0452                 1.0643                 1.3150
 Frc consts  --      1.3571                 1.3829                 1.7274
 IR Inten    --    414.0904                56.6140               604.1276

                     79                     80                     81
                      A                      A                      A
 Frequencies --   1497.2893              1501.5086              1506.3907
 Red. masses --      1.1652                 3.5102                 1.4185
 Frc consts  --      1.5391                 4.6627                 1.8965
 IR Inten    --    102.5104               333.9971               562.8482

                     82                     83                     84
                      A                      A                      A
 Frequencies --   1508.5856              1572.8684              1592.5466
 Red. masses --      1.3143                 7.0114                 5.4975
 Frc consts  --      1.7624                10.2197                 8.2148
 IR Inten    --    217.8666              3615.0212                 5.4761

                     85                     86                     87
                      A                      A                      A
 Frequencies --   2951.5745              2973.2246              2988.4280
 Red. masses --      1.0542                 1.0606                 1.0629
 Frc consts  --      5.4112                 5.5238                 5.5930
 IR Inten    --    167.8420                 0.3309                57.6642

                     88                     89                     90
                      A                      A                      A
 Frequencies --   2990.4102              2993.8172              2994.0225
 Red. masses --      1.0397                 1.0677                 1.0724
 Frc consts  --      5.4781                 5.6381                 5.6640
 IR Inten    --     84.2643                76.6660                71.6409

                     91                     92                     93
                      A                      A                      A
 Frequencies --   2995.1527              3004.3991              3023.3396
 Red. masses --      1.0820                 1.0775                 1.1000
 Frc consts  --      5.7191                 5.7304                 5.9239
 IR Inten    --     21.6642                37.8794                10.3509

                     94                     95                     96
                      A                      A                      A
 Frequencies --   3029.2858              3048.8516              3052.5243
 Red. masses --      1.0952                 1.1019                 1.0997
 Frc consts  --      5.9214                 6.0346                 6.0375
 IR Inten    --     22.6848                 6.3101                97.8116

                     97                     98                     99
                      A                      A                      A
 Frequencies --   3057.6538              3085.4650              3097.2011
 Red. masses --      1.1019                 1.0930                 1.0829
 Frc consts  --      6.0699                 6.1310                 6.1202
 IR Inten    --     36.0613                12.9303                31.6972

                    100                    101                    102
                      A                      A                      A
 Frequencies --   3120.3904              3160.8025              3163.2065
 Red. masses --      1.0908                 1.0903                 1.0915
 Frc consts  --      6.2579                 6.4178                 6.4348
 IR Inten    --    303.4963                22.5657               217.9299

 - Thermochemistry -
 -------------------
 Temperature   298.150 Kelvin.  Pressure   1.00000 Atm.
 Atom     1 has atomic number  6 and mass  12.00000

 Molecular mass:   242.13068 amu.
 Principal axes and moments of inertia in atomic units:
                           1         2         3
     Eigenvalues --  2193.896659022.82048**********
           X            0.84071   0.04980   0.53919
           Y           -0.48829  -0.36066   0.79466
           Z           -0.23404   0.93137   0.27890
 This molecule is an asymmetric top.
 Rotational symmetry number  1.
 Warning -- assumption of classical behavior for rotation
           may cause significant error
 Rotational temperatures (Kelvin)      0.03948     0.00960     0.00808
 Rotational constants (GHZ):           0.82262     0.20002     0.16837
 Zero-point vibrational energy     776642.0 (Joules/Mol)
                                  185.62190 (Kcal/Mol)
 Warning -- explicit consideration of  25 degrees of freedom as
           vibrations may cause significant error
 Vibrational temperatures:     39.38    53.39    72.07   119.82   143.17
          (Kelvin)            158.28   179.34   205.60   212.75   233.40
                              278.10   366.30   378.94   405.87   480.85
                              487.45   497.24   543.83   566.20   611.81
                              618.20   652.29   685.82   746.05   801.03
                              911.00   963.11   967.25   982.77  1016.05
                             1045.57  1081.20  1094.72  1131.91  1176.63
                             1189.89  1234.53  1268.50  1316.04  1377.60
                             1383.68  1399.36  1419.00  1434.62  1468.85
                             1469.92  1495.79  1517.25  1520.21  1577.70
                             1607.70  1621.03  1629.14  1689.72  1728.87
                             1754.72  1778.30  1802.82  1821.82  1864.20
                             1899.73  1904.09  1911.11  1931.42  1954.63
                             1961.15  1986.87  2012.63  2029.12  2056.17
                             2060.65  2085.53  2115.90  2125.75  2132.10
                             2135.89  2136.70  2148.37  2154.27  2160.34
                             2167.36  2170.52  2263.01  2291.32  4246.66
                             4277.81  4299.68  4302.53  4307.44  4307.73
                             4309.36  4322.66  4349.91  4358.47  4386.62
                             4391.90  4399.28  4439.30  4456.18  4489.55
                             4547.69  4551.15

 Zero-point correction=                           0.295807 (Hartree/Particle)
 Thermal correction to Energy=                    0.313270
 Thermal correction to Enthalpy=                  0.314214
 Thermal correction to Gibbs Free Energy=         0.249462
 Sum of electronic and zero-point Energies=           -770.898852
 Sum of electronic and thermal Energies=              -770.881389
 Sum of electronic and thermal Enthalpies=            -770.880445
 Sum of electronic and thermal Free Energies=         -770.945197

                     E (Thermal)             CV                S
                      KCal/Mol        Cal/Mol-Kelvin    Cal/Mol-Kelvin
 Total                  196.580             66.487            136.282
 Electronic               0.000              0.000              0.000
 Translational            0.889              2.981             42.354
 Rotational               0.889              2.981             33.717
 Vibrational            194.802             60.525             60.211
 Vibration     1          0.593              1.984              6.012
 Vibration     2          0.594              1.982              5.408
 Vibration     3          0.595              1.978              4.814
 Vibration     4          0.600              1.961              3.812
 Vibration     5          0.604              1.949              3.464
 Vibration     6          0.606              1.941              3.269
 Vibration     7          0.610              1.928              3.027
 Vibration     8          0.616              1.910              2.765
 Vibration     9          0.617              1.905              2.699
 Vibration    10          0.622              1.889              2.524
 Vibration    11          0.635              1.849              2.196
 Vibration    12          0.665              1.755              1.699
 Vibration    13          0.670              1.740              1.639
 Vibration    14          0.681              1.707              1.521
 Vibration    15          0.716              1.607              1.240
 Vibration    16          0.719              1.598              1.218
 Vibration    17          0.724              1.584              1.186
 Vibration    18          0.748              1.517              1.047
 Vibration    19          0.761              1.484              0.987
 Vibration    20          0.787              1.415              0.874
 Vibration    21          0.791              1.406              0.860
 Vibration    22          0.812              1.353              0.786
 Vibration    23          0.833              1.302              0.719
 Vibration    24          0.874              1.209              0.613
 Vibration    25          0.912              1.125              0.530

 Optimization completed.
    -- Stationary point found.
 Normal termination of Gaussian 16 at Wed Dec 27 14:41:02 2023.
