 Q-Chem 5.4, Q-Chem, Inc., Pleasanton, CA (2021)
 Q-Chem 5.4.0 for Intel X86 EM64T Linux

User input:
--------------------------------------------------------------
$molecule
-1 2
C                  5.7601050000     -5.2944380000      1.2614460000
C                  6.6944770000     -5.1481350000      0.2417360000
C                  6.5751730000     -4.1517910000     -0.7409080000
C                  4.6425500000     -4.4044310000      1.3131480000
C                  4.5298440000     -3.3938910000      0.3089260000
C                  5.5017910000     -3.2865190000     -0.7024620000
C                  3.6129550000     -4.5029570000      2.3675550000
C                  2.5243660000     -3.5472270000      2.3204500000
C                  2.4425320000     -2.5837260000      1.3396190000
C                  3.4065520000     -2.4351860000      0.2905290000
O                  3.6534060000     -5.3730250000      3.2843120000
O                  3.3113200000     -1.5446490000     -0.5982870000
C                  5.9868980000     -6.4019460000      2.2675450000
H                  7.5410360000     -5.8291690000      0.2099460000
C                  1.4797510000     -3.6560160000      3.3998240000
H                  1.6135290000     -1.8798370000      1.3300920000
H                  5.3672880000     -2.5024000000     -1.4384480000
H                  7.3253990000     -4.0683960000     -1.5222320000
H                  6.9056790000     -6.9436760000      2.0162200000
H                  5.1508300000     -7.1033130000      2.2911740000
H                  6.0654670000     -6.0133880000      3.2846080000
H                  1.0080600000     -4.6446950000      3.3922840000
H                  0.7064620000     -2.8927580000      3.2739460000
H                  1.9281740000     -3.5474200000      4.3933810000
$end
$rem
MAX_SCF_CYCLES=200
BASIS  =  6-311++G(d,p)
GUI  =  2
JOB_TYPE  =  SP
METHOD  =  B3LYP
SOLVENT_METHOD = COSMO
$end
$solvent
dielectric 37.219
opticaldielectric 1.43
$end

--------------------------------------------------------------

             Standard Nuclear Orientation (Angstroms)
    I     Atom           X                Y                Z
 ----------------------------------------------------------------
    1      C       1.6648328691    -1.0434620486    -0.0000042368
    2      C       2.8389860047    -0.2980571491    -0.0001944702
    3      C       2.8299851034     1.1063797577    -0.0001813947
    4      C       0.4084682865    -0.3613603200     0.0000433502
    5      C       0.4095632035     1.0677493184     0.0000858903
    6      C       1.6246296116     1.7767831825     0.0000004930
    7      C      -0.8764322001    -1.0897682362    -0.0000311367
    8      C      -2.0878556044    -0.2940810741    -0.0000538208
    9      C      -2.0552568912     1.0828712599     0.0001036570
   10      C      -0.8443244465     1.8481366612     0.0001014774
   11      O      -0.9472913258    -2.3523358537    -0.0000066319
   12      O      -0.8382728282     3.1099141938     0.0000892755
   13      C       1.7909546571    -2.5515527228     0.0002094655
   14      H       3.7897991567    -0.8247775604    -0.0003047673
   15      C      -3.3926873283    -1.0460903378    -0.0001815354
   16      H      -2.9811692940     1.6533821562     0.0001449564
   17      H       1.5673947327     2.8590646725     0.0000204296
   18      H       3.7679788125     1.6544935764    -0.0002975852
   19      H       2.8504567837    -2.8312834816    -0.0001381375
   20      H       1.3008462675    -2.9977639515    -0.8670696157
   21      H       1.3017492418    -2.9973268659     0.8682711154
   22      H      -3.4680458456    -1.7026150254    -0.8738701783
   23      H      -4.2415475285    -0.3562930609    -0.0001649635
   24      H      -3.4681286854    -1.7027969275     0.8733611636
 ----------------------------------------------------------------

   10    -613.9820964277      7.91e-06  Convergence criterion met
 Total energy in the final basis set =     -613.9820964277
    5    -614.0653353755      5.46e-06  Convergence criterion met
 Total energy in the final basis set =     -614.0653353755

                    Orbital Energies (a.u.)
 --------------------------------------------------------------

 Alpha MOs
 -- Occupied --
-19.0760 -19.0731 -10.2200 -10.2193 -10.1820 -10.1745 -10.1708 -10.1698
-10.1684 -10.1649 -10.1638 -10.1549 -10.1536 -10.1515  -1.0004  -0.9973
 -0.8565  -0.8096  -0.7679  -0.7504  -0.6982  -0.6849  -0.6487  -0.6073
 -0.5881  -0.5376  -0.5051  -0.4916  -0.4680  -0.4453  -0.4295  -0.4288
 -0.4163  -0.4053  -0.4006  -0.3915  -0.3882  -0.3811  -0.3725  -0.3638
 -0.3615  -0.3439  -0.3426  -0.3342  -0.2721  -0.2470  -0.2450  -0.2440
 -0.2332  -0.1505

 Beta MOs
 -- Occupied --
-19.0702 -19.0667 -10.2183 -10.2176 -10.1818 -10.1742 -10.1702 -10.1680
-10.1680 -10.1645 -10.1637 -10.1539 -10.1538 -10.1514  -0.9900  -0.9862
 -0.8546  -0.8045  -0.7666  -0.7484  -0.6939  -0.6830  -0.6433  -0.6044
 -0.5857  -0.5348  -0.5031  -0.4892  -0.4654  -0.4440  -0.4267  -0.4203
 -0.4110  -0.4036  -0.3997  -0.3858  -0.3799  -0.3787  -0.3717  -0.3597
 -0.3423  -0.3423  -0.3336  -0.3330  -0.2469  -0.2408  -0.2386  -0.2377
 -0.2276

          Ground-State Mulliken Net Atomic Charges

     Atom                 Charge (a.u.)    Spin (a.u.)
  --------------------------------------------------------
      1 C                     0.567654       0.020870
      2 C                    -0.528545       0.024585
      3 C                    -0.436876       0.031452
      4 C                     0.548821       0.010619
      5 C                     0.564032       0.048893
      6 C                    -0.101068       0.027188
      7 C                    -0.823283       0.120962
      8 C                     0.514271       0.109963
      9 C                    -0.424943       0.058689
     10 C                    -0.750672       0.103348
     11 O                    -0.462669       0.232140
     12 O                    -0.536808       0.205395
     13 C                    -0.476178       0.005135
     14 H                     0.145249      -0.002884
     15 C                    -0.337667       0.003253
     16 H                     0.162089      -0.008057
     17 H                     0.172195      -0.002353
     18 H                     0.209992      -0.002187
     19 H                     0.155152      -0.000286
     20 H                     0.164321       0.000120
     21 H                     0.163995       0.000121
     22 H                     0.174276       0.006560
     23 H                     0.162519      -0.000091
     24 H                     0.174144       0.006564
  --------------------------------------------------------
  Sum of atomic charges =    -1.000000

                    Cartesian Multipole Moments
 -----------------------------------------------------------------
    Charge (ESU x 10^10)
                -4.8032
    Dipole Moment (Debye)
         X       3.8196      Y      -3.2739      Z      -0.0008
       Tot       5.0307
    Quadrupole Moments (Debye-Ang)
        XX     -83.5830     XY       1.6527     YY    -124.9061
        XZ      -0.0035     YZ       0.0030     ZZ     -88.0650

 Total job time:  53.98s(wall), 408.47s(cpu)
        *  Thank you very much for using Q-Chem.  Have a nice day.  *
