 Q-Chem 5.4, Q-Chem, Inc., Pleasanton, CA (2021)
 Q-Chem 5.4.0 for Intel X86 EM64T Linux

User input:
--------------------------------------------------------------
$molecule
-1 2
O                 -2.2105280000     -2.0697640000      0.2059750000
C                 -1.6612840000     -0.8347380000      0.0995210000
C                 -2.4931360000      0.2813700000      0.0316690000
C                 -1.9581830000      1.5669810000     -0.0783700000
C                 -0.5794250000      1.7651580000     -0.1229990000
O                 -0.0903630000      3.0251650000     -0.2299710000
C                  0.2924950000      0.6485120000     -0.0559820000
C                  1.7381340000      0.8499970000     -0.1023200000
O                  2.2405700000      2.0243490000     -0.2029810000
C                  2.5586360000     -0.3187230000     -0.0302950000
C                  2.0309120000     -1.5869520000      0.0782050000
C                  0.6228320000     -1.8302980000      0.1269870000
O                  0.1438830000     -3.0143960000      0.2279780000
C                 -0.2538730000     -0.6645320000      0.0564090000
H                 -1.4245400000     -2.6963520000      0.2372790000
H                 -3.5663470000      0.1281770000      0.0663310000
H                 -2.6064530000      2.4349800000     -0.1310750000
H                  0.9086150000      2.9102950000     -0.2421970000
H                  3.6321560000     -0.1605720000     -0.0653650000
H                  2.6759000000     -2.4586590000      0.1312000000
$end
$rem
MAX_SCF_CYCLES=200
BASIS  =  6-311++G(d,p)
GUI  =  2
JOB_TYPE  =  SP
METHOD  =  B3LYP
SOLVENT_METHOD = COSMO
$end
$solvent
dielectric 37.219
opticaldielectric 1.43
$end

--------------------------------------------------------------

             Standard Nuclear Orientation (Angstroms)
    I     Atom           X                Y                Z
 ----------------------------------------------------------------
    1      O       2.7678402182     1.2686264940    -0.0000773877
    2      C       1.4123966123     1.2360185851    -0.0000358176
    3      C       0.6983993175     2.4328838949     0.0000321292
    4      C      -0.6984109537     2.4329061251     0.0000862552
    5      C      -1.4123853699     1.2360435491     0.0000609350
    6      O      -2.7678124128     1.2685983542    -0.0000081423
    7      C      -0.7133045938     0.0019770517     0.0000129629
    8      C      -1.4560734665    -1.2553653582     0.0000138067
    9      O      -2.7372900033    -1.2680683864    -0.0000857503
   10      C      -0.6889771461    -2.4619642165     0.0000482451
   11      C       0.6889450819    -2.4619821522     0.0000459967
   12      C       1.4560497344    -1.2554015720     0.0000076953
   13      O       2.7372668916    -1.2681293409     0.0000227475
   14      C       0.7133117772     0.0019542257    -0.0000462413
   15      H       3.0459774626     0.3021849452    -0.0001433020
   16      H       1.2531625219     3.3649188657     0.0000468938
   17      H      -1.2531705958     3.3649446507     0.0001041752
   18      H      -3.0456561469     0.3021075900    -0.0003223013
   19      H      -1.2484541035    -3.3923793756     0.0000547360
   20      H       1.2483973526    -3.3924144381     0.0000922570
 ----------------------------------------------------------------

    9    -685.8627882724      5.48e-06  Convergence criterion met
 Total energy in the final basis set =     -685.8627882724
    4    -685.9415833614      8.08e-06  Convergence criterion met
 Total energy in the final basis set =     -685.9415833614

                    Orbital Energies (a.u.)
 --------------------------------------------------------------

 Alpha MOs
 -- Occupied --
-19.1355 -19.1355 -19.0978 -19.0978 -10.2379 -10.2379 -10.2351 -10.2351
-10.1824 -10.1820 -10.1752 -10.1746 -10.1727 -10.1720  -1.0583  -1.0568
 -1.0119  -1.0102  -0.8601  -0.8122  -0.7521  -0.7414  -0.6884  -0.6402
 -0.6214  -0.5903  -0.5263  -0.5162  -0.5144  -0.5055  -0.4752  -0.4424
 -0.4421  -0.4328  -0.4154  -0.4125  -0.4080  -0.4006  -0.3947  -0.3863
 -0.3756  -0.3644  -0.3581  -0.3141  -0.2881  -0.2678  -0.2605  -0.2559
 -0.2215  -0.1633

 Beta MOs
 -- Occupied --
-19.1349 -19.1349 -19.0925 -19.0925 -10.2360 -10.2360 -10.2345 -10.2345
-10.1827 -10.1822 -10.1744 -10.1739 -10.1711 -10.1705  -1.0563  -1.0548
 -1.0033  -1.0014  -0.8577  -0.8069  -0.7501  -0.7382  -0.6799  -0.6368
 -0.6193  -0.5883  -0.5249  -0.5151  -0.5115  -0.5022  -0.4732  -0.4399
 -0.4339  -0.4288  -0.4128  -0.4114  -0.3988  -0.3986  -0.3845  -0.3801
 -0.3626  -0.3567  -0.3561  -0.3065  -0.2643  -0.2632  -0.2556  -0.2517
 -0.2093

          Ground-State Mulliken Net Atomic Charges

     Atom                 Charge (a.u.)    Spin (a.u.)
  --------------------------------------------------------
      1 O                    -0.427886       0.019198
      2 C                    -0.227552       0.064642
      3 C                    -0.067582       0.053743
      4 C                    -0.067574       0.053712
      5 C                    -0.227413       0.064662
      6 O                    -0.427920       0.019207
      7 C                     0.515978      -0.011306
      8 C                    -0.328061       0.111716
      9 O                    -0.547403       0.185473
     10 C                    -0.219843       0.095279
     11 C                    -0.219877       0.095330
     12 C                    -0.328393       0.111682
     13 O                    -0.547415       0.185481
     14 C                     0.516929      -0.011286
     15 H                     0.372232      -0.004397
     16 H                     0.219105      -0.004520
     17 H                     0.219099      -0.004518
     18 H                     0.372263      -0.004399
     19 H                     0.210686      -0.009849
     20 H                     0.210625      -0.009851
  --------------------------------------------------------
  Sum of atomic charges =    -1.000000

                    Cartesian Multipole Moments
 -----------------------------------------------------------------
    Charge (ESU x 10^10)
                -4.8032
    Dipole Moment (Debye)
         X       0.0013      Y       1.5778      Z      -0.0007
       Tot       1.5778
    Quadrupole Moments (Debye-Ang)
        XX    -127.4600     XY       0.0001     YY     -87.1310
        XZ      -0.0003     YZ       0.0009     ZZ     -85.4847

 Total job time:  41.66s(wall), 309.14s(cpu)
        *  Thank you very much for using Q-Chem.  Have a nice day.  *
