 Gaussian 16, Revision A.03,
 Gaussian 16:  ES64L-G16RevA.03 25-Dec-2016

 ----------------------------------------------------------------------
 #P UB3LYP/6-311++G(d,p) nosym opt freq SCRF=(PCM,Solvent=n,n-DiMethylF
 ormamide)
 ----------------------------------------------------------------------

 --------
 Oxidized
 --------
 Symbolic Z-matrix:
 Charge =  0 Multiplicity = 1

 SCF Done:  E(UB3LYP) =  -754.410155696     A.U. after   15 cycles
 SCF Done:  E(UB3LYP) =  -754.410422367     A.U. after   11 cycles
 SCF Done:  E(UB3LYP) =  -754.410463219     A.U. after   11 cycles
 Optimization completed.
    -- Stationary point found.
 Normal termination of Gaussian 16 at Sun Feb 11 15:13:53 2024.

 ----------------------------------------------------------------------
 #P Geom=AllCheck Guess=TCheck SCRF=Check GenChk UB3LYP/6-311++G(d,p) F
 req
 ----------------------------------------------------------------------

 Structure from the checkpoint file:  "348.chk"
 --------
 Oxidized
 --------
 Charge =  0 Multiplicity = 1

                          Input orientation:
 ---------------------------------------------------------------------
 Center     Atomic      Atomic             Coordinates (Angstroms)
 Number     Number       Type             X           Y           Z
 ---------------------------------------------------------------------
      1          8           0        3.881325    2.690576    1.039987
      2          6           0        2.988603    1.863149    1.043985
      3          7           0        2.902854    0.870736    2.015324
      4          6           0        1.946413   -0.128952    2.144487
      5          8           0        1.994851   -0.936551    3.051221
      6          6           0        0.899205   -0.095566    1.085873
      7          7           0       -0.057775   -0.993499    1.105123
      8          6           0       -0.992099   -0.937152    0.127235
      9          6           0       -2.046423   -1.886751    0.104856
     10          6           0       -2.994215   -1.830552   -0.886138
     11          6           0       -2.927936   -0.828795   -1.889487
     12          6           0       -1.919430    0.105356   -1.896311
     13          6           0       -0.925477    0.074812   -0.888402
     14          7           0        0.072293    0.995103   -0.891869
     15          6           0        0.959425    0.908735    0.071152
     16          7           0        1.989198    1.829380    0.100094
     17          1           0        3.636196    0.887553    2.715108
     18          1           0       -2.075259   -2.641486    0.881447
     19          1           0       -3.801264   -2.552729   -0.908701
     20          1           0       -3.687709   -0.803569   -2.661857
     21          1           0       -1.861481    0.873144   -2.658186
     22          1           0        2.018704    2.537057   -0.623906
 ---------------------------------------------------------------------

 SCF Done:  E(UB3LYP) =  -754.410463219     A.U. after    1 cycles

 Alpha  occ. eigenvalues --  -19.13354 -19.12845 -14.39076 -14.38908 -14.36155
 Alpha  occ. eigenvalues --  -14.35041 -10.34770 -10.32141 -10.29514 -10.25707
 Alpha  occ. eigenvalues --  -10.24698 -10.24104 -10.20326 -10.19979 -10.19869
 Alpha  occ. eigenvalues --  -10.19700  -1.10574  -1.08067  -1.03200  -0.98819
 Alpha  occ. eigenvalues --   -0.96014  -0.93374  -0.87488  -0.79850  -0.77882
 Alpha  occ. eigenvalues --   -0.72752  -0.70489  -0.68389  -0.64212  -0.62942
 Alpha  occ. eigenvalues --   -0.59318  -0.59034  -0.55320  -0.52797  -0.51115
 Alpha  occ. eigenvalues --   -0.50535  -0.49821  -0.47322  -0.47057  -0.46010
 Alpha  occ. eigenvalues --   -0.45931  -0.45509  -0.44098  -0.39350  -0.39242
 Alpha  occ. eigenvalues --   -0.38728  -0.37045  -0.34509  -0.32973  -0.32789
 Alpha  occ. eigenvalues --   -0.31583  -0.30557  -0.28433  -0.27529  -0.25857
 Alpha virt. eigenvalues --   -0.11477  -0.05910  -0.02670  -0.01464  -0.00706
 Alpha virt. eigenvalues --    0.00061   0.00963   0.01485   0.01923   0.02335
 Alpha virt. eigenvalues --    0.03529   0.03974   0.04583   0.04721   0.05791

  Beta  occ. eigenvalues --  -19.13354 -19.12845 -14.39076 -14.38908 -14.36155
  Beta  occ. eigenvalues --  -14.35041 -10.34770 -10.32141 -10.29514 -10.25707
  Beta  occ. eigenvalues --  -10.24698 -10.24104 -10.20326 -10.19979 -10.19869
  Beta  occ. eigenvalues --  -10.19700  -1.10574  -1.08067  -1.03200  -0.98819
  Beta  occ. eigenvalues --   -0.96014  -0.93374  -0.87488  -0.79850  -0.77882
  Beta  occ. eigenvalues --   -0.72752  -0.70489  -0.68389  -0.64212  -0.62942
  Beta  occ. eigenvalues --   -0.59318  -0.59034  -0.55320  -0.52797  -0.51115
  Beta  occ. eigenvalues --   -0.50535  -0.49821  -0.47322  -0.47057  -0.46010
  Beta  occ. eigenvalues --   -0.45931  -0.45509  -0.44098  -0.39350  -0.39242
  Beta  occ. eigenvalues --   -0.38728  -0.37045  -0.34509  -0.32973  -0.32789
  Beta  occ. eigenvalues --   -0.31583  -0.30557  -0.28433  -0.27529  -0.25857
  Beta virt. eigenvalues --   -0.11477  -0.05910  -0.02670  -0.01464  -0.00706
  Beta virt. eigenvalues --    0.00061   0.00963   0.01485   0.01923   0.02335
  Beta virt. eigenvalues --    0.03529   0.03974   0.04583   0.04721   0.05791

 Mulliken charges and spin densities:
               1          2
     1  O   -0.370344   0.000000
     2  C    0.388280   0.000000
     3  N   -0.438767   0.000000
     4  C    0.395799  -0.000000
     5  O   -0.359690  -0.000000
     6  C   -0.145667   0.000000
     7  N    0.007301   0.000000
     8  C   -0.054190  -0.000000
     9  C   -0.143730   0.000000
    10  C   -0.311041   0.000000
    11  C   -0.223087   0.000000
    12  C   -0.193466   0.000000
    13  C    0.063564  -0.000000
    14  N   -0.064207  -0.000000
    15  C    0.235613   0.000000
    16  N   -0.443066   0.000000
    17  H    0.429981   0.000000
    18  H    0.217561   0.000000
    19  H    0.210468   0.000000
    20  H    0.214595  -0.000000
    21  H    0.207578   0.000000
    22  H    0.376515  -0.000000
 Sum of Mulliken charges =  -0.00000   0.00000

 Dipole moment (field-independent basis, Debye):
    X=             -4.3705    Y=              0.0686    Z=             -4.3625  Tot=              6.1755
 Quadrupole moment (field-independent basis, Debye-Ang):
   XX=            -90.4111   YY=            -97.2256   ZZ=            -97.1044
   XY=             -0.3667   XZ=              0.9815   YZ=              5.7691

  Exact polarizability: 285.910  89.609 197.008  90.810 -19.834 206.158
 Approx polarizability: 321.921  99.031 237.101  98.696 -34.408 247.275

                      1                      2                      3
                      A                      A                      A
 Frequencies --     63.0156                84.8803               140.3102
 Red. masses --      7.4165                 5.8637                 8.4048
 Frc consts  --      0.0174                 0.0249                 0.0975
 IR Inten    --      0.2075                 0.0304                 3.8468

                      4                      5                      6
                      A                      A                      A
 Frequencies --    156.1875               200.6051               241.6179
 Red. masses --      7.1764                 7.1354                 6.5657
 Frc consts  --      0.1031                 0.1692                 0.2258
 IR Inten    --      3.8704                 4.6662                 0.5472

                      7                      8                      9
                      A                      A                      A
 Frequencies --    322.2007               339.3826               375.6689
 Red. masses --      6.1006                10.2648                 7.6346
 Frc consts  --      0.3731                 0.6966                 0.6348
 IR Inten    --      0.0069                 9.4436                13.0687

                     10                     11                     12
                      A                      A                      A
 Frequencies --    416.6137               435.5566               494.9923
 Red. masses --      9.4170                 5.2209                 3.9980
 Frc consts  --      0.9630                 0.5836                 0.5771
 IR Inten    --     57.3606                10.9839                 0.0100

                     13                     14                     15
                      A                      A                      A
 Frequencies --    515.4865               538.7084               539.6616
 Red. masses --      9.0693                 3.3191                 8.5818
 Frc consts  --      1.4199                 0.5675                 1.4726
 IR Inten    --     67.9823                 2.0059                14.3357

                     16                     17                     18
                      A                      A                      A
 Frequencies --    571.4310               580.4551               617.5927
 Red. masses --      1.2364                 6.9667                 7.8215
 Frc consts  --      0.2379                 1.3830                 1.7577
 IR Inten    --     79.9199                17.5989                 8.9604

                     19                     20                     21
                      A                      A                      A
 Frequencies --    639.1971               679.5116               685.1014
 Red. masses --      1.4584                 9.9048                 2.6897
 Frc consts  --      0.3511                 2.6946                 0.7438
 IR Inten    --    158.7381                 3.7606                36.7857

                     22                     23                     24
                      A                      A                      A
 Frequencies --    709.8223               739.8110               758.8055
 Red. masses --      6.3048                10.0997                 5.3662
 Frc consts  --      1.8716                 3.2569                 1.8204
 IR Inten    --     12.5129                65.7520                 7.7772

                     25                     26                     27
                      A                      A                      A
 Frequencies --    779.0690               788.5464               797.9259
 Red. masses --      1.4089                 6.4302                 6.7102
 Frc consts  --      0.5038                 2.3558                 2.5171
 IR Inten    --    131.9405                17.8380                 1.3375

                     28                     29                     30
                      A                      A                      A
 Frequencies --    874.0699               874.8884               922.5503
 Red. masses --      6.7180                 1.4936                 6.2476
 Frc consts  --      3.0240                 0.6736                 3.1329
 IR Inten    --     29.2388                 0.4346                 3.6400

                     31                     32                     33
                      A                      A                      A
 Frequencies --    986.7083              1010.9763              1024.5619
 Red. masses --      1.3353                 1.3090                 2.9320
 Frc consts  --      0.7660                 0.7882                 1.8134
 IR Inten    --      1.9359                 0.0685                23.9728

                     34                     35                     36
                      A                      A                      A
 Frequencies --   1030.1947              1122.3319              1156.7653
 Red. masses --      2.2337                 3.0140                 1.4649
 Frc consts  --      1.3967                 2.2368                 1.1549
 IR Inten    --      7.9952                31.4698                29.4136

                     37                     38                     39
                      A                      A                      A
 Frequencies --   1169.6007              1238.9732              1270.4046
 Red. masses --      1.4243                 3.5600                 2.9324
 Frc consts  --      1.1480                 3.2197                 2.7884
 IR Inten    --     12.3871               185.8542                20.1847

                     40                     41                     42
                      A                      A                      A
 Frequencies --   1275.6143              1330.4518              1335.5541
 Red. masses --      4.2813                 3.1386                 2.9321
 Frc consts  --      4.1045                 3.2732                 3.0814
 IR Inten    --    201.4540               204.8868               363.3415

                     43                     44                     45
                      A                      A                      A
 Frequencies --   1377.9760              1400.3872              1419.7105
 Red. masses --      3.9895                 5.1121                 1.7185
 Frc consts  --      4.4633                 5.9068                 2.0408
 IR Inten    --    251.1554               386.4441                28.0563

                     46                     47                     48
                      A                      A                      A
 Frequencies --   1447.0772              1460.8252              1516.5726
 Red. masses --      2.2841                 5.6011                 3.8563
 Frc consts  --      2.8181                 7.0424                 5.2257
 IR Inten    --     26.0820               162.4903               128.8913

                     49                     50                     51
                      A                      A                      A
 Frequencies --   1533.8220              1594.0440              1606.2726
 Red. masses --      3.7097                 8.8306                 6.8190
 Frc consts  --      5.1421                13.2203                10.3659
 IR Inten    --     70.1154               183.8735               611.8429

                     52                     53                     54
                      A                      A                      A
 Frequencies --   1654.3889              1728.1444              1754.9643
 Red. masses --      6.1048                 6.5035                11.0342
 Frc consts  --      9.8446                11.4435                20.0229
 IR Inten    --     34.9354              1726.3934              1029.2298

                     55                     56                     57
                      A                      A                      A
 Frequencies --   3180.0482              3188.6999              3197.4273
 Red. masses --      1.0872                 1.0890                 1.0949
 Frc consts  --      6.4775                 6.5237                 6.5953
 IR Inten    --      1.2771                 1.9249                13.6281

                     58                     59                     60
                      A                      A                      A
 Frequencies --   3203.4547              3584.1105              3592.0622
 Red. masses --      1.0982                 1.0777                 1.0787
 Frc consts  --      6.6398                 8.1564                 8.2007
 IR Inten    --     20.1330               171.6177               140.5857

 - Thermochemistry -
 -------------------
 Temperature   298.150 Kelvin.  Pressure   1.00000 Atm.
 Atom     1 has atomic number  8 and mass  15.99491

 Molecular mass:   214.04908 amu.
 Principal axes and moments of inertia in atomic units:
                           1         2         3
     Eigenvalues --  1323.141145124.765756447.90523
           X            0.82970  -0.03423  -0.55715
           Y            0.37777  -0.70039   0.60560
           Z            0.41096   0.71294   0.56818
 This molecule is an asymmetric top.
 Rotational symmetry number  1.
 Warning -- assumption of classical behavior for rotation
           may cause significant error
 Rotational temperatures (Kelvin)      0.06546     0.01690     0.01343
 Rotational constants (GHZ):           1.36398     0.35216     0.27990
 Zero-point vibrational energy     408379.9 (Joules/Mol)
                                   97.60514 (Kcal/Mol)
 Warning -- explicit consideration of  18 degrees of freedom as
           vibrations may cause significant error
 Vibrational temperatures:     90.67   122.12   201.88   224.72   288.63
          (Kelvin)            347.63   463.57   488.30   540.50   599.41
                              626.67   712.18   741.67   775.08   776.45
                              822.16   835.15   888.58   919.66   977.67
                              985.71  1021.28  1064.42  1091.75  1120.91
                             1134.54  1148.04  1257.59  1258.77  1327.34
                             1419.65  1454.57  1474.12  1482.22  1614.79
                             1664.33  1682.79  1782.61  1827.83  1835.32
                             1914.22  1921.56  1982.60  2014.84  2042.65
                             2082.02  2101.80  2182.01  2206.83  2293.47
                             2311.07  2380.30  2486.41  2525.00  4575.38
                             4587.83  4600.38  4609.06  5156.74  5168.18

 Zero-point correction=                           0.155544 (Hartree/Particle)
 Thermal correction to Energy=                    0.166709
 Thermal correction to Enthalpy=                  0.167653
 Thermal correction to Gibbs Free Energy=         0.118028
 Sum of electronic and zero-point Energies=           -754.254920
 Sum of electronic and thermal Energies=              -754.243754
 Sum of electronic and thermal Enthalpies=            -754.242810
 Sum of electronic and thermal Free Energies=         -754.292436

                     E (Thermal)             CV                S
                      KCal/Mol        Cal/Mol-Kelvin    Cal/Mol-Kelvin
 Total                  104.612             45.163            104.446
 Electronic               0.000              0.000              0.000
 Translational            0.889              2.981             41.987
 Rotational               0.889              2.981             32.147
 Vibrational            102.834             39.201             30.312
 Vibration     1          0.597              1.972              4.360
 Vibration     2          0.601              1.960              3.775
 Vibration     3          0.615              1.913              2.800
 Vibration     4          0.620              1.896              2.595
 Vibration     5          0.638              1.839              2.128
 Vibration     6          0.658              1.777              1.791
 Vibration     7          0.707              1.631              1.299
 Vibration     8          0.719              1.597              1.215
 Vibration     9          0.747              1.522              1.057
 Vibration    10          0.780              1.434              0.904
 Vibration    11          0.796              1.393              0.841
 Vibration    12          0.851              1.261              0.671
 Vibration    13          0.871              1.216              0.621
 Vibration    14          0.894              1.164              0.568
 Vibration    15          0.895              1.162              0.566
 Vibration    16          0.928              1.093              0.501
 Vibration    17          0.937              1.074              0.485
 Vibration    18          0.977              0.995              0.420

 Optimization completed.
    -- Stationary point found.
 Normal termination of Gaussian 16 at Sun Feb 11 15:47:47 2024.
