 Gaussian 16, Revision A.03,
 Gaussian 16:  ES64L-G16RevA.03 25-Dec-2016

 --------------------------------------
 #P UB3LYP/6-311++G(d,p) nosym opt freq
 --------------------------------------

 -------
 Radical
 -------
 Symbolic Z-matrix:
 Charge = -1 Multiplicity = 2

 SCF Done:  E(UB3LYP) =  -653.282610385     A.U. after   23 cycles
 SCF Done:  E(UB3LYP) =  -653.304801358     A.U. after   19 cycles
 SCF Done:  E(UB3LYP) =  -653.307552706     A.U. after   17 cycles
 SCF Done:  E(UB3LYP) =  -653.308379344     A.U. after   17 cycles
 SCF Done:  E(UB3LYP) =  -653.308805551     A.U. after   17 cycles
 SCF Done:  E(UB3LYP) =  -653.309104963     A.U. after   15 cycles
 SCF Done:  E(UB3LYP) =  -653.309224233     A.U. after   15 cycles
 SCF Done:  E(UB3LYP) =  -653.309269137     A.U. after   14 cycles
 SCF Done:  E(UB3LYP) =  -653.309275665     A.U. after   13 cycles
 SCF Done:  E(UB3LYP) =  -653.309247816     A.U. after   12 cycles
 SCF Done:  E(UB3LYP) =  -653.309249464     A.U. after   12 cycles
 SCF Done:  E(UB3LYP) =  -653.309271065     A.U. after   15 cycles
 SCF Done:  E(UB3LYP) =  -653.309275417     A.U. after   12 cycles
 Optimization completed.
    -- Stationary point found.
 Normal termination of Gaussian 16 at Tue Dec 26 21:20:43 2023.

 ----------------------------------------------------------------------
 #P Geom=AllCheck Guess=TCheck SCRF=Check GenChk UB3LYP/6-311++G(d,p) F
 req
 ----------------------------------------------------------------------

 Structure from the checkpoint file:  "247-rad.chk"
 -------
 Radical
 -------
 Charge = -1 Multiplicity = 2

                          Input orientation:
 ---------------------------------------------------------------------
 Center     Atomic      Atomic             Coordinates (Angstroms)
 Number     Number       Type             X           Y           Z
 ---------------------------------------------------------------------
      1          6           0       -3.147544    1.426297    0.194076
      2          6           0       -2.412916    0.652605   -0.918266
      3          6           0       -1.049909    0.154782   -0.490420
      4          6           0       -0.859859   -1.130135    0.007718
      5          6           0       -2.003702   -2.110513    0.132531
      6          6           0        0.443678   -1.608181    0.427326
      7          8           0        0.627353   -2.774965    0.875799
      8          6           0        1.564037   -0.662763    0.308968
      9          6           0        2.859043   -1.059780    0.698587
     10          6           0        3.931680   -0.191731    0.597312
     11          6           0        3.736023    1.111659    0.097922
     12          6           0        2.471831    1.519064   -0.288967
     13          6           0        1.367695    0.648395   -0.193094
     14          6           0        0.035230    1.106718   -0.610747
     15          8           0       -0.143418    2.276527   -1.053361
     16          1           0       -4.127553    1.780305   -0.149302
     17          1           0       -2.557028    2.294639    0.494193
     18          1           0       -3.305607    0.798773    1.076990
     19          1           0       -3.037271   -0.181214   -1.252773
     20          1           0       -2.275154    1.328841   -1.766509
     21          1           0       -1.642079   -3.016375    0.619755
     22          1           0       -2.834906   -1.701908    0.718124
     23          1           0       -2.409742   -2.389591   -0.848211
     24          1           0        2.978822   -2.068019    1.078487
     25          1           0        4.923836   -0.512767    0.901731
     26          1           0        4.577618    1.794038    0.017958
     27          1           0        2.289843    2.515302   -0.675828
 ---------------------------------------------------------------------

 SCF Done:  E(UB3LYP) =  -653.309275417     A.U. after    1 cycles

 Alpha  occ. eigenvalues --  -18.93674 -18.93635 -10.08378 -10.08330 -10.05260
 Alpha  occ. eigenvalues --  -10.05212 -10.04572 -10.04463 -10.04453 -10.04315
 Alpha  occ. eigenvalues --  -10.04202 -10.04150 -10.03963 -10.03595 -10.03571
 Alpha  occ. eigenvalues --   -0.86138  -0.85853  -0.73014  -0.69227  -0.64326
 Alpha  occ. eigenvalues --   -0.62293  -0.62212  -0.57103  -0.53130  -0.51044
 Alpha  occ. eigenvalues --   -0.47250  -0.45542  -0.42287  -0.38775  -0.36646
 Alpha  occ. eigenvalues --   -0.33741  -0.33290  -0.31697  -0.30158  -0.29870
 Alpha  occ. eigenvalues --   -0.29385  -0.28147  -0.27499  -0.27094  -0.25642
 Alpha  occ. eigenvalues --   -0.25591  -0.24785  -0.23801  -0.23274  -0.22361
 Alpha  occ. eigenvalues --   -0.21670  -0.20734  -0.20441  -0.13542  -0.12871
 Alpha  occ. eigenvalues --   -0.11411  -0.10710  -0.09693  -0.01570
 Alpha virt. eigenvalues --    0.08335   0.08564   0.09473   0.10093   0.10500
 Alpha virt. eigenvalues --    0.11063   0.11238   0.11940   0.13205   0.13597
 Alpha virt. eigenvalues --    0.13912   0.14244   0.15324   0.16119   0.16541

  Beta  occ. eigenvalues --  -18.93008 -18.92995 -10.08245 -10.08195 -10.05223
  Beta  occ. eigenvalues --  -10.05174 -10.04558 -10.04471 -10.04461 -10.04326
  Beta  occ. eigenvalues --  -10.04134 -10.04081 -10.03814 -10.03584 -10.03458
  Beta  occ. eigenvalues --   -0.85024  -0.84704  -0.72821  -0.68852  -0.64108
  Beta  occ. eigenvalues --   -0.62144  -0.62024  -0.56828  -0.52572  -0.50797
  Beta  occ. eigenvalues --   -0.47148  -0.45226  -0.42051  -0.38585  -0.36428
  Beta  occ. eigenvalues --   -0.33551  -0.33139  -0.31535  -0.30022  -0.29624
  Beta  occ. eigenvalues --   -0.29165  -0.27886  -0.27024  -0.26360  -0.25360
  Beta  occ. eigenvalues --   -0.25203  -0.24648  -0.23709  -0.22350  -0.20858
  Beta  occ. eigenvalues --   -0.20764  -0.20328  -0.20185  -0.12249  -0.11423
  Beta  occ. eigenvalues --   -0.10153  -0.09964  -0.09087
  Beta virt. eigenvalues --    0.05041   0.08375   0.08563   0.10006   0.10192
  Beta virt. eigenvalues --    0.10506   0.11093   0.11912   0.12230   0.13201
  Beta virt. eigenvalues --    0.13601   0.13970   0.14239   0.15342   0.16140

 Mulliken charges and spin densities:
               1          2
     1  C   -0.649807   0.007626
     2  C   -0.311614  -0.002004
     3  C    1.067484   0.096502
     4  C    1.122154   0.117875
     5  C   -0.568752  -0.002118
     6  C   -1.514004   0.052037
     7  O   -0.383298   0.245798
     8  C    1.126755   0.045555
     9  C   -0.123521   0.015257
    10  C   -0.346678   0.029010
    11  C   -0.436781   0.028714
    12  C   -0.124729   0.022880
    13  C    0.181660   0.016032
    14  C   -1.358077   0.081249
    15  O   -0.380870   0.238268
    16  H    0.088503   0.004902
    17  H    0.179929  -0.001052
    18  H    0.108015  -0.001721
    19  H    0.126902   0.001535
    20  H    0.189440   0.002264
    21  H    0.191392  -0.001815
    22  H    0.129663   0.005935
    23  H    0.130896   0.006183
    24  H    0.152807  -0.001980
    25  H    0.123884  -0.002559
    26  H    0.116535  -0.002444
    27  H    0.162110  -0.001928
 Sum of Mulliken charges =  -1.00000   1.00000

 Dipole moment (field-independent basis, Debye):
    X=             -2.1816    Y=              0.7828    Z=              0.1488  Tot=              2.3226
 Quadrupole moment (field-independent basis, Debye-Ang):
   XX=           -104.4417   YY=           -122.7947   ZZ=            -99.5609
   XY=              4.4386   XZ=             -1.4197   YZ=              9.7885

  Exact polarizability: 252.391   5.451 199.046  19.590 -30.085 115.121
 Approx polarizability: 348.899   4.366 355.602  32.678 -67.724 188.010

                      1                      2                      3
                      A                      A                      A
 Frequencies --     60.4336                68.5908                92.6531
 Red. masses --      3.8163                 3.1288                 2.9251
 Frc consts  --      0.0082                 0.0087                 0.0148
 IR Inten    --      4.5675                 1.2498                 3.0127

                      4                      5                      6
                      A                      A                      A
 Frequencies --    116.9155               138.4731               165.7368
 Red. masses --      1.1427                 4.2891                 5.0904
 Frc consts  --      0.0092                 0.0485                 0.0824
 IR Inten    --      0.0532                 0.3099                 1.3592

                      7                      8                      9
                      A                      A                      A
 Frequencies --    212.9110               214.4861               258.8550
 Red. masses --      1.5192                 2.1892                 3.4663
 Frc consts  --      0.0406                 0.0593                 0.1368
 IR Inten    --      0.4954                 0.3067                 3.6452

                     10                     11                     12
                      A                      A                      A
 Frequencies --    326.9949               340.6972               352.6480
 Red. masses --      3.9489                 2.5327                 3.4127
 Frc consts  --      0.2488                 0.1732                 0.2500
 IR Inten    --      0.1756                 0.4630                 0.9024

                     13                     14                     15
                      A                      A                      A
 Frequencies --    387.8185               415.2875               427.9217
 Red. masses --      8.4258                 6.1751                 6.2060
 Frc consts  --      0.7467                 0.6275                 0.6696
 IR Inten    --      9.4840                 1.7816                 2.5574

                     16                     17                     18
                      A                      A                      A
 Frequencies --    441.1167               466.7083               516.2168
 Red. masses --      3.8318                 4.3123                 8.3752
 Frc consts  --      0.4393                 0.5534                 1.3150
 IR Inten    --      1.1197                 0.9451                 0.0698

                     19                     20                     21
                      A                      A                      A
 Frequencies --    558.6505               614.6461               668.6769
 Red. masses --      4.6522                 4.6564                 5.6447
 Frc consts  --      0.8554                 1.0364                 1.4870
 IR Inten    --      2.7319                15.1989                 1.4874

                     22                     23                     24
                      A                      A                      A
 Frequencies --    675.9230               690.3396               714.0519
 Red. masses --      3.5075                 3.7404                 2.7318
 Frc consts  --      0.9441                 1.0503                 0.8206
 IR Inten    --      0.7971                16.7868                40.5025

                     25                     26                     27
                      A                      A                      A
 Frequencies --    773.9182               779.4927               799.8315
 Red. masses --      1.5546                 1.8790                 4.4153
 Frc consts  --      0.5486                 0.6727                 1.6642
 IR Inten    --      2.7243                20.9320                 0.1018

                     28                     29                     30
                      A                      A                      A
 Frequencies --    846.2136               871.5823               880.1510
 Red. masses --      2.6897                 1.4939                 3.0062
 Frc consts  --      1.1348                 0.6686                 1.3721
 IR Inten    --      6.6982                 0.0103                11.0329

                     31                     32                     33
                      A                      A                      A
 Frequencies --    957.6106               978.3848               981.0382
 Red. masses --      3.3706                 1.3616                 1.2580
 Frc consts  --      1.8211                 0.7679                 0.7134
 IR Inten    --      5.9956                 2.9123                 0.0890

                     34                     35                     36
                      A                      A                      A
 Frequencies --    998.3713              1033.4213              1040.0251
 Red. masses --      2.6143                 2.1465                 1.4867
 Frc consts  --      1.5353                 1.3506                 0.9475
 IR Inten    --      3.3300                20.5898                 1.0872

                     37                     38                     39
                      A                      A                      A
 Frequencies --   1049.0698              1075.9047              1104.7922
 Red. masses --      1.7387                 1.9275                 2.0974
 Frc consts  --      1.1274                 1.3146                 1.5083
 IR Inten    --      1.7250                 9.5159                 3.9381

                     40                     41                     42
                      A                      A                      A
 Frequencies --   1129.0793              1145.0580              1181.6326
 Red. masses --      1.9756                 1.4408                 2.6005
 Frc consts  --      1.4839                 1.1130                 2.1393
 IR Inten    --     25.7343                 6.2506                 0.3374

                     43                     44                     45
                      A                      A                      A
 Frequencies --   1210.5659              1235.1841              1271.2726
 Red. masses --      2.0752                 3.4970                 2.0371
 Frc consts  --      1.7918                 3.1434                 1.9398
 IR Inten    --      0.7800                24.8213                32.5755

                     46                     47                     48
                      A                      A                      A
 Frequencies --   1299.7524              1345.9125              1357.2720
 Red. masses --      1.2670                 1.4492                10.2453
 Frc consts  --      1.2611                 1.5467                11.1201
 IR Inten    --      1.3343                 7.1115                 7.5980

                     49                     50                     51
                      A                      A                      A
 Frequencies --   1375.6844              1387.6640              1405.5955
 Red. masses --      1.3503                 1.2385                 2.6094
 Frc consts  --      1.5056                 1.4052                 3.0374
 IR Inten    --     11.4897                 6.6889                65.9093

                     52                     53                     54
                      A                      A                      A
 Frequencies --   1456.3227              1471.0316              1479.2005
 Red. masses --      1.7461                 2.6603                 1.2960
 Frc consts  --      2.1819                 3.3918                 1.6707
 IR Inten    --    135.5568                48.3829                 1.1443

                     55                     56                     57
                      A                      A                      A
 Frequencies --   1485.1109              1490.9398              1500.6734
 Red. masses --      1.6442                 1.0644                 1.0831
 Frc consts  --      2.1366                 1.3941                 1.4371
 IR Inten    --      4.6122                 9.1063                 3.4200

                     58                     59                     60
                      A                      A                      A
 Frequencies --   1507.0680              1510.6416              1521.9321
 Red. masses --      1.0849                 3.8358                 4.4590
 Frc consts  --      1.4518                 5.1574                 6.0853
 IR Inten    --     23.8252                 8.3009               392.4336

                     61                     62                     63
                      A                      A                      A
 Frequencies --   1543.7186              1612.7819              1625.5658
 Red. masses --      5.2630                 8.1128                 5.9814
 Frc consts  --      7.3896                12.4330                 9.3123
 IR Inten    --     32.7750                 3.4400                 5.6468

                     64                     65                     66
                      A                      A                      A
 Frequencies --   2992.6312              2998.9130              3027.1344
 Red. masses --      1.0443                 1.0418                 1.0625
 Frc consts  --      5.5105                 5.5201                 5.7366
 IR Inten    --     87.6444               120.1156                62.8940

                     67                     68                     69
                      A                      A                      A
 Frequencies --   3032.8025              3053.9249              3067.8955
 Red. masses --      1.0912                 1.0980                 1.0974
 Frc consts  --      5.9133                 6.0337                 6.0856
 IR Inten    --     50.2763                54.7498                36.6544

                     70                     71                     72
                      A                      A                      A
 Frequencies --   3097.9882              3110.0535              3129.8009
 Red. masses --      1.1008                 1.0947                 1.0845
 Frc consts  --      6.2249                 6.2385                 6.2594
 IR Inten    --     31.3564                 6.8361                16.7777

                     73                     74                     75
                      A                      A                      A
 Frequencies --   3149.4893              3180.2438              3182.7295
 Red. masses --      1.0913                 1.0912                 1.0926
 Frc consts  --      6.3779                 6.5022                 6.5211
 IR Inten    --     55.3398                12.0218                27.0267

 - Thermochemistry -
 -------------------
 Temperature   298.150 Kelvin.  Pressure   1.00000 Atm.
 Atom     1 has atomic number  6 and mass  12.00000

 Molecular mass:   200.08373 amu.
 Principal axes and moments of inertia in atomic units:
                           1         2         3
     Eigenvalues --  1864.644743473.382365148.45111
           X            0.99313   0.05864  -0.10122
           Y           -0.02836   0.96017   0.27799
           Z            0.11349  -0.27321   0.95524
 This molecule is an asymmetric top.
 Rotational symmetry number  1.
 Warning -- assumption of classical behavior for rotation
           may cause significant error
 Rotational temperatures (Kelvin)      0.04645     0.02494     0.01682
 Rotational constants (GHZ):           0.96787     0.51959     0.35054
 Zero-point vibrational energy     560270.0 (Joules/Mol)
                                  133.90774 (Kcal/Mol)
 Warning -- explicit consideration of  20 degrees of freedom as
           vibrations may cause significant error
 Vibrational temperatures:     86.95    98.69   133.31   168.22   199.23
          (Kelvin)            238.46   306.33   308.60   372.43   470.47
                              490.19   507.38   557.98   597.51   615.68
                              634.67   671.49   742.72   803.77   884.34
                              962.08   972.50   993.24  1027.36  1113.50
                             1121.52  1150.78  1217.51  1254.01  1266.34
                             1377.79  1407.68  1411.50  1436.43  1486.86
                             1496.36  1509.38  1547.99  1589.55  1624.49
                             1647.48  1700.11  1741.73  1777.15  1829.08
                             1870.05  1936.47  1952.81  1979.30  1996.54
                             2022.34  2095.32  2116.49  2128.24  2136.74
                             2145.13  2159.13  2168.33  2173.48  2189.72
                             2221.07  2320.43  2338.83  4305.73  4314.77
                             4355.37  4363.53  4393.92  4414.02  4457.31
                             4474.67  4503.09  4531.41  4575.66  4579.24

 Zero-point correction=                           0.213396 (Hartree/Particle)
 Thermal correction to Energy=                    0.226635
 Thermal correction to Enthalpy=                  0.227579
 Thermal correction to Gibbs Free Energy=         0.173072
 Sum of electronic and zero-point Energies=           -653.095880
 Sum of electronic and thermal Energies=              -653.082640
 Sum of electronic and thermal Enthalpies=            -653.081696
 Sum of electronic and thermal Free Energies=         -653.136203

                     E (Thermal)             CV                S
                      KCal/Mol        Cal/Mol-Kelvin    Cal/Mol-Kelvin
 Total                  142.216             51.276            114.720
 Electronic               0.000              0.000              1.377
 Translational            0.889              2.981             41.785
 Rotational               0.889              2.981             31.878
 Vibrational            140.438             45.314             39.679
 Vibration     1          0.597              1.973              4.443
 Vibration     2          0.598              1.969              4.193
 Vibration     3          0.602              1.954              3.603
 Vibration     4          0.608              1.935              3.151
 Vibration     5          0.614              1.915              2.825
 Vibration     6          0.624              1.885              2.483
 Vibration     7          0.644              1.821              2.019
 Vibration     8          0.644              1.819              2.005
 Vibration     9          0.668              1.748              1.669
 Vibration    10          0.711              1.622              1.275
 Vibration    11          0.720              1.594              1.209
 Vibration    12          0.729              1.570              1.154
 Vibration    13          0.756              1.496              1.009
 Vibration    14          0.779              1.437              0.908
 Vibration    15          0.789              1.409              0.865
 Vibration    16          0.801              1.380              0.823
 Vibration    17          0.824              1.324              0.747
 Vibration    18          0.871              1.214              0.619
 Vibration    19          0.914              1.121              0.527
 Vibration    20          0.974              1.001              0.425

                           ! Non-Optimized Parameters !
 Normal termination of Gaussian 16 at Tue Dec 26 22:11:44 2023.
