 Gaussian 16, Revision A.03,
 Gaussian 16:  ES64L-G16RevA.03 25-Dec-2016

 --------------------------------------
 #P UB3LYP/6-311++G(d,p) nosym opt freq
 --------------------------------------

 -------
 Reduced
 -------
 Symbolic Z-matrix:
 Charge = -2 Multiplicity = 1

 SCF Done:  E(UB3LYP) =  -1069.09695197     A.U. after   33 cycles
 SCF Done:  E(UB3LYP) =  -1069.12100901     A.U. after   30 cycles
 SCF Done:  E(UB3LYP) =  -1069.12440147     A.U. after   29 cycles
 SCF Done:  E(UB3LYP) =  -1069.12466602     A.U. after   22 cycles
 SCF Done:  E(UB3LYP) =  -1069.12443009     A.U. after   24 cycles
 SCF Done:  E(UB3LYP) =  -1069.12477773     A.U. after   23 cycles
 SCF Done:  E(UB3LYP) =  -1069.12478154     A.U. after   19 cycles
 SCF Done:  E(UB3LYP) =  -1069.12479660     A.U. after   23 cycles
 SCF Done:  E(UB3LYP) =  -1069.12480081     A.U. after   22 cycles
 SCF Done:  E(UB3LYP) =  -1069.12481287     A.U. after   23 cycles
 SCF Done:  E(UB3LYP) =  -1069.12482204     A.U. after   21 cycles
 SCF Done:  E(UB3LYP) =  -1069.12482669     A.U. after   23 cycles
 SCF Done:  E(UB3LYP) =  -1069.12482769     A.U. after   18 cycles
 SCF Done:  E(UB3LYP) =  -1069.12482790     A.U. after   23 cycles
 SCF Done:  E(UB3LYP) =  -1069.12482802     A.U. after   16 cycles
 Optimization completed.
    -- Stationary point found.
 Normal termination of Gaussian 16 at Wed Dec 20 02:17:24 2023.

 ----------------------------------------------------------------------
 #P Geom=AllCheck Guess=TCheck SCRF=Check GenChk UB3LYP/6-311++G(d,p) F
 req
 ----------------------------------------------------------------------

 Structure from the checkpoint file:  "115-an.chk"
 -------
 Reduced
 -------
 Charge = -2 Multiplicity = 1

                          Input orientation:
 ---------------------------------------------------------------------
 Center     Atomic      Atomic             Coordinates (Angstroms)
 Number     Number       Type             X           Y           Z
 ---------------------------------------------------------------------
      1          6           0       -2.178480   -3.914544    1.111096
      2          6           0       -0.764999   -3.838770    1.386058
      3          6           0       -0.071275   -2.674571    1.668939
      4          6           0       -0.686986   -1.378181    1.715826
      5          6           0       -2.108736   -1.415568    1.458003
      6          6           0       -2.779483   -2.620291    1.165595
      7          8           0       -2.785793   -5.022236    0.866629
      8          8           0       -0.032023   -0.289497    1.925448
      9         17           0       -4.565013   -2.564524    0.912940
     10          6           0       -2.803069   -0.107959    1.460107
     11          8           0       -3.239204    0.511867    0.509441
     12          8           0       -2.914281    0.405078    2.729305
     13          6           0       -3.377495    1.749814    2.813147
     14          1           0       -0.239344   -4.793622    1.366227
     15          1           0        1.000510   -2.707713    1.863550
     16          1           0       -3.381001    2.005521    3.875989
     17          1           0       -4.386498    1.853495    2.401402
     18          1           0       -2.708200    2.426662    2.272198
 ---------------------------------------------------------------------

 SCF Done:  E(UB3LYP) =  -1069.12482802     A.U. after    2 cycles

 Alpha  occ. eigenvalues -- -101.27792 -18.92116 -18.86410 -18.76942 -18.76429
 Alpha  occ. eigenvalues --  -10.05158 -10.00343  -9.94081  -9.93566  -9.93178
 Alpha  occ. eigenvalues --   -9.90099  -9.89083  -9.88690  -9.19216  -6.95603
 Alpha  occ. eigenvalues --   -6.94761  -6.94702  -0.85824  -0.76982  -0.68571
 Alpha  occ. eigenvalues --   -0.68006  -0.58667  -0.53262  -0.50813  -0.45786
 Alpha  occ. eigenvalues --   -0.40726  -0.35979  -0.31421  -0.29389  -0.25114
 Alpha  occ. eigenvalues --   -0.24575  -0.23301  -0.20238  -0.19013  -0.17917
 Alpha  occ. eigenvalues --   -0.15239  -0.14230  -0.12461  -0.12059  -0.10707
 Alpha  occ. eigenvalues --   -0.09397  -0.08385  -0.07684  -0.06331  -0.05386
 Alpha  occ. eigenvalues --   -0.04293  -0.03251   0.02403   0.02983   0.05340
 Alpha  occ. eigenvalues --    0.05705   0.13087
 Alpha virt. eigenvalues --    0.15071   0.18769   0.19095   0.19968   0.20984
 Alpha virt. eigenvalues --    0.22590   0.23862   0.24233   0.26581   0.27148
 Alpha virt. eigenvalues --    0.27391   0.27553   0.28230   0.28611   0.29503

  Beta  occ. eigenvalues -- -101.27792 -18.92116 -18.86410 -18.76942 -18.76429
  Beta  occ. eigenvalues --  -10.05158 -10.00343  -9.94081  -9.93566  -9.93178
  Beta  occ. eigenvalues --   -9.90099  -9.89083  -9.88690  -9.19216  -6.95603
  Beta  occ. eigenvalues --   -6.94761  -6.94702  -0.85824  -0.76982  -0.68571
  Beta  occ. eigenvalues --   -0.68006  -0.58667  -0.53262  -0.50813  -0.45786
  Beta  occ. eigenvalues --   -0.40726  -0.35979  -0.31421  -0.29389  -0.25114
  Beta  occ. eigenvalues --   -0.24575  -0.23301  -0.20238  -0.19013  -0.17917
  Beta  occ. eigenvalues --   -0.15239  -0.14230  -0.12461  -0.12059  -0.10707
  Beta  occ. eigenvalues --   -0.09397  -0.08385  -0.07684  -0.06331  -0.05386
  Beta  occ. eigenvalues --   -0.04293  -0.03251   0.02403   0.02983   0.05340
  Beta  occ. eigenvalues --    0.05705   0.13087
  Beta virt. eigenvalues --    0.15071   0.18769   0.19095   0.19968   0.20984
  Beta virt. eigenvalues --    0.22590   0.23862   0.24233   0.26581   0.27148
  Beta virt. eigenvalues --    0.27391   0.27553   0.28230   0.28611   0.29503

 Mulliken charges and spin densities:
               1          2
     1  C   -1.182407   0.000000
     2  C    0.117867   0.000000
     3  C    0.347782   0.000000
     4  C   -1.162268   0.000000
     5  C    1.152461   0.000000
     6  C    0.714034  -0.000000
     7  O   -0.510640   0.000000
     8  O   -0.512896   0.000000
     9  Cl   0.268641   0.000000
    10  C   -1.097465  -0.000000
    11  O   -0.256146  -0.000000
    12  O   -0.021844  -0.000000
    13  C    0.247537   0.000000
    14  H    0.079297  -0.000000
    15  H    0.073305  -0.000000
    16  H   -0.248426  -0.000000
    17  H   -0.043347  -0.000000
    18  H    0.034515  -0.000000
 Sum of Mulliken charges =  -2.00000   0.00000

 Dipole moment (field-independent basis, Debye):
    X=             20.7505    Y=             18.6714    Z=            -13.5141  Tot=             31.0135
 Quadrupole moment (field-independent basis, Debye-Ang):
   XX=           -166.5360   YY=           -192.9853   ZZ=           -122.4688
   XY=            -48.9303   XZ=             23.4216   YZ=             13.3570

  Exact polarizability: 370.512-334.2161048.239-122.778 406.286 405.741
 Approx polarizability: 629.492-711.3311994.954-281.960 778.272 574.151

                      1                      2                      3
                      A                      A                      A
 Frequencies --     24.5853                64.4896                93.1540
 Red. masses --      5.8733                 8.5472                 3.4470
 Frc consts  --      0.0021                 0.0209                 0.0176
 IR Inten    --      7.8622                 0.3396                 0.6421

                      4                      5                      6
                      A                      A                      A
 Frequencies --    125.9991               148.4334               156.7136
 Red. masses --      6.9314                 1.2155                 7.7350
 Frc consts  --      0.0648                 0.0158                 0.1119
 IR Inten    --     10.6523                 1.0226                 4.5077

                      7                      8                      9
                      A                      A                      A
 Frequencies --    191.6920               235.6223               284.1643
 Red. masses --      8.0581                 8.6520                 7.4527
 Frc consts  --      0.1745                 0.2830                 0.3546
 IR Inten    --      7.0832                 5.7280                17.0447

                     10                     11                     12
                      A                      A                      A
 Frequencies --    303.0233               322.3013               328.1399
 Red. masses --      9.9564                 6.3498                 9.2445
 Frc consts  --      0.5386                 0.3886                 0.5865
 IR Inten    --      5.2436                 6.6836                13.4187

                     13                     14                     15
                      A                      A                      A
 Frequencies --    394.1576               445.3602               487.1197
 Red. masses --      5.5205                11.0897                 8.6110
 Frc consts  --      0.5053                 1.2960                 1.2039
 IR Inten    --      1.7321               574.1196               290.1115

                     16                     17                     18
                      A                      A                      A
 Frequencies --    530.8459               564.6417               620.9323
 Red. masses --      6.3519                 4.5117                 2.7798
 Frc consts  --      1.0546                 0.8475                 0.6315
 IR Inten    --     54.2014                35.1078                11.5689

                     19                     20                     21
                      A                      A                      A
 Frequencies --    701.1350               720.2833               747.9876
 Red. masses --      7.9333                 6.9123                 6.5856
 Frc consts  --      2.2978                 2.1129                 2.1709
 IR Inten    --      2.2209                37.9758                80.6375

                     22                     23                     24
                      A                      A                      A
 Frequencies --    790.7202               802.8991               860.6387
 Red. masses --      4.5847                 2.5563                10.3555
 Frc consts  --      1.6889                 0.9709                 4.5192
 IR Inten    --     15.1041                52.4434               175.8860

                     25                     26                     27
                      A                      A                      A
 Frequencies --    884.2172               912.1334              1018.2273
 Red. masses --      1.2897                 7.0489                 6.7770
 Frc consts  --      0.5941                 3.4553                 4.1398
 IR Inten    --      2.3958                80.4175               113.6918

                     28                     29                     30
                      A                      A                      A
 Frequencies --   1066.6761              1078.5772              1157.1321
 Red. masses --      3.5936                 2.8967                 1.4841
 Frc consts  --      2.4091                 1.9854                 1.1708
 IR Inten    --    875.4081               149.6581                74.1407

                     31                     32                     33
                      A                      A                      A
 Frequencies --   1160.4856              1185.8749              1196.7759
 Red. masses --      1.5496                 1.8253                 4.1184
 Frc consts  --      1.2296                 1.5124                 3.4754
 IR Inten    --     37.8254               278.9692                43.8049

                     34                     35                     36
                      A                      A                      A
 Frequencies --   1303.9975              1377.8702              1386.3280
 Red. masses --      2.3561                 8.3013                 6.3966
 Frc consts  --      2.3605                 9.2857                 7.2432
 IR Inten    --     45.6864               975.7877               652.8320

                     37                     38                     39
                      A                      A                      A
 Frequencies --   1423.5604              1442.2175              1467.0877
 Red. masses --      8.6341                 1.1956                 1.0498
 Frc consts  --     10.3090                 1.4652                 1.3313
 IR Inten    --    725.5812               463.5433                28.5015

                     40                     41                     42
                      A                      A                      A
 Frequencies --   1484.9808              1491.4160              1584.2551
 Red. masses --      4.5657                 1.0587                 7.0589
 Frc consts  --      5.9320                 1.3875                10.4384
 IR Inten    --    388.8832               125.6047              3896.8857

                     43                     44                     45
                      A                      A                      A
 Frequencies --   1725.1625              2999.0140              3062.6277
 Red. masses --     11.6368                 1.0283                 1.1050
 Frc consts  --     20.4053                 5.4492                 6.1064
 IR Inten    --    445.4961                 0.5025                38.9608

                     46                     47                     48
                      A                      A                      A
 Frequencies --   3081.7443              3082.5283              3110.0085
 Red. masses --      1.1047                 1.0835                 1.0924
 Frc consts  --      6.1815                 6.0657                 6.2253
 IR Inten    --     34.7632                46.6144               503.3439

 - Thermochemistry -
 -------------------
 Temperature   298.150 Kelvin.  Pressure   1.00000 Atm.
 Atom     1 has atomic number  6 and mass  12.00000

 Molecular mass:   199.98764 amu.
 Principal axes and moments of inertia in atomic units:
                           1         2         3
     Eigenvalues --  1781.088292977.061934406.10549
           X           -0.08232   0.98366  -0.16013
           Y            0.97465   0.04592  -0.21896
           Z            0.20803   0.17410   0.96250
 This molecule is an asymmetric top.
 Rotational symmetry number  1.
 Warning -- assumption of classical behavior for rotation
           may cause significant error
 Rotational temperatures (Kelvin)      0.04863     0.02909     0.01966
 Rotational constants (GHZ):           1.01328     0.60622     0.40960
 Zero-point vibrational energy     296841.0 (Joules/Mol)
                                   70.94670 (Kcal/Mol)
 Warning -- explicit consideration of  17 degrees of freedom as
           vibrations may cause significant error
 Vibrational temperatures:     35.37    92.79   134.03   181.28   213.56
          (Kelvin)            225.48   275.80   339.01   408.85   435.98
                              463.72   472.12   567.10   640.77   700.86
                              763.77   812.39   893.38  1008.78  1036.33
                             1076.19  1137.67  1155.19  1238.27  1272.19
                             1312.36  1465.00  1534.71  1551.83  1664.86
                             1669.68  1706.21  1721.89  1876.16  1982.45
                             1994.62  2048.19  2075.03  2110.81  2136.56
                             2145.81  2279.39  2482.12  4314.91  4406.44
                             4433.94  4435.07  4474.61

 Zero-point correction=                           0.113061 (Hartree/Particle)
 Thermal correction to Energy=                    0.125231
 Thermal correction to Enthalpy=                  0.126176
 Thermal correction to Gibbs Free Energy=         0.073191
 Sum of electronic and zero-point Energies=          -1069.011767
 Sum of electronic and thermal Energies=             -1068.999597
 Sum of electronic and thermal Enthalpies=           -1068.998652
 Sum of electronic and thermal Free Energies=        -1069.051637

                     E (Thermal)             CV                S
                      KCal/Mol        Cal/Mol-Kelvin    Cal/Mol-Kelvin
 Total                   78.584             43.243            111.516
 Electronic               0.000              0.000              0.000
 Translational            0.889              2.981             41.784
 Rotational               0.889              2.981             31.525
 Vibrational             76.806             37.281             38.208
 Vibration     1          0.593              1.985              6.224
 Vibration     2          0.597              1.971              4.315
 Vibration     3          0.602              1.954              3.593
 Vibration     4          0.611              1.927              3.006
 Vibration     5          0.618              1.904              2.692
 Vibration     6          0.620              1.895              2.589
 Vibration     7          0.634              1.851              2.211
 Vibration     8          0.655              1.786              1.836
 Vibration     9          0.683              1.703              1.508
 Vibration    10          0.694              1.668              1.400
 Vibration    11          0.707              1.631              1.298
 Vibration    12          0.711              1.619              1.269
 Vibration    13          0.761              1.483              0.984
 Vibration    14          0.805              1.371              0.810
 Vibration    15          0.843              1.279              0.691
 Vibration    16          0.886              1.182              0.585
 Vibration    17          0.920              1.108              0.515

                           ! Non-Optimized Parameters !
 Normal termination of Gaussian 16 at Wed Dec 20 02:24:58 2023.
