 Gaussian 16, Revision A.03,
 Gaussian 16:  ES64L-G16RevA.03 25-Dec-2016

 --------------------------------------
 #P UB3LYP/6-311++G(d,p) nosym opt freq
 --------------------------------------

 -------
 Radical
 -------
 Symbolic Z-matrix:
 Charge = -1 Multiplicity = 2

 SCF Done:  E(UB3LYP) =  -689.346816080     A.U. after   20 cycles
 SCF Done:  E(UB3LYP) =  -689.356752811     A.U. after   18 cycles
 SCF Done:  E(UB3LYP) =  -689.340634094     A.U. after   18 cycles
 SCF Done:  E(UB3LYP) =  -689.356202828     A.U. after   18 cycles
 SCF Done:  E(UB3LYP) =  -689.358676376     A.U. after   14 cycles
 SCF Done:  E(UB3LYP) =  -689.360064232     A.U. after   15 cycles
 SCF Done:  E(UB3LYP) =  -689.366046564     A.U. after   18 cycles
 SCF Done:  E(UB3LYP) =  -689.343248001     A.U. after   20 cycles
 SCF Done:  E(UB3LYP) =  -689.376412425     A.U. after   18 cycles
 SCF Done:  E(UB3LYP) =  -689.381947129     A.U. after   16 cycles
 SCF Done:  E(UB3LYP) =  -689.398945600     A.U. after   10 cycles
 SCF Done:  E(UB3LYP) =  -689.398989210     A.U. after   16 cycles
 SCF Done:  E(UB3LYP) =  -689.399005791     A.U. after   14 cycles
 SCF Done:  E(UB3LYP) =  -689.399006481     A.U. after   12 cycles
 SCF Done:  E(UB3LYP) =  -689.399007757     A.U. after   13 cycles
 SCF Done:  E(UB3LYP) =  -689.399008640     A.U. after   11 cycles
 SCF Done:  E(UB3LYP) =  -689.399008921     A.U. after   11 cycles
 SCF Done:  E(UB3LYP) =  -689.399009037     A.U. after   10 cycles
 SCF Done:  E(UB3LYP) =  -689.399009063     A.U. after   10 cycles
 Optimization completed.
    -- Stationary point found.
 Normal termination of Gaussian 16 at Wed Dec 20 05:48:21 2023.

 ----------------------------------------------------------------------
 #P Geom=AllCheck Guess=TCheck SCRF=Check GenChk UB3LYP/6-311++G(d,p) F
 req
 ----------------------------------------------------------------------

 Structure from the checkpoint file:  "089-rad.chk"
 -------
 Radical
 -------
 Charge = -1 Multiplicity = 2

                          Input orientation:
 ---------------------------------------------------------------------
 Center     Atomic      Atomic             Coordinates (Angstroms)
 Number     Number       Type             X           Y           Z
 ---------------------------------------------------------------------
      1          6           0        1.664604    1.052162   -0.833231
      2          6           0        0.433085    1.566852   -0.250557
      3          6           0       -0.533869    0.727301    0.263020
      4          6           0       -0.366382   -0.719384    0.273581
      5          6           0        0.869275   -1.231324   -0.302385
      6          6           0        1.826196   -0.395084   -0.829121
      7          8           0        2.548963    1.809296   -1.331612
      8          8           0       -1.233585   -1.500357    0.765296
      9          8           0        2.935027   -0.949698   -1.434099
     10          6           0        4.182086   -0.645210   -0.816821
     11          6           0        0.254057    3.065024   -0.249854
     12          6           0       -1.810318    1.269460    0.857446
     13          1           0        4.352901    0.433386   -0.797226
     14          1           0        4.950561   -1.133845   -1.421025
     15          1           0        4.216515   -1.053626    0.202388
     16          8           0        1.122719   -2.586538   -0.254789
     17          6           0        0.237291   -3.399266   -1.019267
     18          1           0       -0.794528   -3.270574   -0.685044
     19          1           0        0.555154   -4.432670   -0.859831
     20          1           0        0.322616   -3.160755   -2.088198
     21          1           0        1.130788    3.533653   -0.698041
     22          1           0        0.124799    3.458163    0.766684
     23          1           0       -0.633922    3.368643   -0.819156
     24          1           0       -1.612420    1.934509    1.707922
     25          1           0       -2.429046    0.440114    1.201677
     26          1           0       -2.381647    1.856029    0.126574
 ---------------------------------------------------------------------

 SCF Done:  E(UB3LYP) =  -689.399009063     A.U. after    1 cycles

 Alpha  occ. eigenvalues --  -19.00295 -19.00293 -18.93496 -18.93496 -10.08738
 Alpha  occ. eigenvalues --  -10.08737 -10.08103 -10.08102 -10.07811 -10.07751
 Alpha  occ. eigenvalues --  -10.03463 -10.03461 -10.03426 -10.03369  -0.92734
 Alpha  occ. eigenvalues --   -0.90879  -0.85504  -0.85263  -0.69434  -0.64268
 Alpha  occ. eigenvalues --   -0.59886  -0.57932  -0.56915  -0.51423  -0.51397
 Alpha  occ. eigenvalues --   -0.43457  -0.42778  -0.38274  -0.36429  -0.35662
 Alpha  occ. eigenvalues --   -0.33991  -0.32135  -0.31540  -0.30962  -0.30649
 Alpha  occ. eigenvalues --   -0.28953  -0.27416  -0.26719  -0.26283  -0.26033
 Alpha  occ. eigenvalues --   -0.25187  -0.23588  -0.23048  -0.22202  -0.21703
 Alpha  occ. eigenvalues --   -0.21408  -0.15618  -0.15325  -0.12925  -0.09949
 Alpha  occ. eigenvalues --   -0.09698  -0.09119  -0.01931
 Alpha virt. eigenvalues --    0.08829   0.09292   0.09836   0.11202   0.11887
 Alpha virt. eigenvalues --    0.12541   0.12731   0.13358   0.13658   0.14035
 Alpha virt. eigenvalues --    0.14390   0.15086   0.15367   0.16514   0.16836

  Beta  occ. eigenvalues --  -19.00282 -19.00280 -18.92799 -18.92798 -10.08732
  Beta  occ. eigenvalues --  -10.08732 -10.07957 -10.07956 -10.07719 -10.07657
  Beta  occ. eigenvalues --  -10.03470 -10.03470 -10.03315 -10.03254  -0.92645
  Beta  occ. eigenvalues --   -0.90785  -0.84322  -0.84064  -0.68932  -0.64092
  Beta  occ. eigenvalues --   -0.59604  -0.57817  -0.56752  -0.51309  -0.50578
  Beta  occ. eigenvalues --   -0.43164  -0.42459  -0.38153  -0.36218  -0.35490
  Beta  occ. eigenvalues --   -0.33734  -0.32033  -0.31444  -0.30764  -0.30376
  Beta  occ. eigenvalues --   -0.28712  -0.27186  -0.26121  -0.26085  -0.25883
  Beta  occ. eigenvalues --   -0.24251  -0.23023  -0.22466  -0.21511  -0.20734
  Beta  occ. eigenvalues --   -0.19933  -0.15306  -0.15050  -0.09928  -0.09373
  Beta  occ. eigenvalues --   -0.09055  -0.08469
  Beta virt. eigenvalues --    0.05210   0.08843   0.09315   0.09845   0.11206
  Beta virt. eigenvalues --    0.11899   0.12557   0.12738   0.13411   0.14013
  Beta virt. eigenvalues --    0.14401   0.14615   0.15105   0.15770   0.16539

 Mulliken charges and spin densities:
               1          2
     1  C   -0.901944   0.061984
     2  C    0.833522   0.094596
     3  C    0.833503   0.094563
     4  C   -0.902547   0.062008
     5  C    0.018975   0.084381
     6  C    0.019422   0.084512
     7  O   -0.408490   0.255320
     8  O   -0.408497   0.255317
     9  O   -0.142093  -0.000494
    10  C   -0.276465   0.001848
    11  C   -0.450934  -0.004891
    12  C   -0.450825  -0.004878
    13  H    0.177354  -0.000787
    14  H    0.113548   0.001295
    15  H    0.108586   0.000952
    16  O   -0.142215  -0.000481
    17  C   -0.276382   0.001846
    18  H    0.177406  -0.000784
    19  H    0.113511   0.001294
    20  H    0.108509   0.000954
    21  H    0.200213  -0.002010
    22  H    0.112930   0.003491
    23  H    0.114873   0.004244
    24  H    0.114778   0.004233
    25  H    0.200242  -0.002010
    26  H    0.113019   0.003497
 Sum of Mulliken charges =  -1.00000   1.00000

 Dipole moment (field-independent basis, Debye):
    X=             -4.0479    Y=              0.5031    Z=              1.7247  Tot=              4.4287
 Quadrupole moment (field-independent basis, Debye-Ang):
   XX=           -107.1189   YY=           -105.2844   ZZ=            -95.7063
   XY=             -8.0814   XZ=             13.6529   YZ=              8.0255

  Exact polarizability: 176.265   9.283 184.332 -32.441  -4.070 111.128
 Approx polarizability: 265.465  46.018 265.175 -57.356 -27.214 177.438

                      1                      2                      3
                      A                      A                      A
 Frequencies --     74.2174                77.3060                86.6014
 Red. masses --      2.9462                 1.9996                 2.6243
 Frc consts  --      0.0096                 0.0070                 0.0116
 IR Inten    --      6.9925                 0.1049                 2.3141

                      4                      5                      6
                      A                      A                      A
 Frequencies --     87.7085                88.6745               123.3106
 Red. masses --      3.2298                 1.3988                 1.0867
 Frc consts  --      0.0146                 0.0065                 0.0097
 IR Inten    --      9.1164                 0.6017                 0.7716

                      7                      8                      9
                      A                      A                      A
 Frequencies --    140.8929               152.5773               157.3172
 Red. masses --      3.4468                 1.2450                 1.1227
 Frc consts  --      0.0403                 0.0171                 0.0164
 IR Inten    --      0.1028                 0.7754                 0.6146

                     10                     11                     12
                      A                      A                      A
 Frequencies --    195.2075               246.4472               262.7522
 Red. masses --      3.0899                 3.6921                 4.4115
 Frc consts  --      0.0694                 0.1321                 0.1794
 IR Inten    --      4.7856                 0.4866                 5.3499

                     13                     14                     15
                      A                      A                      A
 Frequencies --    310.5063               324.9062               336.4101
 Red. masses --      2.6035                 3.7852                 6.0276
 Frc consts  --      0.1479                 0.2354                 0.4019
 IR Inten    --      2.3954                 1.2050                 2.6357

                     16                     17                     18
                      A                      A                      A
 Frequencies --    348.0552               395.1162               402.2550
 Red. masses --      7.0682                10.9876                 7.2401
 Frc consts  --      0.5045                 1.0107                 0.6902
 IR Inten    --      1.0745                11.4670                 0.3085

                     19                     20                     21
                      A                      A                      A
 Frequencies --    428.1815               461.6966               485.7601
 Red. masses --      5.8645                 6.7589                 4.9672
 Frc consts  --      0.6335                 0.8489                 0.6906
 IR Inten    --      3.8501                 3.7067                 9.9111

                     22                     23                     24
                      A                      A                      A
 Frequencies --    548.2477               608.8311               634.8101
 Red. masses --      7.5166                 5.8166                 5.4763
 Frc consts  --      1.3311                 1.2703                 1.3002
 IR Inten    --      4.1996                 9.5417                 1.3680

                     25                     26                     27
                      A                      A                      A
 Frequencies --    724.4880               736.5078               772.1577
 Red. masses --      4.5496                 5.1733                 8.9953
 Frc consts  --      1.4070                 1.6534                 3.1599
 IR Inten    --      0.7548                 8.7560                 0.3426

                     28                     29                     30
                      A                      A                      A
 Frequencies --    894.0863               937.7595               981.3788
 Red. masses --      3.9256                 4.2513                 5.0512
 Frc consts  --      1.8489                 2.2027                 2.8663
 IR Inten    --     25.9398                25.0864                23.1980

                     31                     32                     33
                      A                      A                      A
 Frequencies --    996.6731              1026.5336              1053.3184
 Red. masses --      1.8033                 1.3979                 2.0045
 Frc consts  --      1.0554                 0.8679                 1.3103
 IR Inten    --     17.0858                 0.0290                24.4874

                     34                     35                     36
                      A                      A                      A
 Frequencies --   1054.6676              1105.0062              1131.5964
 Red. masses --      2.6437                 3.5561                 4.6388
 Frc consts  --      1.7326                 2.5583                 3.4997
 IR Inten    --     34.7084                29.7776               209.3881

                     37                     38                     39
                      A                      A                      A
 Frequencies --   1161.5032              1163.6262              1178.8250
 Red. masses --      1.2649                 1.2617                 2.9794
 Frc consts  --      1.0054                 1.0065                 2.4394
 IR Inten    --     15.9196                 5.1159                75.7159

                     40                     41                     42
                      A                      A                      A
 Frequencies --   1209.8833              1210.6107              1239.1960
 Red. masses --      1.4628                 3.4088                 2.9795
 Frc consts  --      1.2616                 2.9435                 2.6957
 IR Inten    --      0.9504                 6.1962               153.4866

                     43                     44                     45
                      A                      A                      A
 Frequencies --   1293.6173              1371.1636              1386.7498
 Red. masses --      4.6836                 1.3982                 1.2777
 Frc consts  --      4.6179                 1.5488                 1.4477
 IR Inten    --    132.2427                48.2855                 1.2839

                     46                     47                     48
                      A                      A                      A
 Frequencies --   1410.4239              1444.9175              1455.8918
 Red. masses --      2.8590                 1.2016                 1.3302
 Frc consts  --      3.3510                 1.4781                 1.6612
 IR Inten    --     13.5694                 0.0429               112.3373

                     49                     50                     51
                      A                      A                      A
 Frequencies --   1476.2786              1476.4486              1478.8692
 Red. masses --      1.0898                 1.1513                 1.0752
 Frc consts  --      1.3994                 1.4787                 1.3855
 IR Inten    --      0.2210                 0.0934                 4.8548

                     52                     53                     54
                      A                      A                      A
 Frequencies --   1486.1559              1491.3546              1505.8206
 Red. masses --      1.2431                 1.0495                 1.0481
 Frc consts  --      1.6177                 1.3753                 1.4002
 IR Inten    --     22.4087                 0.0272                11.8111

                     55                     56                     57
                      A                      A                      A
 Frequencies --   1510.4252              1513.7023              1514.5381
 Red. masses --      3.5493                 2.3720                 1.1834
 Frc consts  --      4.7708                 3.2022                 1.5993
 IR Inten    --     20.5865               227.3166                35.6909

                     58                     59                     60
                      A                      A                      A
 Frequencies --   1514.6836              1538.8213              1629.1892
 Red. masses --      1.4047                 6.7291                 9.3892
 Frc consts  --      1.8988                 9.3882                14.6832
 IR Inten    --    180.5053                15.8545                13.7287

                     61                     62                     63
                      A                      A                      A
 Frequencies --   2979.6496              2980.2819              2986.3719
 Red. masses --      1.0427                 1.0433                 1.0415
 Frc consts  --      5.4543                 5.4599                 5.4727
 IR Inten    --    167.1156               123.3342                10.9981

                     64                     65                     66
                      A                      A                      A
 Frequencies --   2988.2724              3017.1231              3020.0067
 Red. masses --      1.0405                 1.0991                 1.0988
 Frc consts  --      5.4745                 5.8946                 5.9048
 IR Inten    --    154.7178                97.9740                 0.1065

                     67                     68                     69
                      A                      A                      A
 Frequencies --   3060.2721              3060.6631              3096.2277
 Red. masses --      1.0878                 1.0871                 1.1056
 Frc consts  --      6.0025                 6.0001                 6.2448
 IR Inten    --    103.5722                48.0067                 5.1535

                     70                     71                     72
                      A                      A                      A
 Frequencies --   3096.4774              3107.9282              3108.3943
 Red. masses --      1.1056                 1.0940                 1.0942
 Frc consts  --      6.2458                 6.2262                 6.2289
 IR Inten    --     39.6277                 1.2873                15.5699

 - Thermochemistry -
 -------------------
 Temperature   298.150 Kelvin.  Pressure   1.00000 Atm.
 Atom     1 has atomic number  6 and mass  12.00000

 Molecular mass:   196.07356 amu.
 Principal axes and moments of inertia in atomic units:
                           1         2         3
     Eigenvalues --  2255.878822500.702414522.23399
           X           -0.56483   0.74476   0.35539
           Y            0.79221   0.60995  -0.01913
           Z            0.23102  -0.27074   0.93452
 This molecule is an asymmetric top.
 Rotational symmetry number  1.
 Warning -- assumption of classical behavior for rotation
           may cause significant error
 Rotational temperatures (Kelvin)      0.03839     0.03464     0.01915
 Rotational constants (GHZ):           0.80002     0.72169     0.39908
 Zero-point vibrational energy     529684.5 (Joules/Mol)
                                  126.59762 (Kcal/Mol)
 Warning -- explicit consideration of  23 degrees of freedom as
           vibrations may cause significant error
 Vibrational temperatures:    106.78   111.23   124.60   126.19   127.58
          (Kelvin)            177.42   202.71   219.52   226.34   280.86
                              354.58   378.04   446.75   467.47   484.02
                              500.77   568.48   578.76   616.06   664.28
                              698.90   788.81   875.97   913.35  1042.38
                             1059.67  1110.96  1286.39  1349.23  1411.99
                             1433.99  1476.95  1515.49  1517.43  1589.86
                             1628.11  1671.14  1674.20  1696.07  1740.75
                             1741.80  1782.93  1861.23  1972.80  1995.22
                             2029.29  2078.91  2094.70  2124.04  2124.28
                             2127.76  2138.25  2145.73  2166.54  2173.16
                             2177.88  2179.08  2179.29  2214.02  2344.04
                             4287.05  4287.96  4296.72  4299.46  4340.97
                             4345.12  4403.05  4403.61  4454.78  4455.14
                             4471.62  4472.29

 Zero-point correction=                           0.201746 (Hartree/Particle)
 Thermal correction to Energy=                    0.216800
 Thermal correction to Enthalpy=                  0.217744
 Thermal correction to Gibbs Free Energy=         0.159181
 Sum of electronic and zero-point Energies=           -689.197263
 Sum of electronic and thermal Energies=              -689.182209
 Sum of electronic and thermal Enthalpies=            -689.181265
 Sum of electronic and thermal Free Energies=         -689.239828

                     E (Thermal)             CV                S
                      KCal/Mol        Cal/Mol-Kelvin    Cal/Mol-Kelvin
 Total                  136.044             53.598            123.255
 Electronic               0.000              0.000              1.377
 Translational            0.889              2.981             41.725
 Rotational               0.889              2.981             31.612
 Vibrational            134.266             47.636             48.541
 Vibration     1          0.599              1.966              4.038
 Vibration     2          0.599              1.964              3.958
 Vibration     3          0.601              1.959              3.735
 Vibration     4          0.601              1.958              3.711
 Vibration     5          0.601              1.957              3.689
 Vibration     6          0.610              1.930              3.048
 Vibration     7          0.615              1.912              2.792
 Vibration     8          0.619              1.900              2.640
 Vibration     9          0.621              1.894              2.582
 Vibration    10          0.636              1.847              2.178
 Vibration    11          0.661              1.769              1.756
 Vibration    12          0.670              1.741              1.643
 Vibration    13          0.699              1.654              1.360
 Vibration    14          0.709              1.626              1.285
 Vibration    15          0.717              1.603              1.229
 Vibration    16          0.726              1.579              1.175
 Vibration    17          0.762              1.481              0.981
 Vibration    18          0.768              1.465              0.954
 Vibration    19          0.790              1.409              0.865
 Vibration    20          0.819              1.335              0.761
 Vibration    21          0.842              1.282              0.695
 Vibration    22          0.903              1.144              0.548
 Vibration    23          0.968              1.013              0.435

                           ! Non-Optimized Parameters !
 Normal termination of Gaussian 16 at Wed Dec 20 06:23:42 2023.
