 Gaussian 16, Revision A.03,
 Gaussian 16:  ES64L-G16RevA.03 25-Dec-2016

 --------------------------------------
 #P UB3LYP/6-311++G(d,p) nosym opt freq
 --------------------------------------

 -------
 Reduced
 -------
 Symbolic Z-matrix:
 Charge = -2 Multiplicity = 1

 SCF Done:  E(UB3LYP) =  -846.463002004     A.U. after   45 cycles
 Optimization completed.
    -- Stationary point found.
 Normal termination of Gaussian 16 at Mon Jan  8 01:53:03 2024.

 ----------------------------------------------------------------------
 #P Geom=AllCheck Guess=TCheck SCRF=Check GenChk UB3LYP/6-311++G(d,p) F
 req
 ----------------------------------------------------------------------

 Structure from the checkpoint file:  "284-an.chk"
 -------
 Reduced
 -------
 Charge = -2 Multiplicity = 1

                          Input orientation:
 ---------------------------------------------------------------------
 Center     Atomic      Atomic             Coordinates (Angstroms)
 Number     Number       Type             X           Y           Z
 ---------------------------------------------------------------------
      1          6           0       -0.051153    3.882800    0.192298
      2          6           0       -0.518094    3.469148    1.424355
      3          6           0       -0.121537    2.211947    1.947241
      4          6           0        0.826704    3.077664   -0.579327
      5          6           0        1.233160    1.797187   -0.046307
      6          6           0        0.737250    1.408506    1.212215
      7          6           0        1.300257    3.516341   -1.856629
      8          6           0        2.177035    2.616802   -2.536642
      9          6           0        2.589736    1.373713   -2.062558
     10          6           0        2.138808    0.904124   -0.778439
     11          8           0        1.004251    4.640416   -2.442696
     12          8           0        2.495601   -0.226249   -0.302744
     13          1           0       -0.342149    4.840892   -0.227095
     14          1           0       -1.190330    4.107683    1.994720
     15          1           0       -0.487135    1.882940    2.917421
     16          1           0        1.061637    0.441796    1.585000
     17          8           0        2.590644    3.097165   -3.759449
     18          6           0        3.500746    0.492401   -2.879414
     19          6           0        5.002933    0.674822   -2.573097
     20          6           0        5.903939   -0.252173   -3.399432
     21          6           0        7.406404   -0.087393   -3.129393
     22          6           0        8.294998   -1.016756   -3.967222
     23          6           0        9.795747   -0.854623   -3.702478
     24          1           0        2.113031    3.963586   -3.767352
     25          1           0        3.336971    0.683007   -3.947026
     26          1           0        3.236699   -0.550288   -2.667863
     27          1           0        5.160481    0.488724   -1.505019
     28          1           0        5.280631    1.718973   -2.762257
     29          1           0        5.713800   -0.079694   -4.468636
     30          1           0        5.617730   -1.295263   -3.205766
     31          1           0        7.603496   -0.264723   -2.063899
     32          1           0        7.696007    0.954635   -3.319957
     33          1           0        8.094941   -0.840536   -5.032359
     34          1           0        8.004473   -2.058208   -3.776677
     35          1           0       10.132312    0.165036   -3.923061
     36          1           0       10.399835   -1.532848   -4.315691
     37          1           0       10.041743   -1.061603   -2.654564
 ---------------------------------------------------------------------

 SCF Done:  E(UB3LYP) =  -846.463002005     A.U. after    4 cycles

 Alpha  occ. eigenvalues --  -18.90497 -18.82452 -18.81473 -10.00016  -9.99574
 Alpha  occ. eigenvalues --   -9.98965  -9.97760  -9.97662  -9.97320  -9.96475
 Alpha  occ. eigenvalues --   -9.95728  -9.95528  -9.95074  -9.94671  -9.94538
 Alpha  occ. eigenvalues --   -9.94418  -9.93571  -9.93253  -9.92332  -0.81871
 Alpha  occ. eigenvalues --   -0.73310  -0.72501  -0.62944  -0.62403  -0.58784
 Alpha  occ. eigenvalues --   -0.56332  -0.53160  -0.52161  -0.49618  -0.45562
 Alpha  occ. eigenvalues --   -0.42914  -0.40997  -0.39109  -0.37973  -0.35670
 Alpha  occ. eigenvalues --   -0.33237  -0.30559  -0.30176  -0.27278  -0.26285
 Alpha  occ. eigenvalues --   -0.25913  -0.24347  -0.23733  -0.22824  -0.22124
 Alpha  occ. eigenvalues --   -0.20785  -0.20096  -0.19942  -0.18599  -0.17968
 Alpha  occ. eigenvalues --   -0.17321  -0.16641  -0.15983  -0.15587  -0.14775
 Alpha  occ. eigenvalues --   -0.14435  -0.14167  -0.13565  -0.13465  -0.12017
 Alpha  occ. eigenvalues --   -0.10896  -0.10370  -0.09561  -0.09100  -0.02618
 Alpha  occ. eigenvalues --   -0.01714  -0.00689   0.01207   0.01439   0.10606
 Alpha virt. eigenvalues --    0.11574   0.14453   0.14806   0.15054   0.15460
 Alpha virt. eigenvalues --    0.16601   0.17744   0.18102   0.18203   0.18998
 Alpha virt. eigenvalues --    0.19189   0.19664   0.20418   0.20800   0.21226

  Beta  occ. eigenvalues --  -18.90497 -18.82452 -18.81473 -10.00016  -9.99574
  Beta  occ. eigenvalues --   -9.98965  -9.97760  -9.97662  -9.97320  -9.96475
  Beta  occ. eigenvalues --   -9.95728  -9.95528  -9.95074  -9.94671  -9.94538
  Beta  occ. eigenvalues --   -9.94418  -9.93571  -9.93253  -9.92332  -0.81871
  Beta  occ. eigenvalues --   -0.73310  -0.72501  -0.62944  -0.62403  -0.58784
  Beta  occ. eigenvalues --   -0.56332  -0.53160  -0.52161  -0.49618  -0.45562
  Beta  occ. eigenvalues --   -0.42914  -0.40997  -0.39109  -0.37973  -0.35670
  Beta  occ. eigenvalues --   -0.33237  -0.30559  -0.30176  -0.27278  -0.26285
  Beta  occ. eigenvalues --   -0.25913  -0.24347  -0.23733  -0.22824  -0.22124
  Beta  occ. eigenvalues --   -0.20785  -0.20096  -0.19942  -0.18599  -0.17968
  Beta  occ. eigenvalues --   -0.17321  -0.16641  -0.15983  -0.15587  -0.14775
  Beta  occ. eigenvalues --   -0.14435  -0.14167  -0.13565  -0.13465  -0.12017
  Beta  occ. eigenvalues --   -0.10896  -0.10370  -0.09561  -0.09100  -0.02618
  Beta  occ. eigenvalues --   -0.01714  -0.00689   0.01207   0.01439   0.10606
  Beta virt. eigenvalues --    0.11574   0.14453   0.14806   0.15054   0.15460
  Beta virt. eigenvalues --    0.16601   0.17744   0.18102   0.18203   0.18998
  Beta virt. eigenvalues --    0.19189   0.19664   0.20418   0.20800   0.21226

 Mulliken charges and spin densities:
               1          2
     1  C   -0.028805  -0.000000
     2  C   -0.295537  -0.000000
     3  C   -0.394923  -0.000000
     4  C    0.644829   0.000000
     5  C    0.087067   0.000000
     6  C    0.056607  -0.000000
     7  C   -1.351879  -0.000000
     8  C   -0.657177  -0.000000
     9  C    2.335423   0.000000
    10  C   -1.003095   0.000000
    11  O   -0.553411  -0.000000
    12  O   -0.449281  -0.000000
    13  H    0.135208   0.000000
    14  H    0.086009   0.000000
    15  H    0.083630   0.000000
    16  H    0.139476  -0.000000
    17  O   -0.287339  -0.000000
    18  C   -0.382397  -0.000000
    19  C   -0.583063  -0.000000
    20  C   -0.133312   0.000000
    21  C    0.689191  -0.000000
    22  C   -1.911140   0.000000
    23  C    1.890307  -0.000000
    24  H    0.252239   0.000000
    25  H    0.201935   0.000000
    26  H    0.187660  -0.000000
    27  H    0.163035   0.000000
    28  H    0.094786   0.000000
    29  H    0.071120   0.000000
    30  H    0.072669   0.000000
    31  H    0.149916  -0.000000
    32  H    0.151972  -0.000000
    33  H    0.053514   0.000000
    34  H    0.076723   0.000000
    35  H   -0.234736   0.000000
    36  H   -1.148988   0.000000
    37  H   -0.208234   0.000000
 Sum of Mulliken charges =  -2.00000   0.00000

 Dipole moment (field-independent basis, Debye):
    X=            -36.1120    Y=            -13.3571    Z=             17.8522  Tot=             42.4404
 Quadrupole moment (field-independent basis, Debye-Ang):
   XX=           -435.4809   YY=           -209.0575   ZZ=           -207.6717
   XY=             22.8646   XZ=            126.8868   YZ=             12.9020

  Exact polarizability:2404.169-743.715 913.964-691.393 305.635 869.957
 Approx polarizability:****************4734.287********3325.8063468.397

                      1                      2                      3
                      A                      A                      A
 Frequencies --     15.0211                32.1271                45.3094
 Red. masses --      4.7266                 5.1738                 1.5887
 Frc consts  --      0.0006                 0.0031                 0.0019
 IR Inten    --      0.6303                 0.7528                 0.3725

                      4                      5                      6
                      A                      A                      A
 Frequencies --     67.4034                85.4982               111.4790
 Red. masses --      3.0424                 5.3115                 5.1596
 Frc consts  --      0.0081                 0.0229                 0.0378
 IR Inten    --      8.4210                 9.7052                 0.3484

                      7                      8                      9
                      A                      A                      A
 Frequencies --    127.7311               139.6027               147.2771
 Red. masses --      1.6777                 4.3897                 2.2151
 Frc consts  --      0.0161                 0.0504                 0.0283
 IR Inten    --      1.1861                 0.4157                 1.4943

                     10                     11                     12
                      A                      A                      A
 Frequencies --    162.1468               189.9707               233.8382
 Red. masses --      6.5437                 6.9923                 3.6708
 Frc consts  --      0.1014                 0.1487                 0.1183
 IR Inten    --      1.3117                 4.2091                 2.8745

                     13                     14                     15
                      A                      A                      A
 Frequencies --    251.5511               263.1621               295.0231
 Red. masses --      4.2848                 1.1283                 2.8016
 Frc consts  --      0.1597                 0.0460                 0.1437
 IR Inten    --      1.8697                19.1036                 4.3311

                     16                     17                     18
                      A                      A                      A
 Frequencies --    317.0842               341.3374               367.5043
 Red. masses --      4.5783                 5.8186                 9.6982
 Frc consts  --      0.2712                 0.3994                 0.7717
 IR Inten    --      1.0845                14.4354                 0.8532

                     19                     20                     21
                      A                      A                      A
 Frequencies --    379.0144               408.5329               429.5360
 Red. masses --      5.4632                 4.3953                 3.8120
 Frc consts  --      0.4624                 0.4322                 0.4144
 IR Inten    --      0.9515                79.9569                 6.5730

                     22                     23                     24
                      A                      A                      A
 Frequencies --    433.1799               461.2718               483.5915
 Red. masses --      8.3826                 3.3999                 6.0497
 Frc consts  --      0.9268                 0.4262                 0.8336
 IR Inten    --    109.8143                76.9301               413.6712

                     25                     26                     27
                      A                      A                      A
 Frequencies --    525.7813               559.4431               641.1271
 Red. masses --      6.0389                 5.9474                 6.1669
 Frc consts  --      0.9836                 1.0967                 1.4935
 IR Inten    --    135.7780                 7.1354                 4.7333

                     28                     29                     30
                      A                      A                      A
 Frequencies --    670.5035               692.0312               695.4836
 Red. masses --      5.5621                 2.1512                 3.3328
 Frc consts  --      1.4733                 0.6070                 0.9498
 IR Inten    --      5.4565                47.1823                 8.6131

                     31                     32                     33
                      A                      A                      A
 Frequencies --    703.0043               726.4543               736.3102
 Red. masses --      4.1921                 1.0784                 2.6986
 Frc consts  --      1.2207                 0.3353                 0.8620
 IR Inten    --     11.3606                 0.7229                29.6383

                     34                     35                     36
                      A                      A                      A
 Frequencies --    739.6373               770.0371               777.7235
 Red. masses --      1.2591                 3.3085                 1.1943
 Frc consts  --      0.4058                 1.1559                 0.4256
 IR Inten    --      4.2765                 9.2411                45.8026

                     37                     38                     39
                      A                      A                      A
 Frequencies --    784.3738               805.7712               855.7265
 Red. masses --      1.3700                 1.5097                 1.8723
 Frc consts  --      0.4966                 0.5775                 0.8078
 IR Inten    --      7.5492                 0.1292                 9.3192

                     40                     41                     42
                      A                      A                      A
 Frequencies --    883.0389               910.8385               939.9712
 Red. masses --      1.9591                 1.8489                 5.8821
 Frc consts  --      0.9001                 0.9038                 3.0620
 IR Inten    --     16.4234                38.1881               100.2244

                     43                     44                     45
                      A                      A                      A
 Frequencies --    942.1228               958.4052               990.6886
 Red. masses --      1.2577                 1.3205                 1.7994
 Frc consts  --      0.6577                 0.7146                 1.0405
 IR Inten    --      1.1921                 1.8856                24.5627

                     46                     47                     48
                      A                      A                      A
 Frequencies --    998.5304              1016.6212              1020.5010
 Red. masses --      2.4696                 3.1247                 2.1222
 Frc consts  --      1.4508                 1.9027                 1.3022
 IR Inten    --     40.4639                 7.5080               282.5238

                     49                     50                     51
                      A                      A                      A
 Frequencies --   1040.2556              1050.7635              1057.9548
 Red. masses --      2.8491                 2.5740                 2.3154
 Frc consts  --      1.8165                 1.6744                 1.5269
 IR Inten    --     16.9171               100.2306                35.0435

                     52                     53                     54
                      A                      A                      A
 Frequencies --   1096.4765              1122.7866              1128.0155
 Red. masses --      2.0765                 2.4202                 2.0756
 Frc consts  --      1.4709                 1.7976                 1.5560
 IR Inten    --     53.2966                18.3044                69.1065

                     55                     56                     57
                      A                      A                      A
 Frequencies --   1133.6099              1181.3979              1189.6740
 Red. masses --      1.3389                 3.4487                 2.0025
 Frc consts  --      1.0138                 2.8359                 1.6698
 IR Inten    --    117.9390               163.5981               252.8786

                     58                     59                     60
                      A                      A                      A
 Frequencies --   1216.8742              1240.5418              1242.1172
 Red. masses --      1.6582                 2.5300                 1.2794
 Frc consts  --      1.4467                 2.2940                 1.1630
 IR Inten    --     32.7331                94.0099                 8.5848

                     61                     62                     63
                      A                      A                      A
 Frequencies --   1274.6279              1286.6320              1306.0264
 Red. masses --      1.6553                 1.7296                 1.4128
 Frc consts  --      1.5845                 1.6870                 1.4199
 IR Inten    --     31.8631                91.7689                 3.1254

                     64                     65                     66
                      A                      A                      A
 Frequencies --   1318.5469              1321.7365              1330.2439
 Red. masses --      1.1035                 1.1342                 1.2645
 Frc consts  --      1.1304                 1.1675                 1.3184
 IR Inten    --    147.1639                16.2523               387.3591

                     67                     68                     69
                      A                      A                      A
 Frequencies --   1336.9726              1350.5141              1363.4373
 Red. masses --      3.8076                 1.4949                 1.9040
 Frc consts  --      4.0100                 1.6065                 2.0854
 IR Inten    --    569.4078               205.4365               517.5303

                     70                     71                     72
                      A                      A                      A
 Frequencies --   1371.3299              1382.9534              1400.5232
 Red. masses --      1.4980                 1.5869                 1.2586
 Frc consts  --      1.6598                 1.7882                 1.4545
 IR Inten    --     19.0397               180.7936               493.0595

                     73                     74                     75
                      A                      A                      A
 Frequencies --   1424.3612              1435.2885              1444.8369
 Red. masses --      3.9354                 2.6504                 2.7117
 Frc consts  --      4.7041                 3.2169                 3.3352
 IR Inten    --   2489.2470               946.3552                69.5362

                     76                     77                     78
                      A                      A                      A
 Frequencies --   1467.5899              1480.1552              1482.2116
 Red. masses --      1.4449                 1.1103                 1.0535
 Frc consts  --      1.8336                 1.4332                 1.3636
 IR Inten    --    499.9601                27.5881               303.8474

                     79                     80                     81
                      A                      A                      A
 Frequencies --   1482.5457              1487.7681              1490.2326
 Red. masses --      1.0839                 2.8130                 1.0983
 Frc consts  --      1.4036                 3.6685                 1.4371
 IR Inten    --    147.9807               650.9307                14.0360

                     82                     83                     84
                      A                      A                      A
 Frequencies --   1499.2907              1509.0119              1513.0923
 Red. masses --      1.0852                 1.1019                 4.4082
 Frc consts  --      1.4372                 1.4784                 5.9462
 IR Inten    --    111.2678                48.8060               754.6211

                     85                     86                     87
                      A                      A                      A
 Frequencies --   1545.3209              1590.7277              1604.7330
 Red. masses --      4.1162                 4.8832                 4.9255
 Frc consts  --      5.7914                 7.2802                 7.4731
 IR Inten    --   1464.9414                40.5344              2857.3647

                     88                     89                     90
                      A                      A                      A
 Frequencies --   2974.6683              2985.0586              2990.0801
 Red. masses --      1.0589                 1.0508                 1.0446
 Frc consts  --      5.5205                 5.5168                 5.5028
 IR Inten    --      6.5034                15.4379                10.1193

                     91                     92                     93
                      A                      A                      A
 Frequencies --   2993.9324              2995.1835              2996.1264
 Red. masses --      1.0697                 1.0566                 1.0841
 Frc consts  --      5.6496                 5.5848                 5.7336
 IR Inten    --     27.9541               106.8514                21.4330

                     94                     95                     96
                      A                      A                      A
 Frequencies --   3005.6657              3010.9709              3029.2812
 Red. masses --      1.0970                 1.0676                 1.1004
 Frc consts  --      5.8391                 5.7026                 5.9496
 IR Inten    --      8.8582                50.3748                22.6894

                     97                     98                     99
                      A                      A                      A
 Frequencies --   3034.0944              3047.3461              3054.0147
 Red. masses --      1.1025                 1.1003                 1.1024
 Frc consts  --      5.9798                 6.0200                 6.0582
 IR Inten    --      2.7869                64.3291                 6.7587

                    100                    101                    102
                      A                      A                      A
 Frequencies --   3059.1262              3099.9720              3123.9717
 Red. masses --      1.1056                 1.0831                 1.0901
 Frc consts  --      6.0957                 6.1322                 6.2681
 IR Inten    --     52.3409                65.5857               263.1967

                    103                    104                    105
                      A                      A                      A
 Frequencies --   3159.0850              3161.7465              3362.2815
 Red. masses --      1.0905                 1.0919                 1.0636
 Frc consts  --      6.4120                 6.4313                 7.0845
 IR Inten    --     29.8647               243.9882                55.3826

 - Thermochemistry -
 -------------------
 Temperature   298.150 Kelvin.  Pressure   1.00000 Atm.
 Atom     1 has atomic number  6 and mass  12.00000

 Molecular mass:   258.12559 amu.
 Principal axes and moments of inertia in atomic units:
                           1         2         3
     Eigenvalues --  2301.32613********************
           X            0.82299   0.06456   0.56437
           Y           -0.38984  -0.65844   0.64381
           Z           -0.41317   0.74986   0.51672
 This molecule is an asymmetric top.
 Rotational symmetry number  1.
 Warning -- assumption of classical behavior for rotation
           may cause significant error
 Rotational temperatures (Kelvin)      0.03764     0.00718     0.00635
 Rotational constants (GHZ):           0.78422     0.14966     0.13230
 Zero-point vibrational energy     792024.2 (Joules/Mol)
                                  189.29832 (Kcal/Mol)
 Warning -- explicit consideration of  26 degrees of freedom as
           vibrations may cause significant error
 Vibrational temperatures:     21.61    46.22    65.19    96.98   123.01
          (Kelvin)            160.39   183.78   200.86   211.90   233.29
                              273.33   336.44   361.93   378.63   424.47
                              456.21   491.11   528.76   545.32   587.79
                              618.01   623.25   663.67   695.78   756.48
                              804.91   922.44   964.70   995.68  1000.65
                             1011.47  1045.21  1059.39  1064.17  1107.91
                             1118.97  1128.54  1159.33  1231.20  1270.50
                             1310.49  1352.41  1355.50  1378.93  1425.38
                             1436.66  1462.69  1468.27  1496.70  1511.81
                             1522.16  1577.59  1615.44  1622.96  1631.01
                             1699.77  1711.68  1750.81  1784.86  1787.13
                             1833.91  1851.18  1879.08  1897.09  1901.68
                             1913.92  1923.61  1943.09  1961.68  1973.04
                             1989.76  2015.04  2049.34  2065.06  2078.80
                             2111.53  2129.61  2132.57  2133.05  2140.57
                             2144.11  2157.14  2171.13  2177.00  2223.37
                             2288.70  2308.85  4279.88  4294.83  4302.06
                             4307.60  4309.40  4310.76  4324.48  4332.12
                             4358.46  4365.39  4384.45  4394.05  4401.40
                             4460.17  4494.70  4545.22  4549.05  4837.57

 Zero-point correction=                           0.301666 (Hartree/Particle)
 Thermal correction to Energy=                    0.319812
 Thermal correction to Enthalpy=                  0.320756
 Thermal correction to Gibbs Free Energy=         0.253573
 Sum of electronic and zero-point Energies=           -846.161336
 Sum of electronic and thermal Energies=              -846.143190
 Sum of electronic and thermal Enthalpies=            -846.142246
 Sum of electronic and thermal Free Energies=         -846.209429

                     E (Thermal)             CV                S
                      KCal/Mol        Cal/Mol-Kelvin    Cal/Mol-Kelvin
 Total                  200.685             69.179            141.397
 Electronic               0.000              0.000              0.000
 Translational            0.889              2.981             42.545
 Rotational               0.889              2.981             34.292
 Vibrational            198.907             63.217             64.561
 Vibration     1          0.593              1.986              7.203
 Vibration     2          0.594              1.983              5.694
 Vibration     3          0.595              1.979              5.012
 Vibration     4          0.598              1.970              4.228
 Vibration     5          0.601              1.959              3.761
 Vibration     6          0.607              1.940              3.243
 Vibration     7          0.611              1.925              2.980
 Vibration     8          0.615              1.914              2.809
 Vibration     9          0.617              1.906              2.707
 Vibration    10          0.622              1.889              2.525
 Vibration    11          0.633              1.854              2.228
 Vibration    12          0.654              1.789              1.849
 Vibration    13          0.664              1.760              1.720
 Vibration    14          0.670              1.740              1.641
 Vibration    15          0.689              1.683              1.445
 Vibration    16          0.704              1.641              1.325
 Vibration    17          0.721              1.593              1.206
 Vibration    18          0.740              1.539              1.090
 Vibration    19          0.749              1.515              1.043
 Vibration    20          0.773              1.452              0.932
 Vibration    21          0.791              1.406              0.860
 Vibration    22          0.794              1.398              0.848
 Vibration    23          0.819              1.336              0.762
 Vibration    24          0.840              1.286              0.700
 Vibration    25          0.881              1.193              0.597
 Vibration    26          0.915              1.119              0.525

 Optimization completed.
    -- Stationary point found.
 Normal termination of Gaussian 16 at Mon Jan  8 04:32:55 2024.
