 Q-Chem 5.4, Q-Chem, Inc., Pleasanton, CA (2021)
 Q-Chem 5.4.0 for Intel X86 EM64T Linux

User input:
--------------------------------------------------------------
$molecule
-2 1
C                 -0.0511530000      3.8828000000      0.1922980000
C                 -0.5180940000      3.4691480000      1.4243550000
C                 -0.1215370000      2.2119470000      1.9472410000
C                  0.8267040000      3.0776640000     -0.5793270000
C                  1.2331600000      1.7971870000     -0.0463070000
C                  0.7372500000      1.4085060000      1.2122150000
C                  1.3002570000      3.5163410000     -1.8566290000
C                  2.1770350000      2.6168020000     -2.5366420000
C                  2.5897360000      1.3737130000     -2.0625580000
C                  2.1388080000      0.9041240000     -0.7784390000
O                  1.0042510000      4.6404160000     -2.4426960000
O                  2.4956010000     -0.2262490000     -0.3027440000
H                 -0.3421490000      4.8408920000     -0.2270950000
H                 -1.1903300000      4.1076830000      1.9947200000
H                 -0.4871350000      1.8829400000      2.9174210000
H                  1.0616370000      0.4417960000      1.5850000000
O                  2.5906440000      3.0971650000     -3.7594490000
C                  3.5007460000      0.4924010000     -2.8794140000
C                  5.0029330000      0.6748220000     -2.5730970000
C                  5.9039390000     -0.2521730000     -3.3994320000
C                  7.4064040000     -0.0873930000     -3.1293930000
C                  8.2949980000     -1.0167560000     -3.9672220000
C                  9.7957470000     -0.8546230000     -3.7024780000
H                  2.1130310000      3.9635860000     -3.7673520000
H                  3.3369710000      0.6830070000     -3.9470260000
H                  3.2366990000     -0.5502880000     -2.6678630000
H                  5.1604810000      0.4887240000     -1.5050190000
H                  5.2806310000      1.7189730000     -2.7622570000
H                  5.7138000000     -0.0796940000     -4.4686360000
H                  5.6177300000     -1.2952630000     -3.2057660000
H                  7.6034960000     -0.2647230000     -2.0638990000
H                  7.6960070000      0.9546350000     -3.3199570000
H                  8.0949410000     -0.8405360000     -5.0323590000
H                  8.0044730000     -2.0582080000     -3.7766770000
H                 10.1323120000      0.1650360000     -3.9230610000
H                 10.3998350000     -1.5328480000     -4.3156910000
H                 10.0417430000     -1.0616030000     -2.6545640000
$end
$rem
MAX_SCF_CYCLES=200
BASIS  =  6-311++G(d,p)
GUI  =  2
JOB_TYPE  =  SP
THRESH = 14
SCF_CONVERGENCE = 6
METHOD  =  B3LYP
SOLVENT_METHOD = COSMO
$end
$solvent
dielectric 37.219
opticaldielectric 1.43
$end

--------------------------------------------------------------

             Standard Nuclear Orientation (Angstroms)
    I     Atom           X                Y                Z
 ----------------------------------------------------------------
    1      C       4.3573661937    -0.3654644475     0.6573875190
    2      C       5.0897346296     0.8010471207     0.7573553185
    3      C       4.4910245522     2.0443141791     0.4301629556
    4      C       3.0036002384    -0.3598877189     0.2312787653
    5      C       2.3918831575     0.9069165475    -0.1003042729
    6      C       3.1687188875     2.0750435104     0.0131986765
    7      C       2.2568361714    -1.5763960881     0.1281227220
    8      C       0.9051253756    -1.4401503856    -0.3130606720
    9      C       0.2784652256    -0.2417670118    -0.6470103120
   10      C       0.9974017218     1.0016527670    -0.5477678599
   11      O       2.6950191987    -2.7732969670     0.3928161423
   12      O       0.4611808083     2.1237036255    -0.8389707101
   13      H       4.7957715760    -1.3279189610     0.9023190833
   14      H       6.1264713212     0.7669403410     1.0874434569
   15      H       5.0647297187     2.9651681765     0.5079256296
   16      H       2.6802369117     3.0103206449    -0.2424687776
   17      O       0.2463969064    -2.6469921581    -0.3948391296
   18      C      -1.1507839113    -0.2181948467    -1.1272134397
   19      C      -2.1929469256    -0.0022113582    -0.0087677803
   20      C      -3.6355454391     0.0433770795    -0.5291448528
   21      C      -4.6997139972     0.2435660277     0.5594065935
   22      C      -6.1377267319     0.2811769310     0.0246383160
   23      C      -7.2036862829     0.4789857463     1.1077938747
   24      H       0.9727019352    -3.2523559768    -0.1035014620
   25      H      -1.3816086408    -1.1587997930    -1.6419274960
   26      H      -1.2497712141     0.6043467117    -1.8450587525
   27      H      -1.9550479795     0.9353662026     0.5056220146
   28      H      -2.0954298933    -0.8078841226     0.7291555359
   29      H      -3.8523028765    -0.8884121699    -1.0712555853
   30      H      -3.7237756477     0.8511615261    -1.2688465341
   31      H      -4.4920986247     1.1762122332     1.1003645972
   32      H      -4.6134168444    -0.5609506573     1.3019108652
   33      H      -6.3431795224    -0.6506807038    -0.5185224518
   34      H      -6.2230481229     1.0852388250    -0.7180185172
   35      H      -7.1771528962    -0.3302758441     1.8467316211
   36      H      -8.2172383420     0.5020036234     0.6917120961
   37      H      -7.0551333571     1.4211556249     1.6479109471
 ----------------------------------------------------------------

  123    -846.4628610222      9.63e-07  Convergence criterion met
 Total energy in the final basis set =     -846.4628610222
    8    -846.7269480426      3.01e-07  Convergence criterion met
 Total energy in the final basis set =     -846.7269480426

                    Orbital Energies (a.u.)
 --------------------------------------------------------------

 Alpha MOs
 -- Occupied --
-19.1134 -19.0310 -19.0219 -10.1779 -10.1754 -10.1639 -10.1552 -10.1516
-10.1494 -10.1491 -10.1485 -10.1452 -10.1448 -10.1444 -10.1439 -10.1398
-10.1379 -10.1336 -10.1250  -1.0277  -0.9441  -0.9356  -0.8249  -0.7955
 -0.7745  -0.7498  -0.7224  -0.7168  -0.6813  -0.6422  -0.6203  -0.5870
 -0.5771  -0.5648  -0.5528  -0.5354  -0.5034  -0.4722  -0.4675  -0.4499
 -0.4353  -0.4270  -0.4205  -0.4174  -0.4049  -0.4001  -0.3918  -0.3848
 -0.3768  -0.3664  -0.3646  -0.3597  -0.3522  -0.3494  -0.3362  -0.3325
 -0.3253  -0.3174  -0.3144  -0.3107  -0.3093  -0.3049  -0.2997  -0.2948
 -0.2313  -0.2276  -0.2198  -0.2002  -0.1934  -0.1111

          Ground-State Mulliken Net Atomic Charges

     Atom                 Charge (a.u.)
  ----------------------------------------
      1 C                    -0.050986
      2 C                    -0.403807
      3 C                    -0.521219
      4 C                     0.408926
      5 C                    -0.093549
      6 C                     0.031993
      7 C                    -0.900858
      8 C                    -0.663149
      9 C                     1.987621
     10 C                    -0.725735
     11 O                    -0.773585
     12 O                    -0.680586
     13 H                     0.156177
     14 H                     0.177230
     15 H                     0.171250
     16 H                     0.153387
     17 O                    -0.354650
     18 C                    -0.289764
     19 C                    -0.543030
     20 C                    -0.111369
     21 C                    -0.238608
     22 C                    -0.203615
     23 C                    -0.707771
     24 H                     0.292871
     25 H                     0.197704
     26 H                     0.172458
     27 H                     0.174519
     28 H                     0.154652
     29 H                     0.109814
     30 H                     0.112963
     31 H                     0.123040
     32 H                     0.124633
     33 H                     0.135971
     34 H                     0.136555
     35 H                     0.145973
     36 H                     0.148492
     37 H                     0.146052
  ----------------------------------------
  Sum of atomic charges =    -2.000000

                    Cartesian Multipole Moments
 -----------------------------------------------------------------
    Charge (ESU x 10^10)
                -9.6064
    Dipole Moment (Debye)
         X     -16.1432      Y       2.5018      Z       1.8166
       Tot      16.4367
    Quadrupole Moments (Debye-Ang)
        XX    -174.8884     XY      15.9564     YY    -170.4545
        XZ      -3.0641     YZ       7.6987     ZZ    -131.2867

 Total job time:  1281.40s(wall), 10166.51s(cpu)
        *  Thank you very much for using Q-Chem.  Have a nice day.  *
