 Q-Chem 5.4, Q-Chem, Inc., Pleasanton, CA (2021)
 Q-Chem 5.4.0 for Intel X86 EM64T Linux

User input:
--------------------------------------------------------------
$molecule
-1 2
C                  2.5476690000     -0.8948720000     -0.1357460000
C                  1.2523190000     -0.1420010000      0.0041050000
C                  1.1947500000      1.1902920000      0.3192760000
Cl                 2.7015500000      2.0915060000      0.5791010000
C                 -0.0237870000      1.9739580000      0.4689160000
O                 -0.0384510000      3.1876990000      0.7572660000
C                 -1.2232920000      1.1791010000      0.2435500000
C                 -1.2487430000     -0.1535410000     -0.0743290000
C                 -2.5258170000     -0.9181930000     -0.2950120000
C                  0.0106520000     -0.8825090000     -0.2095910000
O                  0.0254870000     -2.1113490000     -0.5014140000
Cl                -2.7516750000      2.0662370000      0.4085080000
H                  3.1274730000     -0.8646030000      0.7929350000
H                  2.3287750000     -1.9316970000     -0.3894330000
H                  3.1797010000     -0.4574280000     -0.9159330000
H                 -3.1628140000     -0.8939240000      0.5956030000
H                 -3.1118510000     -0.4859150000     -1.1130730000
H                 -2.2819470000     -1.9527600000     -0.5347290000
$end

$rem
BASIS  =  6-311++G(d,p)
GUI  =  2
JOB_TYPE  =  SP
METHOD  =  B3LYP
SCF_CONVERGENCE  = 8
SOLVENT_METHOD = sm12
$end

$smx
solvent dimethylformamide
charges CM5
$end

--------------------------------------------------------------

             Standard Nuclear Orientation (Angstroms)
    I     Atom           X                Y                Z
 ----------------------------------------------------------------
    1      C       2.5476690000    -0.8948720000    -0.1357460000
    2      C       1.2523190000    -0.1420010000     0.0041050000
    3      C       1.1947500000     1.1902920000     0.3192760000
    4      Cl      2.7015500000     2.0915060000     0.5791010000
    5      C      -0.0237870000     1.9739580000     0.4689160000
    6      O      -0.0384510000     3.1876990000     0.7572660000
    7      C      -1.2232920000     1.1791010000     0.2435500000
    8      C      -1.2487430000    -0.1535410000    -0.0743290000
    9      C      -2.5258170000    -0.9181930000    -0.2950120000
   10      C       0.0106520000    -0.8825090000    -0.2095910000
   11      O       0.0254870000    -2.1113490000    -0.5014140000
   12      Cl     -2.7516750000     2.0662370000     0.4085080000
   13      H       3.1274730000    -0.8646030000     0.7929350000
   14      H       2.3287750000    -1.9316970000    -0.3894330000
   15      H       3.1797010000    -0.4574280000    -0.9159330000
   16      H      -3.1628140000    -0.8939240000     0.5956030000
   17      H      -3.1118510000    -0.4859150000    -1.1130730000
   18      H      -2.2819470000    -1.9527600000    -0.5347290000
 ----------------------------------------------------------------

   17   -1379.5529643121      6.61e-09  Convergence criterion met
 Total energy in the final basis set =    -1379.6285916128

                    Orbital Energies (a.u.)
 --------------------------------------------------------------

 Alpha MOs
 -- Occupied --
********-101.5454 -19.0822 -19.0806 -10.2359 -10.2294 -10.2237 -10.2237
-10.1861 -10.1861 -10.1668 -10.1668  -9.4593  -9.4593  -7.2237  -7.2237
 -7.2148  -7.2148  -7.2137  -7.2137  -1.0116  -1.0058  -0.8760  -0.8642
 -0.8034  -0.7721  -0.7292  -0.6704  -0.6610  -0.5687  -0.5664  -0.5146
 -0.4644  -0.4468  -0.4323  -0.4205  -0.4179  -0.4164  -0.4067  -0.4014
 -0.3938  -0.3745  -0.3685  -0.3613  -0.3470  -0.3279  -0.3098  -0.3023
 -0.2739  -0.2522  -0.2435  -0.2426  -0.1657

 Beta MOs
 -- Occupied --
********-101.5454 -19.0748 -19.0736 -10.2349 -10.2281 -10.2227 -10.2226
-10.1849 -10.1849 -10.1669 -10.1669  -9.4593  -9.4593  -7.2237  -7.2237
 -7.2146  -7.2146  -7.2137  -7.2137  -1.0000  -0.9929  -0.8724  -0.8631
 -0.8000  -0.7705  -0.7255  -0.6690  -0.6531  -0.5652  -0.5623  -0.5126
 -0.4610  -0.4379  -0.4286  -0.4189  -0.4157  -0.4154  -0.4007  -0.3931
 -0.3886  -0.3656  -0.3598  -0.3501  -0.3448  -0.3157  -0.3094  -0.3018
 -0.2458  -0.2455  -0.2369  -0.2361

          Ground-State Mulliken Net Atomic Charges

     Atom                 Charge (a.u.)    Spin (a.u.)
  --------------------------------------------------------
      1 C                     0.037388       0.003601
      2 C                     0.194663       0.083877
      3 C                     0.253846       0.063569
      4 Cl                    0.656305       0.005267
      5 C                    -1.645102       0.067570
      6 O                    -0.288602       0.254818
      7 C                     0.255869       0.063576
      8 C                     0.194228       0.083798
      9 C                     0.039087       0.003617
     10 C                    -2.141300       0.082661
     11 O                    -0.331998       0.270981
     12 Cl                    0.655947       0.005266
     13 H                     0.193000       0.003965
     14 H                     0.173803      -0.002221
     15 H                     0.192943       0.003959
     16 H                     0.192984       0.003960
     17 H                     0.193040       0.003957
     18 H                     0.173901      -0.002222
  --------------------------------------------------------
  Sum of atomic charges =    -1.000000

                    Cartesian Multipole Moments
 -----------------------------------------------------------------
    Charge (ESU x 10^10)
                -4.8032
    Dipole Moment (Debye)
         X       0.0587      Y      -4.9334      Z      -1.1718
       Tot       5.0710
    Quadrupole Moments (Debye-Ang)
        XX     -97.4021     XY       0.4214     YY    -126.0217
        XZ      -0.2090     YZ      -9.2371     ZZ     -89.3494

 Total job time:  253.44s(wall), 1804.82s(cpu)
        *  Thank you very much for using Q-Chem.  Have a nice day.  *
