 Gaussian 16, Revision A.03,
 Gaussian 16:  ES64L-G16RevA.03 25-Dec-2016

 ----------------------------------------------------------------
 #P UB3LYP/6-311++G(d,p) SCRF=(PCM,Solvent=n,n-DiMethylFormamide)
 ----------------------------------------------------------------

 ------------------
 Quinone PCM in DMF
 ------------------
 Symbolic Z-matrix:
 Charge =  0 Multiplicity = 1

                         Standard orientation:
 ---------------------------------------------------------------------
 Center     Atomic      Atomic             Coordinates (Angstroms)
 Number     Number       Type             X           Y           Z
 ---------------------------------------------------------------------
      1          6           0        3.920331   -1.085616   -0.003537
      2          6           0        4.290713   -2.422907   -0.000398
      3          6           0        3.310895   -3.422722    0.005636
      4          6           0        2.565120   -0.730178   -0.000739
      5          6           0        1.584174   -1.731164    0.005305
      6          6           0        1.966517   -3.079166    0.008533
      7          6           0        2.189641    0.704765   -0.003544
      8          6           0        0.142790   -1.384050    0.006970
      9          6           0        0.768707    1.057651   -0.001117
     10          6           0       -0.238899    0.029760    0.000684
     11          6           0        0.391301    2.430546   -0.000348
     12          6           0       -0.997994    2.737163    0.006081
     13          6           0       -1.954414    1.760942    0.007222
     14          6           0       -1.618612    0.378868    0.000613
     15          8           0        3.093499    1.559188   -0.007350
     16          8           0       -0.694249   -2.304729    0.014292
     17          1           0        4.659504   -0.294765   -0.008154
     18          1           0        5.340731   -2.693445   -0.002749
     19          1           0        3.602460   -4.467084    0.007846
     20          1           0        1.190790   -3.834187    0.012756
     21          1           0       -2.996386    2.052659    0.012389
     22          1           0       -1.311083    3.772933    0.010461
     23          7           0        1.304275    3.437581   -0.003358
     24          6           0        0.981929    4.847854   -0.005584
     25          1           0        2.272933    3.128923   -0.007569
     26          1           0        0.414711    5.145961    0.884558
     27          1           0        0.408413    5.141653   -0.893088
     28          1           0        1.916019    5.409098   -0.010122
     29          7           0       -2.606517   -0.557876   -0.006966
     30          6           0       -4.026381   -0.273260    0.025869
     31          6           0       -4.821231   -1.576735   -0.076748
     32          8           0       -6.223671   -1.339557   -0.065222
     33          1           0       -2.268238   -1.519137    0.012841
     34          1           0       -4.322181    0.376581   -0.806246
     35          1           0       -4.303587    0.244643    0.957186
     36          1           0       -4.526788   -2.261750    0.728867
     37          1           0       -4.606755   -2.068445   -1.027541
     38          1           0       -6.487004   -1.061296    0.817689
 ---------------------------------------------------------------------

 SCF Done:  E(UB3LYP) =  -992.927058480     A.U. after   15 cycles

 The electronic state is 1-A.
 Alpha  occ. eigenvalues --  -19.13861 -19.11417 -19.11331 -14.33925 -14.33816
 Alpha  occ. eigenvalues --  -10.26624 -10.26553 -10.24101 -10.23970 -10.22931
 Alpha  occ. eigenvalues --  -10.21407 -10.20547 -10.19823 -10.19771 -10.19759
 Alpha  occ. eigenvalues --  -10.19688 -10.19675 -10.19604 -10.19183 -10.19132
 Alpha  occ. eigenvalues --  -10.18950 -10.18937  -1.04811  -1.04583  -1.03960
 Alpha  occ. eigenvalues --   -0.95847  -0.95159  -0.88256  -0.85888  -0.80649
 Alpha  occ. eigenvalues --   -0.77967  -0.77063  -0.76740  -0.73585  -0.69702
 Alpha  occ. eigenvalues --   -0.68363  -0.66282  -0.64890  -0.63238  -0.60909
 Alpha  occ. eigenvalues --   -0.59125  -0.55579  -0.55226  -0.53709  -0.52601
 Alpha  occ. eigenvalues --   -0.51492  -0.50149  -0.48559  -0.48477  -0.47979
 Alpha  occ. eigenvalues --   -0.47279  -0.45824  -0.45669  -0.44595  -0.44396
 Alpha  occ. eigenvalues --   -0.44151  -0.43900  -0.42764  -0.42225  -0.41400
 Alpha  occ. eigenvalues --   -0.40528  -0.40337  -0.40197  -0.39029  -0.38244
 Alpha  occ. eigenvalues --   -0.37184  -0.36450  -0.36078  -0.35110  -0.33487
 Alpha  occ. eigenvalues --   -0.29783  -0.28589  -0.27717  -0.27545  -0.27188
 Alpha  occ. eigenvalues --   -0.26453  -0.26416  -0.19557
 Alpha virt. eigenvalues --   -0.10897  -0.05877  -0.03262  -0.01039  -0.00408
 Alpha virt. eigenvalues --   -0.00336  -0.00076   0.00999   0.01242   0.01704
 Alpha virt. eigenvalues --    0.02048   0.02805   0.03453   0.03639   0.03699

  Beta  occ. eigenvalues --  -19.13861 -19.11417 -19.11331 -14.33925 -14.33816
  Beta  occ. eigenvalues --  -10.26624 -10.26553 -10.24101 -10.23970 -10.22931
  Beta  occ. eigenvalues --  -10.21407 -10.20547 -10.19823 -10.19771 -10.19759
  Beta  occ. eigenvalues --  -10.19688 -10.19675 -10.19604 -10.19183 -10.19132
  Beta  occ. eigenvalues --  -10.18950 -10.18937  -1.04811  -1.04583  -1.03960
  Beta  occ. eigenvalues --   -0.95847  -0.95159  -0.88256  -0.85888  -0.80649
  Beta  occ. eigenvalues --   -0.77967  -0.77063  -0.76740  -0.73585  -0.69702
  Beta  occ. eigenvalues --   -0.68363  -0.66282  -0.64890  -0.63238  -0.60909
  Beta  occ. eigenvalues --   -0.59125  -0.55579  -0.55226  -0.53709  -0.52601
  Beta  occ. eigenvalues --   -0.51492  -0.50149  -0.48559  -0.48477  -0.47979
  Beta  occ. eigenvalues --   -0.47279  -0.45824  -0.45669  -0.44595  -0.44396
  Beta  occ. eigenvalues --   -0.44151  -0.43900  -0.42764  -0.42225  -0.41400
  Beta  occ. eigenvalues --   -0.40528  -0.40337  -0.40197  -0.39029  -0.38244
  Beta  occ. eigenvalues --   -0.37184  -0.36450  -0.36078  -0.35110  -0.33487
  Beta  occ. eigenvalues --   -0.29783  -0.28589  -0.27717  -0.27545  -0.27188
  Beta  occ. eigenvalues --   -0.26453  -0.26416  -0.19557
  Beta virt. eigenvalues --   -0.10897  -0.05877  -0.03262  -0.01039  -0.00408
  Beta virt. eigenvalues --   -0.00336  -0.00076   0.00999   0.01242   0.01704
  Beta virt. eigenvalues --    0.02048   0.02805   0.03453   0.03639   0.03699

 Mulliken charges and spin densities:
               1          2
     1  C    0.079375   0.000000
     2  C   -0.544459  -0.000000
     3  C   -0.504895  -0.000000
     4  C    0.219406  -0.000000
     5  C    0.217122  -0.000000
     6  C    0.029030   0.000000
     7  C   -0.227681   0.000000
     8  C   -0.205157   0.000000
     9  C    0.230706   0.000000
    10  C    0.228337   0.000000
    11  C   -0.163196  -0.000000
    12  C   -0.053589   0.000000
    13  C   -0.079280  -0.000000
    14  C   -0.531419  -0.000000
    15  O   -0.339566   0.000000
    16  O   -0.321686  -0.000000
    17  H    0.181707  -0.000000
    18  H    0.198969   0.000000
    19  H    0.199115  -0.000000
    20  H    0.172615  -0.000000
    21  H    0.222807  -0.000000
    22  H    0.230689   0.000000
    23  N   -0.290728   0.000000
    24  C   -0.364423  -0.000000
    25  H    0.407193  -0.000000
    26  H    0.168665   0.000000
    27  H    0.169390   0.000000
    28  H    0.169464   0.000000
    29  N   -0.129086   0.000000
    30  C   -0.192590   0.000000
    31  C   -0.324384  -0.000000
    32  O   -0.318646   0.000000
    33  H    0.471456  -0.000000
    34  H    0.172196  -0.000000
    35  H    0.178474  -0.000000
    36  H    0.166663   0.000000
    37  H    0.197854  -0.000000
    38  H    0.279555   0.000000
 Sum of Mulliken charges =  -0.00000  -0.00000

 Dipole moment (field-independent basis, Debye):
    X=             -2.2492    Y=              3.9486    Z=              1.6982  Tot=              4.8512
 Quadrupole moment (field-independent basis, Debye-Ang):
   XX=           -127.0867   YY=           -107.6253   ZZ=           -131.5794
   XY=            -16.1629   XZ=            -11.4060   YZ=             -1.6204

 Normal termination of Gaussian 16 at Sun Jan 14 01:15:47 2024.
