 Gaussian 16, Revision A.03,
 Gaussian 16:  ES64L-G16RevA.03 25-Dec-2016

 ----------------------------------------------------------------
 #P UB3LYP/6-311++G(d,p) SCRF=(PCM,Solvent=n,n-DiMethylFormamide)
 ----------------------------------------------------------------

 ------------------
 Quinone PCM in DMF
 ------------------
 Symbolic Z-matrix:
 Charge =  0 Multiplicity = 1

                         Standard orientation:
 ---------------------------------------------------------------------
 Center     Atomic      Atomic             Coordinates (Angstroms)
 Number     Number       Type             X           Y           Z
 ---------------------------------------------------------------------
      1          6           0       -3.368630   -2.205400   -0.427686
      2          6           0       -4.753272   -2.316885   -0.463497
      3          6           0       -5.555380   -1.187569   -0.272049
      4          6           0       -2.768613   -0.960266   -0.213143
      5          6           0       -3.574665    0.171587   -0.022540
      6          6           0       -4.968465    0.051053   -0.048324
      7          6           0       -1.272284   -0.883149   -0.167157
      8          6           0       -0.656334    0.472800   -0.093141
      9          6           0       -1.468960    1.606396    0.144844
     10          6           0       -2.961126    1.502929    0.218443
     11          6           0        0.740381    0.672185   -0.210530
     12          6           0        1.287913    1.948286   -0.049039
     13          6           0        0.465747    3.036106    0.214112
     14          6           0       -0.911208    2.873522    0.302607
     15          8           0       -0.618045   -1.913313   -0.170810
     16          8           0       -3.648242    2.484725    0.450237
     17          1           0       -5.566850    0.939760    0.109449
     18          1           0       -1.571460    3.709787    0.490238
     19          1           0       -2.730373   -3.069294   -0.563961
     20          8           0        1.514333   -0.404490   -0.522866
     21          1           0        0.907644    4.017842    0.341212
     22          1           0       -6.635344   -1.278792   -0.296637
     23          6           0        2.897872   -0.299153   -0.533273
     24          6           0        3.612751   -0.474701    0.660790
     25          6           0        3.561190   -0.112128   -1.740583
     26          6           0        4.953854   -0.066064   -1.766924
     27          6           0        5.006241   -0.417838    0.622613
     28          6           0        5.674255   -0.210315   -0.582469
     29          8           0        2.973877   -0.631106    1.860578
     30          6           0        2.307805   -1.895213    2.055442
     31          1           0       -5.212316   -3.283514   -0.637880
     32          1           0        2.358404    2.079719   -0.132706
     33          1           0        2.975421   -0.002226   -2.645662
     34          1           0        5.469982    0.082426   -2.707968
     35          1           0        5.548034   -0.539282    1.553275
     36          1           0        6.757294   -0.170569   -0.595780
     37          1           0        1.845322   -1.836333    3.039734
     38          1           0        3.040169   -2.709134    2.044354
     39          1           0        1.544254   -2.064018    1.294244
 ---------------------------------------------------------------------

 SCF Done:  E(UB3LYP) =  -1109.85002992     A.U. after   16 cycles

 The electronic state is 1-A.
 Alpha  occ. eigenvalues --  -19.18453 -19.15345 -19.13200 -19.12741 -10.28440
 Alpha  occ. eigenvalues --  -10.28419 -10.27358 -10.24930 -10.24566 -10.21796
 Alpha  occ. eigenvalues --  -10.21410 -10.21316 -10.20882 -10.20776 -10.20299
 Alpha  occ. eigenvalues --  -10.19926 -10.19914 -10.19855 -10.19801 -10.19707
 Alpha  occ. eigenvalues --  -10.19392 -10.19130 -10.18813 -10.18744 -10.18719
 Alpha  occ. eigenvalues --   -1.11074  -1.06745  -1.06603  -1.06219  -0.89646
 Alpha  occ. eigenvalues --   -0.88497  -0.86998  -0.81470  -0.79293  -0.77863
 Alpha  occ. eigenvalues --   -0.77382  -0.76859  -0.75208  -0.70008  -0.69196
 Alpha  occ. eigenvalues --   -0.67414  -0.65147  -0.64386  -0.62595  -0.60596
 Alpha  occ. eigenvalues --   -0.58668  -0.57184  -0.56417  -0.53609  -0.52093
 Alpha  occ. eigenvalues --   -0.51306  -0.51021  -0.49895  -0.49011  -0.48667
 Alpha  occ. eigenvalues --   -0.47776  -0.47004  -0.46026  -0.45818  -0.45332
 Alpha  occ. eigenvalues --   -0.45178  -0.44904  -0.44540  -0.43916  -0.42640
 Alpha  occ. eigenvalues --   -0.42044  -0.41476  -0.40245  -0.39284  -0.39034
 Alpha  occ. eigenvalues --   -0.38192  -0.38129  -0.37782  -0.36984  -0.36923
 Alpha  occ. eigenvalues --   -0.35991  -0.34672  -0.29913  -0.29202  -0.28820
 Alpha  occ. eigenvalues --   -0.27944  -0.27845  -0.27498  -0.26601  -0.25556
 Alpha  occ. eigenvalues --   -0.25151
 Alpha virt. eigenvalues --   -0.11824  -0.07193  -0.04047  -0.02854  -0.02356
 Alpha virt. eigenvalues --   -0.02281  -0.00749  -0.00162   0.00479   0.00795
 Alpha virt. eigenvalues --    0.01229   0.01660   0.02382   0.02677   0.02982

  Beta  occ. eigenvalues --  -19.18453 -19.15345 -19.13200 -19.12741 -10.28440
  Beta  occ. eigenvalues --  -10.28419 -10.27358 -10.24930 -10.24566 -10.21796
  Beta  occ. eigenvalues --  -10.21410 -10.21316 -10.20882 -10.20776 -10.20299
  Beta  occ. eigenvalues --  -10.19926 -10.19914 -10.19855 -10.19801 -10.19707
  Beta  occ. eigenvalues --  -10.19392 -10.19130 -10.18813 -10.18744 -10.18719
  Beta  occ. eigenvalues --   -1.11074  -1.06745  -1.06603  -1.06219  -0.89646
  Beta  occ. eigenvalues --   -0.88497  -0.86998  -0.81470  -0.79293  -0.77863
  Beta  occ. eigenvalues --   -0.77382  -0.76859  -0.75208  -0.70008  -0.69196
  Beta  occ. eigenvalues --   -0.67414  -0.65147  -0.64386  -0.62595  -0.60596
  Beta  occ. eigenvalues --   -0.58668  -0.57184  -0.56417  -0.53609  -0.52093
  Beta  occ. eigenvalues --   -0.51306  -0.51021  -0.49895  -0.49011  -0.48667
  Beta  occ. eigenvalues --   -0.47776  -0.47004  -0.46026  -0.45818  -0.45332
  Beta  occ. eigenvalues --   -0.45178  -0.44904  -0.44540  -0.43916  -0.42640
  Beta  occ. eigenvalues --   -0.42044  -0.41476  -0.40245  -0.39284  -0.39034
  Beta  occ. eigenvalues --   -0.38192  -0.38129  -0.37782  -0.36984  -0.36923
  Beta  occ. eigenvalues --   -0.35991  -0.34672  -0.29913  -0.29202  -0.28820
  Beta  occ. eigenvalues --   -0.27944  -0.27845  -0.27498  -0.26601  -0.25556
  Beta  occ. eigenvalues --   -0.25151
  Beta virt. eigenvalues --   -0.11824  -0.07193  -0.04047  -0.02854  -0.02356
  Beta virt. eigenvalues --   -0.02281  -0.00749  -0.00162   0.00479   0.00795
  Beta virt. eigenvalues --    0.01229   0.01660   0.02382   0.02677   0.02982

 Mulliken charges and spin densities:
               1          2
     1  C    0.109491  -0.000000
     2  C   -0.392698   0.000000
     3  C   -0.423945   0.000000
     4  C    0.140856   0.000000
     5  C   -0.120199   0.000000
     6  C    0.015932  -0.000000
     7  C   -0.239515  -0.000000
     8  C    0.567012   0.000000
     9  C    0.354835  -0.000000
    10  C   -0.670125  -0.000000
    11  C   -0.107572  -0.000000
    12  C   -0.273188   0.000000
    13  C   -0.249111   0.000000
    14  C    0.005046  -0.000000
    15  O   -0.223614  -0.000000
    16  O   -0.268142  -0.000000
    17  H    0.185354  -0.000000
    18  H    0.178273   0.000000
    19  H    0.174785   0.000000
    20  O    0.066227  -0.000000
    21  H    0.235050  -0.000000
    22  H    0.206406  -0.000000
    23  C   -0.059744   0.000000
    24  C   -0.323435  -0.000000
    25  C    0.159960  -0.000000
    26  C   -0.238596   0.000000
    27  C    0.233441   0.000000
    28  C   -0.393733  -0.000000
    29  O   -0.149259   0.000000
    30  C   -0.252635   0.000000
    31  H    0.209176   0.000000
    32  H    0.217796   0.000000
    33  H    0.196904   0.000000
    34  H    0.211245  -0.000000
    35  H    0.222870   0.000000
    36  H    0.192758  -0.000000
    37  H    0.169661  -0.000000
    38  H    0.144056   0.000000
    39  H    0.188376  -0.000000
 Sum of Mulliken charges =  -0.00000   0.00000

 Dipole moment (field-independent basis, Debye):
    X=              1.5484    Y=             -0.6850    Z=             -1.3724  Tot=              2.1795
 Quadrupole moment (field-independent basis, Debye-Ang):
   XX=           -116.0624   YY=           -141.5770   ZZ=           -142.0838
   XY=             17.9112   XZ=             -0.6151   YZ=             -4.2868

 Normal termination of Gaussian 16 at Sun Jan 14 01:14:40 2024.
