 Gaussian 16, Revision A.03,
 Gaussian 16:  ES64L-G16RevA.03 25-Dec-2016

 --------------------------------------
 #P UB3LYP/6-311++G(d,p) nosym opt freq
 --------------------------------------

 -------
 Reduced
 -------
 Symbolic Z-matrix:
 Charge = -2 Multiplicity = 1

 SCF Done:  E(UB3LYP) =  -1389.24347882     A.U. after   43 cycles
 SCF Done:  E(UB3LYP) =  -1389.27067735     A.U. after   29 cycles
 SCF Done:  E(UB3LYP) =  -1389.27525436     A.U. after   20 cycles
 SCF Done:  E(UB3LYP) =  -1389.27448443     A.U. after   23 cycles
 SCF Done:  E(UB3LYP) =  -1389.27684665     A.U. after   20 cycles
 SCF Done:  E(UB3LYP) =  -1389.27709550     A.U. after   23 cycles
 SCF Done:  E(UB3LYP) =  -1389.27723412     A.U. after   19 cycles
 SCF Done:  E(UB3LYP) =  -1389.27740620     A.U. after   19 cycles
 SCF Done:  E(UB3LYP) =  -1389.27747805     A.U. after   19 cycles
 SCF Done:  E(UB3LYP) =  -1389.27754362     A.U. after   19 cycles
 SCF Done:  E(UB3LYP) =  -1389.27761373     A.U. after   19 cycles
 SCF Done:  E(UB3LYP) =  -1389.27766917     A.U. after   19 cycles
 SCF Done:  E(UB3LYP) =  -1389.27770960     A.U. after   18 cycles
 SCF Done:  E(UB3LYP) =  -1389.27771779     A.U. after   18 cycles
 SCF Done:  E(UB3LYP) =  -1389.27771996     A.U. after   17 cycles
 SCF Done:  E(UB3LYP) =  -1389.27772066     A.U. after   17 cycles
 SCF Done:  E(UB3LYP) =  -1389.27772073     A.U. after   15 cycles
 Optimization completed.
    -- Stationary point found.
 Normal termination of Gaussian 16 at Wed Dec 20 04:35:58 2023.

 ----------------------------------------------------------------------
 #P Geom=AllCheck Guess=TCheck SCRF=Check GenChk UB3LYP/6-311++G(d,p) F
 req
 ----------------------------------------------------------------------

 Structure from the checkpoint file:  "097-an.chk"
 -------
 Reduced
 -------
 Charge = -2 Multiplicity = 1

                          Input orientation:
 ---------------------------------------------------------------------
 Center     Atomic      Atomic             Coordinates (Angstroms)
 Number     Number       Type             X           Y           Z
 ---------------------------------------------------------------------
      1          6           0        1.008028    4.297788    5.342461
      2          6           0        1.229793    4.000806    3.942448
      3          6           0        0.842411    2.835800    3.333340
      4          6           0        0.146298    1.769975    4.016052
      5          6           0       -0.087475    2.047937    5.409064
      6          6           0        0.320213    3.265400    6.050545
      7          8           0        1.448886    5.380088    5.878150
      8          8           0       -0.246648    0.722243    3.393248
      9          1           0        1.748838    4.772644    3.374643
     10          1           0        1.031662    2.669061    2.273941
     11         16           0       -1.117483    0.884323    6.257696
     12          6           0        0.234979    3.499323    7.519317
     13          8           0        0.976740    3.066620    8.375124
     14          8           0       -0.764033    4.382294    7.840466
     15          6           0       -0.830777    4.740953    9.213059
     16          1           0       -1.656800    5.451675    9.297406
     17          1           0        0.101862    5.210044    9.542284
     18          1           0       -1.022474    3.863255    9.838152
     19          6           0       -2.682926    0.847931    5.331374
     20          6           0       -2.839507    0.010944    4.220990
     21          6           0       -3.720539    1.687887    5.743263
     22          6           0       -4.053366    0.020591    3.532581
     23          6           0       -4.928676    1.686475    5.049817
     24          6           0       -5.100011    0.850025    3.940162
     25          8           0       -0.599475   -0.500537    6.244609
     26          8           0       -1.492136    1.444304    7.581746
     27          1           0       -2.004010   -0.598481    3.909373
     28          1           0       -3.563004    2.325615    6.604814
     29          1           0       -4.178377   -0.621371    2.664746
     30          1           0       -5.736414    2.337392    5.373040
     31          1           0       -6.040157    0.852228    3.394848
 ---------------------------------------------------------------------

 SCF Done:  E(UB3LYP) =  -1389.27772073     A.U. after    2 cycles

 Alpha  occ. eigenvalues --  -88.79901 -18.92416 -18.86466 -18.86212 -18.86176
 Alpha  occ. eigenvalues --  -18.79727 -18.77904 -10.05612 -10.00924  -9.98795
 Alpha  occ. eigenvalues --   -9.98491  -9.98431  -9.98292  -9.97876  -9.97026
 Alpha  occ. eigenvalues --   -9.96324  -9.94942  -9.93571  -9.91352  -9.91326
 Alpha  occ. eigenvalues --   -9.91165  -7.86193  -5.82496  -5.82396  -5.82260
 Alpha  occ. eigenvalues --   -0.86278  -0.85147  -0.77337  -0.74642  -0.71730
 Alpha  occ. eigenvalues --   -0.69746  -0.66121  -0.57110  -0.55909  -0.55198
 Alpha  occ. eigenvalues --   -0.51930  -0.50076  -0.45667  -0.42348  -0.41079
 Alpha  occ. eigenvalues --   -0.38981  -0.36609  -0.33813  -0.32190  -0.30821
 Alpha  occ. eigenvalues --   -0.26506  -0.26139  -0.25743  -0.25047  -0.24393
 Alpha  occ. eigenvalues --   -0.23711  -0.23268  -0.22965  -0.21684  -0.20433
 Alpha  occ. eigenvalues --   -0.19811  -0.18364  -0.17414  -0.17237  -0.15157
 Alpha  occ. eigenvalues --   -0.14935  -0.13716  -0.13153  -0.12582  -0.11585
 Alpha  occ. eigenvalues --   -0.10478  -0.08994  -0.08489  -0.07394  -0.06688
 Alpha  occ. eigenvalues --   -0.06532  -0.05718  -0.05337  -0.04475  -0.03875
 Alpha  occ. eigenvalues --   -0.00045   0.00250   0.02813   0.04231   0.10574
 Alpha virt. eigenvalues --    0.13679   0.15486   0.15974   0.16950   0.17375
 Alpha virt. eigenvalues --    0.18253   0.18369   0.19482   0.20164   0.20421
 Alpha virt. eigenvalues --    0.21232   0.21857   0.22378   0.22717   0.24323

  Beta  occ. eigenvalues --  -88.79901 -18.92416 -18.86466 -18.86212 -18.86176
  Beta  occ. eigenvalues --  -18.79727 -18.77904 -10.05612 -10.00924  -9.98795
  Beta  occ. eigenvalues --   -9.98491  -9.98431  -9.98292  -9.97876  -9.97026
  Beta  occ. eigenvalues --   -9.96324  -9.94942  -9.93571  -9.91352  -9.91326
  Beta  occ. eigenvalues --   -9.91165  -7.86193  -5.82496  -5.82396  -5.82260
  Beta  occ. eigenvalues --   -0.86278  -0.85147  -0.77337  -0.74642  -0.71730
  Beta  occ. eigenvalues --   -0.69746  -0.66121  -0.57110  -0.55909  -0.55198
  Beta  occ. eigenvalues --   -0.51930  -0.50076  -0.45667  -0.42348  -0.41079
  Beta  occ. eigenvalues --   -0.38981  -0.36609  -0.33813  -0.32190  -0.30821
  Beta  occ. eigenvalues --   -0.26506  -0.26139  -0.25743  -0.25047  -0.24393
  Beta  occ. eigenvalues --   -0.23711  -0.23268  -0.22965  -0.21684  -0.20433
  Beta  occ. eigenvalues --   -0.19811  -0.18364  -0.17414  -0.17237  -0.15157
  Beta  occ. eigenvalues --   -0.14935  -0.13716  -0.13153  -0.12582  -0.11585
  Beta  occ. eigenvalues --   -0.10478  -0.08994  -0.08489  -0.07394  -0.06688
  Beta  occ. eigenvalues --   -0.06532  -0.05718  -0.05337  -0.04475  -0.03875
  Beta  occ. eigenvalues --   -0.00045   0.00250   0.02813   0.04231   0.10574
  Beta virt. eigenvalues --    0.13679   0.15486   0.15974   0.16950   0.17375
  Beta virt. eigenvalues --    0.18253   0.18369   0.19482   0.20164   0.20421
  Beta virt. eigenvalues --    0.21232   0.21857   0.22378   0.22717   0.24323

 Mulliken charges and spin densities:
               1          2
     1  C   -0.817987  -0.000000
     2  C   -0.003281  -0.000000
     3  C    0.193091   0.000000
     4  C   -0.422843   0.000000
     5  C    0.347890  -0.000000
     6  C    0.657169  -0.000000
     7  O   -0.512772   0.000000
     8  O   -0.423293  -0.000000
     9  H    0.098591   0.000000
    10  H    0.104862   0.000000
    11  S   -0.348023  -0.000000
    12  C   -0.441306   0.000000
    13  O   -0.184005  -0.000000
    14  O    0.074692  -0.000000
    15  C   -0.234108   0.000000
    16  H    0.080592   0.000000
    17  H    0.142981   0.000000
    18  H    0.150128  -0.000000
    19  C    0.221394  -0.000000
    20  C    0.029554   0.000000
    21  C   -0.134166   0.000000
    22  C   -0.408253   0.000000
    23  C   -0.446307  -0.000000
    24  C   -0.269515   0.000000
    25  O   -0.116432  -0.000000
    26  O   -0.183407   0.000000
    27  H    0.300153  -0.000000
    28  H    0.195488  -0.000000
    29  H    0.127249  -0.000000
    30  H    0.126381   0.000000
    31  H    0.095486  -0.000000
 Sum of Mulliken charges =  -2.00000   0.00000

 Dipole moment (field-independent basis, Debye):
    X=              0.1721    Y=            -22.6672    Z=            -54.5739  Tot=             59.0943
 Quadrupole moment (field-independent basis, Debye-Ang):
   XX=           -167.3516   YY=           -244.3986   ZZ=           -478.9761
   XY=            -24.2654   XZ=             -4.1453   YZ=           -133.8274

  Exact polarizability: 332.497  78.150 258.767  -2.055  44.490 272.749
 Approx polarizability: 529.721 113.592 426.699 -21.449  55.520 428.011

                      1                      2                      3
                      A                      A                      A
 Frequencies --     20.2549                33.6056                50.9762
 Red. masses --      5.2306                 6.7587                 4.0543
 Frc consts  --      0.0013                 0.0045                 0.0062
 IR Inten    --      2.0700                 1.8933                 4.5923

                      4                      5                      6
                      A                      A                      A
 Frequencies --     64.1799                86.8247               107.8915
 Red. masses --      5.2448                 5.1590                 3.9522
 Frc consts  --      0.0127                 0.0229                 0.0271
 IR Inten    --      0.9048                 0.4202                 0.4776

                      7                      8                      9
                      A                      A                      A
 Frequencies --    125.4047               152.6832               154.8928
 Red. masses --      5.0252                 6.6278                 1.8458
 Frc consts  --      0.0466                 0.0910                 0.0261
 IR Inten    --      5.8205                 2.0151                 0.9809

                     10                     11                     12
                      A                      A                      A
 Frequencies --    167.8650               180.9192               214.9444
 Red. masses --      3.2017                 6.4399                 5.6986
 Frc consts  --      0.0532                 0.1242                 0.1551
 IR Inten    --      1.5719                 0.5872                 6.7203

                     13                     14                     15
                      A                      A                      A
 Frequencies --    230.5956               248.9597               270.4310
 Red. masses --      8.2145                10.2607                10.5185
 Frc consts  --      0.2574                 0.3747                 0.4532
 IR Inten    --      1.7718                 1.6717                 0.2863

                     16                     17                     18
                      A                      A                      A
 Frequencies --    298.1971               302.1528               315.8320
 Red. masses --      8.8913                11.4741                 7.4867
 Frc consts  --      0.4658                 0.6172                 0.4400
 IR Inten    --      1.8739                 1.5125                 3.0143

                     19                     20                     21
                      A                      A                      A
 Frequencies --    322.3846               389.5108               411.0398
 Red. masses --      4.2448                 6.1005                 8.1125
 Frc consts  --      0.2599                 0.5453                 0.8076
 IR Inten    --      4.9378                 2.1095                 4.3187

                     22                     23                     24
                      A                      A                      A
 Frequencies --    418.0951               438.0620               455.6311
 Red. masses --      2.9436                 7.5135                 6.4853
 Frc consts  --      0.3032                 0.8495                 0.7932
 IR Inten    --      0.3113                 7.2563                17.3022

                     25                     26                     27
                      A                      A                      A
 Frequencies --    481.7120               521.6560               533.2135
 Red. masses --      6.3793                 7.3454                 6.1196
 Frc consts  --      0.8722                 1.1777                 1.0251
 IR Inten    --     14.1082                24.0940                33.7618

                     28                     29                     30
                      A                      A                      A
 Frequencies --    572.7585               584.7896               626.9781
 Red. masses --      6.9753                 7.4047                 6.3339
 Frc consts  --      1.3482                 1.4920                 1.4670
 IR Inten    --     23.6355                56.8868                 1.1008

                     31                     32                     33
                      A                      A                      A
 Frequencies --    635.0784               684.1768               696.2117
 Red. masses --      3.0059                 1.6405                 6.2636
 Frc consts  --      0.7143                 0.4524                 1.7888
 IR Inten    --      1.3989                29.8838                11.4857

                     34                     35                     36
                      A                      A                      A
 Frequencies --    719.1236               729.6359               738.6916
 Red. masses --      6.7024                 6.7612                 2.2650
 Frc consts  --      2.0421                 2.1207                 0.7282
 IR Inten    --      6.7407                12.1462                 3.5243

                     37                     38                     39
                      A                      A                      A
 Frequencies --    754.1897               797.2596               816.0404
 Red. masses --      7.3869                 5.7892                 1.2640
 Frc consts  --      2.4756                 2.1680                 0.4959
 IR Inten    --      4.7611                20.6297                 5.9525

                     40                     41                     42
                      A                      A                      A
 Frequencies --    826.3207               878.6078               885.1350
 Red. masses --      2.1152                 1.8151                 3.8695
 Frc consts  --      0.8509                 0.8256                 1.7862
 IR Inten    --     24.2925                33.7715                57.4099

                     43                     44                     45
                      A                      A                      A
 Frequencies --    915.8898               937.7761               947.7467
 Red. masses --      6.8613                 1.3157                 1.3030
 Frc consts  --      3.3911                 0.6817                 0.6896
 IR Inten    --     39.9558                 1.2533                 1.2681

                     46                     47                     48
                      A                      A                      A
 Frequencies --    963.9549              1006.1445              1027.9619
 Red. masses --      1.3162                 6.0452                 7.1000
 Frc consts  --      0.7206                 3.6056                 4.4204
 IR Inten    --      0.1205                75.6723                87.6479

                     49                     50                     51
                      A                      A                      A
 Frequencies --   1033.4906              1045.0017              1079.5301
 Red. masses --      5.0026                 3.0736                 3.2627
 Frc consts  --      3.1482                 1.9776                 2.2402
 IR Inten    --     35.2295                65.0003               140.9842

                     52                     53                     54
                      A                      A                      A
 Frequencies --   1086.8379              1087.3098              1106.0681
 Red. masses --      3.3885                 1.8576                 2.1245
 Frc consts  --      2.3583                 1.2939                 1.5314
 IR Inten    --    191.7660                11.5672                82.7337

                     55                     56                     57
                      A                      A                      A
 Frequencies --   1162.3348              1164.9818              1166.5099
 Red. masses --      1.2995                 1.1103                 2.3605
 Frc consts  --      1.0344                 0.8879                 1.8925
 IR Inten    --      4.8950                 6.1417               242.5362

                     58                     59                     60
                      A                      A                      A
 Frequencies --   1185.7196              1199.6290              1200.8703
 Red. masses --      1.1926                 7.4485                 1.6801
 Frc consts  --      0.9879                 6.3156                 1.4275
 IR Inten    --      6.7178               220.2065                 1.1700

                     61                     62                     63
                      A                      A                      A
 Frequencies --   1220.3634              1303.4372              1326.7293
 Red. masses --      8.1049                 2.7361                 1.7800
 Frc consts  --      7.1117                 2.7388                 1.8460
 IR Inten    --     13.9935                75.8799                 8.5865

                     64                     65                     66
                      A                      A                      A
 Frequencies --   1343.5784              1353.6938              1424.0499
 Red. masses --      3.2625                 3.7893                10.2748
 Frc consts  --      3.4700                 4.0912                12.2764
 IR Inten    --      9.6327               136.4571               274.0821

                     67                     68                     69
                      A                      A                      A
 Frequencies --   1435.8605              1449.6509              1460.1849
 Red. masses --      5.5854                 1.3103                 2.1772
 Frc consts  --      6.7847                 1.6223                 2.7350
 IR Inten    --     56.8390                 9.6407                 9.1619

                     70                     71                     72
                      A                      A                      A
 Frequencies --   1471.3111              1489.1059              1494.6136
 Red. masses --      1.0480                 4.1343                 1.0791
 Frc consts  --      1.3366                 5.4014                 1.4202
 IR Inten    --      2.7355               551.8021                29.3147

                     73                     74                     75
                      A                      A                      A
 Frequencies --   1495.5504              1589.9291              1596.1228
 Red. masses --      2.0117                 5.3629                 5.5185
 Frc consts  --      2.6511                 7.9873                 8.2834
 IR Inten    --     22.2496               381.8038                49.3523

                     76                     77                     78
                      A                      A                      A
 Frequencies --   1616.8981              1744.9992              3005.7266
 Red. masses --      6.5328                11.9274                 1.0282
 Frc consts  --     10.0627                21.3986                 5.4731
 IR Inten    --     51.1110               387.8383               128.7242

                     79                     80                     81
                      A                      A                      A
 Frequencies --   3065.4928              3083.7762              3092.3798
 Red. masses --      1.1049                 1.1045                 1.0837
 Frc consts  --      6.1172                 6.1884                 6.1058
 IR Inten    --     36.7358                54.8012                40.9228

                     82                     83                     84
                      A                      A                      A
 Frequencies --   3119.8907              3120.5947              3136.7004
 Red. masses --      1.0838                 1.0927                 1.0891
 Frc consts  --      6.2157                 6.2696                 6.3132
 IR Inten    --     19.2888               117.4775                62.7207

                     85                     86                     87
                      A                      A                      A
 Frequencies --   3151.2948              3191.0115              3229.5523
 Red. masses --      1.0952                 1.0918                 1.0919
 Frc consts  --      6.4081                 6.5502                 6.7102
 IR Inten    --     94.1124                 8.9004                 2.5679

 - Thermochemistry -
 -------------------
 Temperature   298.150 Kelvin.  Pressure   1.00000 Atm.
 Atom     1 has atomic number  6 and mass  12.00000

 Molecular mass:   306.01981 amu.
 Principal axes and moments of inertia in atomic units:
                           1         2         3
     Eigenvalues --  4036.461607633.279709049.76824
           X            0.67914  -0.54202  -0.49496
           Y            0.60898   0.03963   0.79220
           Z            0.40977   0.83943  -0.35699
 This molecule is an asymmetric top.
 Rotational symmetry number  1.
 Warning -- assumption of classical behavior for rotation
           may cause significant error
 Rotational temperatures (Kelvin)      0.02146     0.01135     0.00957
 Rotational constants (GHZ):           0.44711     0.23643     0.19942
 Zero-point vibrational energy     557897.4 (Joules/Mol)
                                  133.34069 (Kcal/Mol)
 Warning -- explicit consideration of  29 degrees of freedom as
           vibrations may cause significant error
 Vibrational temperatures:     29.14    48.35    73.34    92.34   124.92
          (Kelvin)            155.23   180.43   219.68   222.86   241.52
                              260.30   309.26   331.78   358.20   389.09
                              429.04   434.73   454.41   463.84   560.42
                              591.39   601.55   630.27   655.55   693.08
                              750.55   767.18   824.07   841.38   902.08
                              913.74   984.38  1001.69  1034.66  1049.78
                             1062.81  1085.11  1147.08  1174.10  1188.89
                             1264.12  1273.51  1317.76  1349.25  1363.60
                             1386.92  1447.62  1479.01  1486.96  1503.52
                             1553.20  1563.72  1564.40  1591.39  1672.34
                             1676.15  1678.35  1705.99  1726.00  1727.78
                             1755.83  1875.36  1908.87  1933.11  1947.66
                             2048.89  2065.88  2085.72  2100.88  2116.89
                             2142.49  2150.42  2151.76  2287.55  2296.46
                             2326.36  2510.66  4324.57  4410.56  4436.87
                             4449.24  4488.83  4489.84  4513.01  4534.01
                             4591.15  4646.61

 Zero-point correction=                           0.212492 (Hartree/Particle)
 Thermal correction to Energy=                    0.231343
 Thermal correction to Enthalpy=                  0.232287
 Thermal correction to Gibbs Free Energy=         0.164147
 Sum of electronic and zero-point Energies=          -1389.065229
 Sum of electronic and thermal Energies=             -1389.046378
 Sum of electronic and thermal Enthalpies=           -1389.045433
 Sum of electronic and thermal Free Energies=        -1389.113573

                     E (Thermal)             CV                S
                      KCal/Mol        Cal/Mol-Kelvin    Cal/Mol-Kelvin
 Total                  145.170             70.765            143.412
 Electronic               0.000              0.000              0.000
 Translational            0.889              2.981             43.052
 Rotational               0.889              2.981             33.988
 Vibrational            143.393             64.804             66.372
 Vibration     1          0.593              1.986              6.609
 Vibration     2          0.594              1.983              5.604
 Vibration     3          0.595              1.977              4.779
 Vibration     4          0.597              1.971              4.324
 Vibration     5          0.601              1.958              3.730
 Vibration     6          0.606              1.943              3.307
 Vibration     7          0.610              1.928              3.015
 Vibration     8          0.619              1.900              2.639
 Vibration     9          0.620              1.897              2.611
 Vibration    10          0.625              1.882              2.459
 Vibration    11          0.630              1.866              2.319
 Vibration    12          0.645              1.818              2.001
 Vibration    13          0.652              1.794              1.874
 Vibration    14          0.662              1.764              1.738
 Vibration    15          0.674              1.728              1.593
 Vibration    16          0.691              1.677              1.427
 Vibration    17          0.694              1.670              1.405
 Vibration    18          0.703              1.643              1.332
 Vibration    19          0.707              1.631              1.298
 Vibration    20          0.757              1.493              1.002
 Vibration    21          0.775              1.446              0.923
 Vibration    22          0.781              1.431              0.898
 Vibration    23          0.798              1.387              0.833
 Vibration    24          0.814              1.348              0.779
 Vibration    25          0.838              1.291              0.705
 Vibration    26          0.877              1.202              0.606
 Vibration    27          0.888              1.177              0.580
 Vibration    28          0.929              1.090              0.499
 Vibration    29          0.942              1.064              0.477

                           ! Non-Optimized Parameters !
 Normal termination of Gaussian 16 at Wed Dec 20 06:18:26 2023.
