 Q-Chem 5.4, Q-Chem, Inc., Pleasanton, CA (2021)
 Q-Chem 5.4.0 for Intel X86 EM64T Linux

User input:
--------------------------------------------------------------
$molecule
-1 2
C                 -0.1641410000      3.8389820000     -0.0493980000
C                 -1.3925580000      3.2170390000     -0.1738940000
C                 -1.4599700000      1.8447260000     -0.4891190000
C                  1.0346650000      3.1164620000     -0.2341220000
C                  0.9685740000      1.7296230000     -0.5531580000
C                 -0.2929290000      1.1211810000     -0.6740890000
C                  2.3203930000      3.7683150000     -0.1035030000
C                  3.4900270000      2.9460490000     -0.3118240000
C                  3.4623820000      1.6009680000     -0.6141110000
C                  2.1913830000      0.9242220000     -0.7587890000
O                  2.4944400000      4.9996350000      0.1782790000
O                  2.1193560000     -0.2995790000     -1.0448250000
H                 -0.0865780000      4.8930340000      0.1924560000
H                 -2.3068540000      3.7854300000     -0.0290710000
H                 -2.4253040000      1.3569130000     -0.5867210000
H                 -0.3148930000      0.0650190000     -0.9179950000
O                  4.6644950000      3.6282810000     -0.1759620000
C                  4.7296690000      0.8116520000     -0.8184220000
C                  5.1578250000      0.7201630000     -2.2959430000
C                  6.4264070000     -0.1142550000     -2.5042790000
C                  6.8646650000     -0.2157770000     -3.9697160000
C                  8.1311910000     -1.0530230000     -4.1830590000
C                  8.5599610000     -1.1481930000     -5.6510200000
H                  4.3479950000      4.5328370000      0.0428780000
H                  4.5633460000     -0.2036670000     -0.4441650000
H                  5.5405550000      1.2638560000     -0.2380980000
H                  5.3173360000      1.7328220000     -2.6854790000
H                  4.3329280000      0.2835190000     -2.8689490000
H                  6.2609200000     -1.1245940000     -2.1067920000
H                  7.2459730000      0.3161460000     -1.9122390000
H                  7.0295860000      0.7940890000     -4.3687320000
H                  6.0454590000     -0.6446920000     -4.5617850000
H                  7.9664450000     -2.0623680000     -3.7856590000
H                  8.9502450000     -0.6248330000     -3.5915130000
H                  7.7739560000     -1.6038400000     -6.2623290000
H                  9.4655420000     -1.7518890000     -5.7697560000
H                  8.7647050000     -0.1561040000     -6.0671020000
$end
$rem
MAX_SCF_CYCLES=200
BASIS  =  6-311++G(d,p)
GUI  =  2
JOB_TYPE  =  SP
METHOD  =  B3LYP
THRESH = 14
SCF_CONVERGENCE = 8
SCF_ALGORITHM = DIIS_GDM
SOLVENT_METHOD = PCM
$end
$pcm
theory = CPCM
$end
$solvent
dielectric 37.219
opticaldielectric 1.43
$end

--------------------------------------------------------------

             Standard Nuclear Orientation (Angstroms)
    I     Atom           X                Y                Z
 ----------------------------------------------------------------
    1      C      -0.1641410000     3.8389820000    -0.0493980000
    2      C      -1.3925580000     3.2170390000    -0.1738940000
    3      C      -1.4599700000     1.8447260000    -0.4891190000
    4      C       1.0346650000     3.1164620000    -0.2341220000
    5      C       0.9685740000     1.7296230000    -0.5531580000
    6      C      -0.2929290000     1.1211810000    -0.6740890000
    7      C       2.3203930000     3.7683150000    -0.1035030000
    8      C       3.4900270000     2.9460490000    -0.3118240000
    9      C       3.4623820000     1.6009680000    -0.6141110000
   10      C       2.1913830000     0.9242220000    -0.7587890000
   11      O       2.4944400000     4.9996350000     0.1782790000
   12      O       2.1193560000    -0.2995790000    -1.0448250000
   13      H      -0.0865780000     4.8930340000     0.1924560000
   14      H      -2.3068540000     3.7854300000    -0.0290710000
   15      H      -2.4253040000     1.3569130000    -0.5867210000
   16      H      -0.3148930000     0.0650190000    -0.9179950000
   17      O       4.6644950000     3.6282810000    -0.1759620000
   18      C       4.7296690000     0.8116520000    -0.8184220000
   19      C       5.1578250000     0.7201630000    -2.2959430000
   20      C       6.4264070000    -0.1142550000    -2.5042790000
   21      C       6.8646650000    -0.2157770000    -3.9697160000
   22      C       8.1311910000    -1.0530230000    -4.1830590000
   23      C       8.5599610000    -1.1481930000    -5.6510200000
   24      H       4.3479950000     4.5328370000     0.0428780000
   25      H       4.5633460000    -0.2036670000    -0.4441650000
   26      H       5.5405550000     1.2638560000    -0.2380980000
   27      H       5.3173360000     1.7328220000    -2.6854790000
   28      H       4.3329280000     0.2835190000    -2.8689490000
   29      H       6.2609200000    -1.1245940000    -2.1067920000
   30      H       7.2459730000     0.3161460000    -1.9122390000
   31      H       7.0295860000     0.7940890000    -4.3687320000
   32      H       6.0454590000    -0.6446920000    -4.5617850000
   33      H       7.9664450000    -2.0623680000    -3.7856590000
   34      H       8.9502450000    -0.6248330000    -3.5915130000
   35      H       7.7739560000    -1.6038400000    -6.2623290000
   36      H       9.4655420000    -1.7518890000    -5.7697560000
   37      H       8.7647050000    -0.1561040000    -6.0671020000
 ----------------------------------------------------------------

   27    -846.6233985899      4.69e-09  Convergence criterion met
 Total energy in the final basis set =     -846.6233985899

                    Orbital Energies (a.u.)
 --------------------------------------------------------------

 Alpha MOs
 -- Occupied --
-19.1435 -19.0872 -19.0757 -10.2242 -10.2219 -10.2215 -10.1748 -10.1726
-10.1719 -10.1709 -10.1705 -10.1691 -10.1626 -10.1568 -10.1568 -10.1546
-10.1541 -10.1537 -10.1507  -1.0636  -1.0014  -0.9970  -0.8585  -0.8132
 -0.7954  -0.7680  -0.7509  -0.7387  -0.7013  -0.6708  -0.6401  -0.6167
 -0.5970  -0.5742  -0.5694  -0.5675  -0.5367  -0.5044  -0.4844  -0.4724
 -0.4593  -0.4523  -0.4385  -0.4357  -0.4273  -0.4229  -0.4180  -0.4128
 -0.4042  -0.3899  -0.3872  -0.3834  -0.3804  -0.3736  -0.3622  -0.3519
 -0.3449  -0.3425  -0.3387  -0.3338  -0.3208  -0.3201  -0.3142  -0.3101
 -0.2677  -0.2613  -0.2580  -0.2412  -0.2277  -0.1519

 Beta MOs
 -- Occupied --
-19.1430 -19.0810 -19.0705 -10.2228 -10.2206 -10.2188 -10.1747 -10.1718
-10.1716 -10.1701 -10.1700 -10.1693 -10.1618 -10.1569 -10.1568 -10.1545
-10.1541 -10.1537 -10.1507  -1.0613  -0.9922  -0.9865  -0.8561  -0.8109
 -0.7941  -0.7665  -0.7487  -0.7376  -0.6995  -0.6635  -0.6385  -0.6148
 -0.5950  -0.5732  -0.5692  -0.5653  -0.5349  -0.5021  -0.4820  -0.4715
 -0.4581  -0.4513  -0.4367  -0.4277  -0.4261  -0.4216  -0.4132  -0.4089
 -0.4018  -0.3861  -0.3823  -0.3784  -0.3778  -0.3720  -0.3518  -0.3487
 -0.3430  -0.3378  -0.3324  -0.3286  -0.3203  -0.3196  -0.3140  -0.3091
 -0.2558  -0.2509  -0.2483  -0.2363  -0.2190

          Ground-State Mulliken Net Atomic Charges

     Atom                 Charge (a.u.)    Spin (a.u.)
  --------------------------------------------------------
      1 C                     0.071144       0.075493
      2 C                    -0.392348      -0.000802
      3 C                    -0.460907       0.071568
      4 C                     0.428432      -0.004334
      5 C                    -0.055384       0.057984
      6 C                     0.094893       0.004715
      7 C                    -0.866488       0.170705
      8 C                    -0.564299       0.060305
      9 C                     1.947876       0.048523
     10 C                    -0.690138       0.082175
     11 O                    -0.540604       0.226081
     12 O                    -0.479503       0.193556
     13 H                     0.174019      -0.004101
     14 H                     0.199248      -0.000646
     15 H                     0.194555      -0.005050
     16 H                     0.173291      -0.000366
     17 O                    -0.297399       0.016343
     18 C                    -0.403747       0.009803
     19 C                    -0.520992      -0.002227
     20 C                    -0.113485       0.003553
     21 C                    -0.230615      -0.002114
     22 C                    -0.213295      -0.000010
     23 C                    -0.700062       0.000020
     24 H                     0.302848      -0.003474
     25 H                     0.197592       0.002455
     26 H                     0.215043      -0.000582
     27 H                     0.163315       0.001804
     28 H                     0.171813      -0.001595
     29 H                     0.117642       0.000466
     30 H                     0.117305      -0.000226
     31 H                     0.125672       0.000024
     32 H                     0.124858      -0.000034
     33 H                     0.136166      -0.000008
     34 H                     0.136131      -0.000003
     35 H                     0.145400       0.000003
     36 H                     0.146970      -0.000003
     37 H                     0.145052      -0.000001
  --------------------------------------------------------
  Sum of atomic charges =    -1.000000

                    Cartesian Multipole Moments
 -----------------------------------------------------------------
    Charge (ESU x 10^10)
                -4.8032
    Dipole Moment (Debye)
         X     -12.0534      Y     -10.6099      Z       2.2701
       Tot      16.2175
    Quadrupole Moments (Debye-Ang)
        XX    -149.7262     XY     -28.8455     YY    -171.7713
        XZ       5.6513     YZ      -1.4381     ZZ    -125.0196

 Total job time:  399.05s(wall), 2831.25s(cpu)
        *  Thank you very much for using Q-Chem.  Have a nice day.  *
