 Gaussian 16, Revision A.03,
 Gaussian 16:  ES64L-G16RevA.03 25-Dec-2016

 --------------------------------------
 #P UB3LYP/6-311++G(d,p) nosym opt freq
 --------------------------------------

 -------
 Radical
 -------
 Symbolic Z-matrix:
 Charge = -1 Multiplicity = 2

 SCF Done:  E(UB3LYP) =  -846.538286845     A.U. after   23 cycles
 SCF Done:  E(UB3LYP) =  -846.538287255     A.U. after   11 cycles
 SCF Done:  E(UB3LYP) =  -846.538287663     A.U. after   11 cycles
 SCF Done:  E(UB3LYP) =  -846.538288258     A.U. after   11 cycles
 SCF Done:  E(UB3LYP) =  -846.528392047     A.U. after   19 cycles
 SCF Done:  E(UB3LYP) =  -846.528223643     A.U. after   18 cycles
 SCF Done:  E(UB3LYP) =  -846.519858863     A.U. after   17 cycles
 SCF Done:  E(UB3LYP) =  -846.538288293     A.U. after    9 cycles
 SCF Done:  E(UB3LYP) =  -846.538808996     A.U. after   21 cycles
 SCF Done:  E(UB3LYP) =  -846.366596526     A.U. after   23 cycles
 SCF Done:  E(UB3LYP) =  -846.544925371     A.U. after   14 cycles
 SCF Done:  E(UB3LYP) =  -846.544944388     A.U. after   14 cycles
 SCF Done:  E(UB3LYP) =  -846.544959936     A.U. after   14 cycles
 SCF Done:  E(UB3LYP) =  -846.544983205     A.U. after   15 cycles
 SCF Done:  E(UB3LYP) =  -846.545053599     A.U. after   16 cycles
 SCF Done:  E(UB3LYP) =  -846.545112491     A.U. after   17 cycles
 SCF Done:  E(UB3LYP) =  -846.545146666     A.U. after   16 cycles
 SCF Done:  E(UB3LYP) =  -846.545147641     A.U. after   11 cycles
 SCF Done:  E(UB3LYP) =  -846.545147854     A.U. after   13 cycles
 Optimization completed.
    -- Stationary point found.
 Normal termination of Gaussian 16 at Mon Jan 15 20:59:15 2024.

 ----------------------------------------------------------------------
 #P Geom=AllCheck Guess=TCheck SCRF=Check GenChk UB3LYP/6-311++G(d,p) F
 req
 ----------------------------------------------------------------------

 Structure from the checkpoint file:  "284-rad.chk"
 -------
 Radical
 -------
 Charge = -1 Multiplicity = 2

                          Input orientation:
 ---------------------------------------------------------------------
 Center     Atomic      Atomic             Coordinates (Angstroms)
 Number     Number       Type             X           Y           Z
 ---------------------------------------------------------------------
      1          6           0       -0.164141    3.838982   -0.049398
      2          6           0       -1.392558    3.217039   -0.173894
      3          6           0       -1.459970    1.844726   -0.489119
      4          6           0        1.034665    3.116462   -0.234122
      5          6           0        0.968574    1.729623   -0.553158
      6          6           0       -0.292929    1.121181   -0.674089
      7          6           0        2.320393    3.768315   -0.103503
      8          6           0        3.490027    2.946049   -0.311824
      9          6           0        3.462382    1.600968   -0.614111
     10          6           0        2.191383    0.924222   -0.758789
     11          8           0        2.494440    4.999635    0.178279
     12          8           0        2.119356   -0.299579   -1.044825
     13          1           0       -0.086578    4.893034    0.192456
     14          1           0       -2.306854    3.785430   -0.029071
     15          1           0       -2.425304    1.356913   -0.586721
     16          1           0       -0.314893    0.065019   -0.917995
     17          8           0        4.664495    3.628281   -0.175962
     18          6           0        4.729669    0.811652   -0.818422
     19          6           0        5.157825    0.720163   -2.295943
     20          6           0        6.426407   -0.114255   -2.504279
     21          6           0        6.864665   -0.215777   -3.969716
     22          6           0        8.131191   -1.053023   -4.183059
     23          6           0        8.559961   -1.148193   -5.651020
     24          1           0        4.347995    4.532837    0.042878
     25          1           0        4.563346   -0.203667   -0.444165
     26          1           0        5.540555    1.263856   -0.238098
     27          1           0        5.317336    1.732822   -2.685479
     28          1           0        4.332928    0.283519   -2.868949
     29          1           0        6.260920   -1.124594   -2.106792
     30          1           0        7.245973    0.316146   -1.912239
     31          1           0        7.029586    0.794089   -4.368732
     32          1           0        6.045459   -0.644692   -4.561785
     33          1           0        7.966445   -2.062368   -3.785659
     34          1           0        8.950245   -0.624833   -3.591513
     35          1           0        7.773956   -1.603840   -6.262329
     36          1           0        9.465542   -1.751889   -5.769756
     37          1           0        8.764705   -0.156104   -6.067102
 ---------------------------------------------------------------------

 SCF Done:  E(UB3LYP) =  -846.545147854     A.U. after    1 cycles

 Alpha  occ. eigenvalues --  -19.01729 -18.95508 -18.94209 -10.09493 -10.09364
 Alpha  occ. eigenvalues --  -10.09218 -10.09133 -10.09115 -10.07906 -10.06752
 Alpha  occ. eigenvalues --  -10.05743 -10.05566 -10.05178 -10.05137 -10.05023
 Alpha  occ. eigenvalues --  -10.04952 -10.04793 -10.04390 -10.03685  -0.93651
 Alpha  occ. eigenvalues --   -0.86724  -0.86474  -0.73633  -0.72214  -0.69116
 Alpha  occ. eigenvalues --   -0.66950  -0.63589  -0.62946  -0.60113  -0.55976
 Alpha  occ. eigenvalues --   -0.53620  -0.50687  -0.49477  -0.48382  -0.46282
 Alpha  occ. eigenvalues --   -0.44567  -0.41424  -0.39668  -0.38206  -0.36350
 Alpha  occ. eigenvalues --   -0.35571  -0.35206  -0.33788  -0.33476  -0.32502
 Alpha  occ. eigenvalues --   -0.30845  -0.30653  -0.30503  -0.29055  -0.28889
 Alpha  occ. eigenvalues --   -0.27992  -0.27396  -0.26302  -0.26047  -0.25862
 Alpha  occ. eigenvalues --   -0.25424  -0.24328  -0.24009  -0.23427  -0.22350
 Alpha  occ. eigenvalues --   -0.22219  -0.21793  -0.21078  -0.20783  -0.14169
 Alpha  occ. eigenvalues --   -0.13509  -0.12859  -0.10748  -0.10309  -0.02179
 Alpha virt. eigenvalues --    0.05506   0.07726   0.08284   0.08305   0.08640
 Alpha virt. eigenvalues --    0.08947   0.10224   0.10541   0.10863   0.11188
 Alpha virt. eigenvalues --    0.11303   0.11740   0.12168   0.13109   0.13353

  Beta  occ. eigenvalues --  -19.01688 -18.94838 -18.93647 -10.09400 -10.09268
  Beta  occ. eigenvalues --  -10.09218 -10.09133 -10.08851 -10.07906 -10.06751
  Beta  occ. eigenvalues --  -10.05739 -10.05466 -10.05169 -10.05097 -10.04995
  Beta  occ. eigenvalues --  -10.04989 -10.04662 -10.04397 -10.03603  -0.93456
  Beta  occ. eigenvalues --   -0.85761  -0.85344  -0.73405  -0.72210  -0.68925
  Beta  occ. eigenvalues --   -0.66720  -0.63420  -0.62756  -0.60008  -0.55611
  Beta  occ. eigenvalues --   -0.53054  -0.50616  -0.49350  -0.48257  -0.46108
  Beta  occ. eigenvalues --   -0.44325  -0.41269  -0.39665  -0.37991  -0.36223
  Beta  occ. eigenvalues --   -0.35557  -0.35009  -0.33707  -0.33372  -0.32438
  Beta  occ. eigenvalues --   -0.30616  -0.30443  -0.30115  -0.28803  -0.28352
  Beta  occ. eigenvalues --   -0.27624  -0.27207  -0.26081  -0.25810  -0.25352
  Beta  occ. eigenvalues --   -0.25117  -0.24079  -0.23557  -0.23208  -0.22104
  Beta  occ. eigenvalues --   -0.21631  -0.20934  -0.20580  -0.19921  -0.12836
  Beta  occ. eigenvalues --   -0.12261  -0.12085  -0.10203  -0.09266
  Beta virt. eigenvalues --    0.04381   0.05505   0.07726   0.08284   0.08298
  Beta virt. eigenvalues --    0.08651   0.09574   0.10218   0.10572   0.10870
  Beta virt. eigenvalues --    0.11238   0.11740   0.12067   0.12458   0.13111

 Mulliken charges and spin densities:
               1          2
     1  C    0.066791   0.066801
     2  C   -0.311599   0.001574
     3  C   -0.367528   0.080081
     4  C    0.526405   0.011803
     5  C    0.053191   0.079048
     6  C    0.088965  -0.008555
     7  C   -1.143119   0.139947
     8  C   -0.617405   0.059985
     9  C    2.180938   0.058500
    10  C   -0.930661   0.045852
    11  O   -0.451134   0.246429
    12  O   -0.362002   0.209788
    13  H    0.156110  -0.003794
    14  H    0.123289  -0.000769
    15  H    0.119932  -0.005982
    16  H    0.159597   0.000122
    17  O   -0.257421   0.014764
    18  C   -0.449184   0.009237
    19  C   -0.552343  -0.003479
    20  C   -0.079974   0.003654
    21  C   -0.185221  -0.003594
    22  C   -0.171508  -0.000113
    23  C   -0.666205   0.000028
    24  H    0.266253  -0.004288
    25  H    0.208315   0.002711
    26  H    0.209110  -0.000933
    27  H    0.149158   0.002621
    28  H    0.176812  -0.001999
    29  H    0.102890   0.000968
    30  H    0.093914  -0.000403
    31  H    0.110725   0.000088
    32  H    0.114276  -0.000063
    33  H    0.124344  -0.000021
    34  H    0.122161   0.000000
    35  H    0.133975   0.000010
    36  H    0.125965  -0.000012
    37  H    0.132188  -0.000006
 Sum of Mulliken charges =  -1.00000   1.00000

 Dipole moment (field-independent basis, Debye):
    X=            -11.5973    Y=            -10.4530    Z=              2.8766  Tot=             15.8757
 Quadrupole moment (field-independent basis, Debye-Ang):
   XX=           -166.0317   YY=           -170.8881   ZZ=           -129.3181
   XY=            -22.5607   XZ=             12.2600   YZ=             -2.1106

  Exact polarizability: 295.495 -19.906 239.331 -24.409  33.787 156.515
 Approx polarizability: 408.121   9.287 423.036  -1.203  49.125 222.681

                      1                      2                      3
                      A                      A                      A
 Frequencies --     16.3742                31.3680                44.6014
 Red. masses --      4.9198                 5.1766                 1.5600
 Frc consts  --      0.0008                 0.0030                 0.0018
 IR Inten    --      0.4570                 0.8377                 0.0306

                      4                      5                      6
                      A                      A                      A
 Frequencies --     65.3541                82.4745               108.3135
 Red. masses --      3.0727                 5.5598                 5.2498
 Frc consts  --      0.0077                 0.0223                 0.0363
 IR Inten    --      0.6242                 4.9036                 0.4024

                      7                      8                      9
                      A                      A                      A
 Frequencies --    126.3636               138.2448               141.4856
 Red. masses --      1.6724                 4.3940                 2.2384
 Frc consts  --      0.0157                 0.0495                 0.0264
 IR Inten    --      0.0143                 1.0634                 0.1136

                     10                     11                     12
                      A                      A                      A
 Frequencies --    159.3431               188.7299               234.3141
 Red. masses --      6.6000                 6.7819                 3.6782
 Frc consts  --      0.0987                 0.1423                 0.1190
 IR Inten    --      0.7971                 0.8228                 0.1219

                     13                     14                     15
                      A                      A                      A
 Frequencies --    243.3904               252.7427               298.5045
 Red. masses --      1.1321                 4.1974                 2.8665
 Frc consts  --      0.0395                 0.1580                 0.1505
 IR Inten    --      0.0778                 2.5034                 2.0590

                     16                     17                     18
                      A                      A                      A
 Frequencies --    316.5931               345.3182               377.2440
 Red. masses --      4.5596                 5.6540                10.2927
 Frc consts  --      0.2693                 0.3972                 0.8630
 IR Inten    --      0.1127                 9.2007                12.9872

                     19                     20                     21
                      A                      A                      A
 Frequencies --    394.3856               413.6730               430.5349
 Red. masses --      4.4694                 4.2378                 8.8244
 Frc consts  --      0.4096                 0.4273                 0.9637
 IR Inten    --      0.3541                 6.5767                 1.7387

                     22                     23                     24
                      A                      A                      A
 Frequencies --    439.0742               460.8836               490.3596
 Red. masses --      4.3484                 3.4000                 6.2732
 Frc consts  --      0.4939                 0.4255                 0.8887
 IR Inten    --      0.7065                 2.1683                 2.6075

                     25                     26                     27
                      A                      A                      A
 Frequencies --    532.2690               570.8164               645.4782
 Red. masses --      6.5434                 5.6367                 6.1695
 Frc consts  --      1.0922                 1.0821                 1.5145
 IR Inten    --      1.1008                 1.8637                17.6078

                     28                     29                     30
                      A                      A                      A
 Frequencies --    676.3658               699.5283               704.7894
 Red. masses --      5.7319                 3.1232                 3.2462
 Frc consts  --      1.5449                 0.9004                 0.9501
 IR Inten    --      3.2235                 2.0951                16.9852

                     31                     32                     33
                      A                      A                      A
 Frequencies --    712.1308               731.2608               734.7698
 Red. masses --      5.0104                 1.0898                 1.1259
 Frc consts  --      1.4971                 0.3434                 0.3581
 IR Inten    --      1.6565                 4.1542               127.5699

                     34                     35                     36
                      A                      A                      A
 Frequencies --    743.3977               760.3856               780.9536
 Red. masses --      1.2363                 2.4994                 2.6875
 Frc consts  --      0.4025                 0.8515                 0.9657
 IR Inten    --      0.1031                 7.5797                 5.5701

                     37                     38                     39
                      A                      A                      A
 Frequencies --    788.9964               856.6062               861.6201
 Red. masses --      1.3843                 1.9175                 1.3882
 Frc consts  --      0.5077                 0.8290                 0.6072
 IR Inten    --      0.4468                12.5412                 0.0832

                     40                     41                     42
                      A                      A                      A
 Frequencies --    891.1546               911.3505               946.8145
 Red. masses --      1.9909                 1.8005                 5.7629
 Frc consts  --      0.9315                 0.8811                 3.0438
 IR Inten    --      1.0977                 7.5364                26.1159

                     43                     44                     45
                      A                      A                      A
 Frequencies --    969.2312               977.8080               995.9346
 Red. masses --      1.3139                 1.2944                 1.5592
 Frc consts  --      0.7272                 0.7292                 0.9112
 IR Inten    --      1.4260                 1.0485                 0.6420

                     46                     47                     48
                      A                      A                      A
 Frequencies --   1004.7360              1022.2915              1037.2296
 Red. masses --      3.0629                 3.2298                 2.1397
 Frc consts  --      1.8218                 1.9887                 1.3563
 IR Inten    --      7.4197                 1.5255                23.5299

                     49                     50                     51
                      A                      A                      A
 Frequencies --   1047.2010              1057.0929              1063.6573
 Red. masses --      2.7056                 2.5081                 2.3032
 Frc consts  --      1.7481                 1.6513                 1.5353
 IR Inten    --      2.8213                30.7650                 0.6905

                     52                     53                     54
                      A                      A                      A
 Frequencies --   1106.9577              1128.8073              1132.2758
 Red. masses --      2.0707                 2.2523                 2.0348
 Frc consts  --      1.4949                 1.6909                 1.5370
 IR Inten    --      4.4913                18.4986                30.6311

                     55                     56                     57
                      A                      A                      A
 Frequencies --   1150.5923              1196.0132              1205.0146
 Red. masses --      1.3088                 2.6198                 2.3021
 Frc consts  --      1.0209                 2.2080                 1.9695
 IR Inten    --      0.6753                 9.5174                19.1697

                     58                     59                     60
                      A                      A                      A
 Frequencies --   1223.0856              1247.8676              1251.2921
 Red. masses --      1.6993                 1.3384                 2.3776
 Frc consts  --      1.4978                 1.2279                 2.1933
 IR Inten    --      7.6674                 1.4205                25.2577

                     61                     62                     63
                      A                      A                      A
 Frequencies --   1280.1916              1290.7471              1311.2738
 Red. masses --      1.6147                 1.7831                 1.3914
 Frc consts  --      1.5592                 1.7503                 1.4096
 IR Inten    --     35.2196                 9.6951                 8.7014

                     64                     65                     66
                      A                      A                      A
 Frequencies --   1322.6443              1325.9563              1336.7154
 Red. masses --      1.1639                 1.0691                 1.1179
 Frc consts  --      1.1996                 1.1075                 1.1768
 IR Inten    --     10.8962                 1.7668                13.5541

                     67                     68                     69
                      A                      A                      A
 Frequencies --   1344.0114              1353.3427              1363.4464
 Red. masses --      2.0681                 4.5879                 1.6003
 Frc consts  --      2.2010                 4.9509                 1.7528
 IR Inten    --     33.8714                53.1812                13.1784

                     70                     71                     72
                      A                      A                      A
 Frequencies --   1382.2589              1391.6633              1406.6567
 Red. masses --      1.5074                 1.5994                 1.2466
 Frc consts  --      1.6969                 1.8251                 1.4533
 IR Inten    --      0.0761                 1.7699                 2.1977

                     73                     74                     75
                      A                      A                      A
 Frequencies --   1436.3574              1461.1036              1465.3818
 Red. masses --      2.4154                 1.5194                 2.2042
 Frc consts  --      2.9360                 1.9111                 2.7887
 IR Inten    --    355.1518                51.7854                23.9106

                     76                     77                     78
                      A                      A                      A
 Frequencies --   1482.4730              1484.8368              1486.4894
 Red. masses --      1.2556                 1.1228                 1.7528
 Frc consts  --      1.6258                 1.4585                 2.2819
 IR Inten    --     19.4556                 5.7637                52.2853

                     79                     80                     81
                      A                      A                      A
 Frequencies --   1493.3376              1497.3700              1503.0914
 Red. masses --      1.0739                 1.0402                 1.0821
 Frc consts  --      1.4110                 1.3742                 1.4404
 IR Inten    --      0.7433                 6.8080                 1.0592

                     82                     83                     84
                      A                      A                      A
 Frequencies --   1511.8022              1524.7702              1540.3249
 Red. masses --      1.0934                 5.6278                 5.8463
 Frc consts  --      1.4723                 7.7090                 8.1725
 IR Inten    --      7.9535               410.8440                71.2840

                     85                     86                     87
                      A                      A                      A
 Frequencies --   1578.2100              1621.5590              1639.8839
 Red. masses --      5.3958                 5.8287                 6.1978
 Frc consts  --      7.9183                 9.0300                 9.8201
 IR Inten    --     19.6575                13.7418                 8.6713

                     88                     89                     90
                      A                      A                      A
 Frequencies --   2983.2291              2989.2034              3000.2422
 Red. masses --      1.0580                 1.0582                 1.0744
 Frc consts  --      5.5475                 5.5709                 5.6982
 IR Inten    --     11.4421                 8.5266                42.9030

                     91                     92                     93
                      A                      A                      A
 Frequencies --   3002.1441              3008.9022              3009.9705
 Red. masses --      1.0810                 1.0511                 1.0505
 Frc consts  --      5.7402                 5.6069                 5.6074
 IR Inten    --     18.7634                10.0062                64.9657

                     94                     95                     96
                      A                      A                      A
 Frequencies --   3015.0168              3022.6563              3036.1516
 Red. masses --      1.0939                 1.0617                 1.1028
 Frc consts  --      5.8587                 5.7151                 5.9897
 IR Inten    --      6.0571                94.7399                37.9064

                     97                     98                     99
                      A                      A                      A
 Frequencies --   3048.4385              3068.0577              3070.1821
 Red. masses --      1.1017                 1.1009                 1.1050
 Frc consts  --      6.0320                 6.1053                 6.1369
 IR Inten    --     16.2529                65.2899                 1.5284

                    100                    101                    102
                      A                      A                      A
 Frequencies --   3071.6811              3132.8834              3152.1676
 Red. masses --      1.1032                 1.0845                 1.0909
 Frc consts  --      6.1328                 6.2717                 6.3863
 IR Inten    --    120.2530                15.6726                48.8826

                    103                    104                    105
                      A                      A                      A
 Frequencies --   3179.0692              3182.0144              3480.9760
 Red. masses --      1.0915                 1.0929                 1.0635
 Frc consts  --      6.4995                 6.5199                 7.5927
 IR Inten    --     14.3778                26.0306               104.2675

 - Thermochemistry -
 -------------------
 Temperature   298.150 Kelvin.  Pressure   1.00000 Atm.
 Atom     1 has atomic number  6 and mass  12.00000

 Molecular mass:   258.12559 amu.
 Principal axes and moments of inertia in atomic units:
                           1         2         3
     Eigenvalues --  2342.81652********************
           X            0.81199   0.53918   0.22351
           Y           -0.39632   0.79045  -0.46704
           Z           -0.42849   0.29065   0.85552
 This molecule is an asymmetric top.
 Rotational symmetry number  1.
 Warning -- assumption of classical behavior for rotation
           may cause significant error
 Rotational temperatures (Kelvin)      0.03697     0.00727     0.00643
 Rotational constants (GHZ):           0.77033     0.15158     0.13407
 Zero-point vibrational energy     798234.2 (Joules/Mol)
                                  190.78255 (Kcal/Mol)
 Warning -- explicit consideration of  26 degrees of freedom as
           vibrations may cause significant error
 Vibrational temperatures:     23.56    45.13    64.17    94.03   118.66
          (Kelvin)            155.84   181.81   198.90   203.57   229.26
                              271.54   337.13   350.18   363.64   429.48
                              455.51   496.84   542.77   567.43   595.18
                              619.44   631.73   663.11   705.52   765.82
                              821.28   928.70   973.14  1006.47  1014.03
                             1024.60  1052.12  1057.17  1069.58  1094.03
                             1123.62  1135.19  1232.47  1239.68  1282.17
                             1311.23  1362.25  1394.51  1406.85  1432.93
                             1445.59  1470.85  1492.34  1506.69  1520.92
                             1530.37  1592.67  1624.10  1629.09  1655.45
                             1720.80  1733.75  1759.75  1795.40  1800.33
                             1841.91  1857.10  1886.63  1902.99  1907.76
                             1923.24  1933.73  1947.16  1961.70  1988.76
                             2002.29  2023.87  2066.60  2102.20  2108.36
                             2132.95  2136.35  2138.73  2148.58  2154.38
                             2162.61  2175.15  2193.80  2216.18  2270.69
                             2333.06  2359.43  4292.20  4300.80  4316.68
                             4319.42  4329.14  4330.68  4337.94  4348.93
                             4368.34  4386.02  4414.25  4417.31  4419.46
                             4507.52  4535.27  4573.97  4578.21  5008.35

 Zero-point correction=                           0.304031 (Hartree/Particle)
 Thermal correction to Energy=                    0.322116
 Thermal correction to Enthalpy=                  0.323060
 Thermal correction to Gibbs Free Energy=         0.255237
 Sum of electronic and zero-point Energies=           -846.241117
 Sum of electronic and thermal Energies=              -846.223032
 Sum of electronic and thermal Enthalpies=            -846.222088
 Sum of electronic and thermal Free Energies=         -846.289911

                     E (Thermal)             CV                S
                      KCal/Mol        Cal/Mol-Kelvin    Cal/Mol-Kelvin
 Total                  202.131             68.627            142.746
 Electronic               0.000              0.000              1.377
 Translational            0.889              2.981             42.545
 Rotational               0.889              2.981             34.284
 Vibrational            200.353             62.666             64.540
 Vibration     1          0.593              1.986              7.031
 Vibration     2          0.594              1.983              5.741
 Vibration     3          0.595              1.980              5.043
 Vibration     4          0.597              1.971              4.289
 Vibration     5          0.600              1.961              3.831
 Vibration     6          0.606              1.943              3.299
 Vibration     7          0.611              1.927              3.001
 Vibration     8          0.614              1.915              2.828
 Vibration     9          0.615              1.912              2.784
 Vibration    10          0.621              1.892              2.558
 Vibration    11          0.633              1.855              2.240
 Vibration    12          0.654              1.788              1.846
 Vibration    13          0.659              1.774              1.778
 Vibration    14          0.664              1.758              1.711
 Vibration    15          0.692              1.676              1.425
 Vibration    16          0.703              1.642              1.328
 Vibration    17          0.724              1.585              1.187
 Vibration    18          0.748              1.519              1.050
 Vibration    19          0.761              1.482              0.984
 Vibration    20          0.777              1.441              0.914
 Vibration    21          0.792              1.404              0.857
 Vibration    22          0.799              1.385              0.830
 Vibration    23          0.819              1.337              0.764
 Vibration    24          0.846              1.271              0.683
 Vibration    25          0.887              1.179              0.582
 Vibration    26          0.927              1.094              0.503

 Optimization completed.
    -- Stationary point found.
 Normal termination of Gaussian 16 at Mon Jan 15 22:23:32 2024.
