 Gaussian 16, Revision A.03,
 Gaussian 16:  ES64L-G16RevA.03 25-Dec-2016

 ----------------------------------------------------------------------
 #P UB3LYP/6-311++G(d,p) nosym opt freq SCRF=(PCM,Solvent=n,n-DiMethylF
 ormamide)
 ----------------------------------------------------------------------

 -------
 Reduced
 -------
 Symbolic Z-matrix:
 Charge = -2 Multiplicity = 1

 SCF Done:  E(UB3LYP) =  -1004.00811206     A.U. after   18 cycles
 SCF Done:  E(UB3LYP) =  -1004.01087396     A.U. after   14 cycles
 SCF Done:  E(UB3LYP) =  -1004.01128149     A.U. after   15 cycles
 SCF Done:  E(UB3LYP) =  -1004.01131124     A.U. after   14 cycles
 SCF Done:  E(UB3LYP) =  -1004.01134371     A.U. after   13 cycles
 SCF Done:  E(UB3LYP) =  -1004.01134927     A.U. after   11 cycles
 SCF Done:  E(UB3LYP) =  -1004.01135027     A.U. after   12 cycles
 SCF Done:  E(UB3LYP) =  -1004.01135065     A.U. after   10 cycles
 SCF Done:  E(UB3LYP) =  -1004.01135075     A.U. after    9 cycles
 Optimization completed.
    -- Stationary point found.
 Normal termination of Gaussian 16 at Sun Feb 11 05:42:18 2024.

 ----------------------------------------------------------------------
 #P Geom=AllCheck Guess=TCheck SCRF=Check GenChk UB3LYP/6-311++G(d,p) F
 req
 ----------------------------------------------------------------------

 Structure from the checkpoint file:  "291-an.chk"
 -------
 Reduced
 -------
 Charge = -2 Multiplicity = 1

                          Input orientation:
 ---------------------------------------------------------------------
 Center     Atomic      Atomic             Coordinates (Angstroms)
 Number     Number       Type             X           Y           Z
 ---------------------------------------------------------------------
      1          6           0        0.187150    3.763648   -0.170281
      2          6           0       -0.930443    3.665461   -0.970965
      3          6           0       -1.023321    2.626492   -1.933714
      4          6           0        1.273856    2.847035   -0.275057
      5          6           0        1.182942    1.785956   -1.262987
      6          6           0        0.015026    1.722774   -2.061624
      7          6           0        2.420546    2.955757    0.561170
      8          6           0        3.422361    1.990295    0.353474
      9          6           0        3.379282    0.947623   -0.590977
     10          6           0        2.248236    0.811546   -1.444505
     11          8           0        2.622003    3.874405    1.503242
     12          8           0        2.156983   -0.134747   -2.340117
     13          1           0        0.262753    4.554576    0.568828
     14          1           0       -1.740956    4.380994   -0.865564
     15          1           0       -1.903439    2.545539   -2.564296
     16          1           0       -0.042274    0.924951   -2.794653
     17          8           0        4.515760    2.141121    1.193972
     18          1           0        4.224312    2.931853    1.709552
     19          6           0        4.536849   -0.015736   -0.716770
     20          6           0        5.587420    0.424787   -1.758713
     21          6           0        6.691847   -0.605567   -2.068348
     22          6           0        7.531882   -0.136420   -3.273550
     23          6           0        8.503270   -1.174211   -3.852645
     24          6           0        9.239694   -0.664001   -5.098582
     25          6           0       10.156179   -1.689000   -5.793566
     26          6           0       10.668807   -1.133434   -7.130175
     27          6           0        7.567478   -0.894555   -0.839183
     28          6           0       11.332498   -2.124442   -4.907393
     29          1           0        4.142777   -0.991439   -1.020990
     30          1           0        5.017868   -0.141189    0.257376
     31          1           0        6.055382    1.361370   -1.426649
     32          1           0        5.058869    0.656638   -2.689642
     33          1           0        6.194185   -1.543147   -2.358035
     34          1           0        8.092793    0.764068   -2.986027
     35          1           0        6.845666    0.176048   -4.070862
     36          1           0        7.943386   -2.082469   -4.113638
     37          1           0        9.230236   -1.469038   -3.090072
     38          1           0        9.836312    0.219845   -4.832178
     39          1           0        8.494479   -0.318573   -5.826501
     40          1           0        9.550797   -2.579698   -6.012116
     41          1           0        9.840746   -0.860815   -7.791593
     42          1           0       11.289647   -1.867242   -7.653345
     43          1           0       11.277672   -0.236147   -6.970693
     44          1           0        8.327643   -1.651396   -1.049546
     45          1           0        6.972177   -1.257312    0.002193
     46          1           0        8.084034    0.016212   -0.513593
     47          1           0       10.996905   -2.594665   -3.979818
     48          1           0       11.954672   -1.262423   -4.639959
     49          1           0       11.969357   -2.844237   -5.430784
 ---------------------------------------------------------------------

 SCF Done:  E(UB3LYP) =  -1004.01135075     A.U. after    1 cycles

 Alpha  occ. eigenvalues --  -19.10806 -19.02202 -19.01295 -10.17477 -10.16960
 Alpha  occ. eigenvalues --  -10.16703 -10.15914 -10.15838 -10.15489 -10.15399
 Alpha  occ. eigenvalues --  -10.15206 -10.15116 -10.15083 -10.14726 -10.14620
 Alpha  occ. eigenvalues --  -10.14389 -10.14375 -10.14370 -10.14277 -10.13892
 Alpha  occ. eigenvalues --  -10.13720 -10.13276 -10.12382  -1.01865  -0.92270
 Alpha  occ. eigenvalues --   -0.91434  -0.82156  -0.81375  -0.79750  -0.77056
 Alpha  occ. eigenvalues --   -0.74563  -0.72200  -0.71969  -0.68245  -0.67860
 Alpha  occ. eigenvalues --   -0.66788  -0.64179  -0.61963  -0.58800  -0.57754
 Alpha  occ. eigenvalues --   -0.55606  -0.55404  -0.54257  -0.53238  -0.49954
 Alpha  occ. eigenvalues --   -0.47296  -0.46857  -0.45484  -0.44450  -0.43721
 Alpha  occ. eigenvalues --   -0.43276  -0.42873  -0.42023  -0.41897  -0.40440
 Alpha  occ. eigenvalues --   -0.39902  -0.39733  -0.38731  -0.38053  -0.37732
 Alpha  occ. eigenvalues --   -0.37180  -0.36783  -0.35816  -0.35392  -0.35202
 Alpha  occ. eigenvalues --   -0.34755  -0.34533  -0.34110  -0.33661  -0.33489
 Alpha  occ. eigenvalues --   -0.32046  -0.31884  -0.31379  -0.31240  -0.30850
 Alpha  occ. eigenvalues --   -0.30399  -0.30066  -0.29692  -0.29084  -0.28630
 Alpha  occ. eigenvalues --   -0.22688  -0.21962  -0.20994  -0.19237  -0.18855
 Alpha  occ. eigenvalues --   -0.11099
 Alpha virt. eigenvalues --   -0.00420  -0.00287   0.00129   0.00759   0.00940
 Alpha virt. eigenvalues --    0.01319   0.01578   0.02002   0.02215   0.02528
 Alpha virt. eigenvalues --    0.02745   0.03708   0.03877   0.04089   0.04248

  Beta  occ. eigenvalues --  -19.10806 -19.02202 -19.01295 -10.17477 -10.16960
  Beta  occ. eigenvalues --  -10.16703 -10.15914 -10.15838 -10.15489 -10.15399
  Beta  occ. eigenvalues --  -10.15206 -10.15116 -10.15083 -10.14726 -10.14620
  Beta  occ. eigenvalues --  -10.14389 -10.14375 -10.14370 -10.14277 -10.13892
  Beta  occ. eigenvalues --  -10.13720 -10.13276 -10.12382  -1.01865  -0.92270
  Beta  occ. eigenvalues --   -0.91434  -0.82156  -0.81375  -0.79750  -0.77056
  Beta  occ. eigenvalues --   -0.74563  -0.72200  -0.71969  -0.68245  -0.67860
  Beta  occ. eigenvalues --   -0.66788  -0.64179  -0.61963  -0.58800  -0.57754
  Beta  occ. eigenvalues --   -0.55606  -0.55404  -0.54257  -0.53238  -0.49954
  Beta  occ. eigenvalues --   -0.47296  -0.46857  -0.45484  -0.44450  -0.43721
  Beta  occ. eigenvalues --   -0.43276  -0.42873  -0.42023  -0.41897  -0.40440
  Beta  occ. eigenvalues --   -0.39902  -0.39733  -0.38731  -0.38053  -0.37732
  Beta  occ. eigenvalues --   -0.37180  -0.36783  -0.35816  -0.35392  -0.35202
  Beta  occ. eigenvalues --   -0.34755  -0.34533  -0.34110  -0.33661  -0.33489
  Beta  occ. eigenvalues --   -0.32046  -0.31884  -0.31379  -0.31240  -0.30850
  Beta  occ. eigenvalues --   -0.30399  -0.30066  -0.29692  -0.29084  -0.28630
  Beta  occ. eigenvalues --   -0.22688  -0.21962  -0.20994  -0.19237  -0.18855
  Beta  occ. eigenvalues --   -0.11099
  Beta virt. eigenvalues --   -0.00420  -0.00287   0.00129   0.00759   0.00940
  Beta virt. eigenvalues --    0.01319   0.01578   0.02002   0.02215   0.02528
  Beta virt. eigenvalues --    0.02745   0.03708   0.03877   0.04089   0.04248

 Mulliken charges and spin densities:
               1          2
     1  C   -0.161975   0.000000
     2  C   -0.344329   0.000000
     3  C   -0.525693  -0.000000
     4  C    0.569675   0.000000
     5  C   -0.141280  -0.000000
     6  C    0.002078   0.000000
     7  C   -1.106791  -0.000000
     8  C   -0.782493  -0.000000
     9  C    2.171356   0.000000
    10  C   -0.888107  -0.000000
    11  O   -0.755411   0.000000
    12  O   -0.670189   0.000000
    13  H    0.142946  -0.000000
    14  H    0.155799   0.000000
    15  H    0.149987   0.000000
    16  H    0.146210  -0.000000
    17  O   -0.327389   0.000000
    18  H    0.272293  -0.000000
    19  C    0.077310  -0.000000
    20  C   -1.096329   0.000000
    21  C    1.262512  -0.000000
    22  C   -0.744729   0.000000
    23  C    0.002958  -0.000000
    24  C   -0.860176  -0.000000
    25  C    0.528773   0.000000
    26  C   -0.659146  -0.000000
    27  C   -0.742648  -0.000000
    28  C   -0.691410  -0.000000
    29  H    0.185748  -0.000000
    30  H    0.190198   0.000000
    31  H    0.159595  -0.000000
    32  H    0.166438  -0.000000
    33  H    0.118056   0.000000
    34  H    0.143687   0.000000
    35  H    0.102587  -0.000000
    36  H    0.147053  -0.000000
    37  H    0.087502   0.000000
    38  H    0.139814  -0.000000
    39  H    0.129573   0.000000
    40  H    0.139671   0.000000
    41  H    0.136071  -0.000000
    42  H    0.157557   0.000000
    43  H    0.139647  -0.000000
    44  H    0.145727   0.000000
    45  H    0.142234  -0.000000
    46  H    0.151761  -0.000000
    47  H    0.141935   0.000000
    48  H    0.146655   0.000000
    49  H    0.144695   0.000000
 Sum of Mulliken charges =  -2.00000  -0.00000

 Dipole moment (field-independent basis, Debye):
    X=            -22.1676    Y=            -18.4103    Z=              4.5262  Tot=             29.1689
 Quadrupole moment (field-independent basis, Debye-Ang):
   XX=           -223.7187   YY=           -217.5174   ZZ=           -184.1189
   XY=            -40.6947   XZ=              5.1052   YZ=            -14.8296

  Exact polarizability: 469.408 -69.570 376.380  47.433  56.056 365.601
 Approx polarizability: 500.951 -64.916 416.958  73.206  66.351 398.483

                      1                      2                      3
                      A                      A                      A
 Frequencies --     18.9626                20.8104                28.0218
 Red. masses --      2.6914                 4.6949                 4.2987
 Frc consts  --      0.0006                 0.0012                 0.0020
 IR Inten    --      0.0759                 0.5871                 0.2950

                      4                      5                      6
                      A                      A                      A
 Frequencies --     42.1838                48.9401                73.5061
 Red. masses --      3.9394                 3.4111                 3.5542
 Frc consts  --      0.0041                 0.0048                 0.0113
 IR Inten    --      3.0088                 2.5225                 5.4559

                      7                      8                      9
                      A                      A                      A
 Frequencies --     95.9460               105.0128               112.0049
 Red. masses --      4.2271                 1.9211                 3.2962
 Frc consts  --      0.0229                 0.0125                 0.0244
 IR Inten    --     11.1705                 0.6702                 4.6785

                     10                     11                     12
                      A                      A                      A
 Frequencies --    124.1020               138.4069               163.5528
 Red. masses --      3.5124                 2.0690                 4.8700
 Frc consts  --      0.0319                 0.0234                 0.0768
 IR Inten    --      3.7710                 0.5292                 1.0991

                     13                     14                     15
                      A                      A                      A
 Frequencies --    174.2745               184.7235               224.5336
 Red. masses --      3.5929                 7.4333                 1.0787
 Frc consts  --      0.0643                 0.1494                 0.0320
 IR Inten    --      1.1615                 4.1364                 0.0052

                     16                     17                     18
                      A                      A                      A
 Frequencies --    237.2533               244.3471               249.6189
 Red. masses --      1.3265                 1.3294                 2.6791
 Frc consts  --      0.0440                 0.0468                 0.0984
 IR Inten    --      0.0267                 0.0893                 0.0413

                     19                     20                     21
                      A                      A                      A
 Frequencies --    257.3940               265.9412               293.7964
 Red. masses --      2.9181                 2.2364                 2.9395
 Frc consts  --      0.1139                 0.0932                 0.1495
 IR Inten    --     13.8814                 6.0964                 3.3530

                     22                     23                     24
                      A                      A                      A
 Frequencies --    321.6194               331.8778               362.2948
 Red. masses --      5.1824                 4.6515                 9.2191
 Frc consts  --      0.3158                 0.3019                 0.7130
 IR Inten    --     22.2479                 9.5857                 7.2305

                     25                     26                     27
                      A                      A                      A
 Frequencies --    368.7088               380.3821               405.6462
 Red. masses --      3.8874                 2.3056                 3.8286
 Frc consts  --      0.3114                 0.1965                 0.3712
 IR Inten    --      0.0731                 0.3836                 2.6975

                     28                     29                     30
                      A                      A                      A
 Frequencies --    418.9169               426.8544               439.4263
 Red. masses --      1.9973                 2.6468                 8.5885
 Frc consts  --      0.2065                 0.2841                 0.9771
 IR Inten    --      0.4844                 3.9491                 6.3106

                     31                     32                     33
                      A                      A                      A
 Frequencies --    453.1751               475.8401               492.0514
 Red. masses --      3.1938                 3.5609                 3.0239
 Frc consts  --      0.3864                 0.4750                 0.4314
 IR Inten    --      7.8107                 3.2871                 2.6912

                     34                     35                     36
                      A                      A                      A
 Frequencies --    511.5516               535.2562               566.3019
 Red. masses --      4.1174                 4.9653                 4.7071
 Frc consts  --      0.6348                 0.8381                 0.8894
 IR Inten    --      3.6117                 1.5393                 5.7497

                     37                     38                     39
                      A                      A                      A
 Frequencies --    635.0419               668.6638               687.9421
 Red. masses --      5.4849                 5.4746                 3.1967
 Frc consts  --      1.3032                 1.4422                 0.8914
 IR Inten    --     66.3396                 7.8415                 2.8895

                     40                     41                     42
                      A                      A                      A
 Frequencies --    696.2382               703.4148               725.1383
 Red. masses --      2.4518                 2.8508                 1.5973
 Frc consts  --      0.7002                 0.8311                 0.4948
 IR Inten    --    121.6173                10.5324               122.9535

                     43                     44                     45
                      A                      A                      A
 Frequencies --    738.3593               754.4062               756.1866
 Red. masses --      1.1436                 2.0690                 1.6394
 Frc consts  --      0.3673                 0.6938                 0.5523
 IR Inten    --      4.4351                23.1188                18.8949

                     46                     47                     48
                      A                      A                      A
 Frequencies --    779.3217               800.0544               838.2342
 Red. masses --      3.4905                 2.2268                 1.6899
 Frc consts  --      1.2490                 0.8398                 0.6996
 IR Inten    --      6.8971                 1.0732                 1.7099

                     49                     50                     51
                      A                      A                      A
 Frequencies --    841.5564               848.7426               873.8198
 Red. masses --      1.5000                 2.6229                 2.2905
 Frc consts  --      0.6259                 1.1132                 1.0305
 IR Inten    --      0.5927                41.6445                53.3395

                     52                     53                     54
                      A                      A                      A
 Frequencies --    925.6179               929.3714               932.3344
 Red. masses --      1.2550                 3.9276                 2.1865
 Frc consts  --      0.6335                 1.9987                 1.1198
 IR Inten    --      3.5695                70.1332                 5.4552

                     55                     56                     57
                      A                      A                      A
 Frequencies --    941.4074               956.8178               961.4610
 Red. masses --      1.5688                 1.7013                 1.4970
 Frc consts  --      0.8192                 0.9177                 0.8153
 IR Inten    --      0.8915                 6.3403                 0.2801

                     58                     59                     60
                      A                      A                      A
 Frequencies --    963.4527               973.2023               988.7484
 Red. masses --      1.3340                 1.2508                 2.0069
 Frc consts  --      0.7296                 0.6980                 1.1559
 IR Inten    --      3.3546                 0.9640                12.5109

                     61                     62                     63
                      A                      A                      A
 Frequencies --   1009.0598              1020.9137              1028.4546
 Red. masses --      2.7425                 2.3667                 2.7953
 Frc consts  --      1.6453                 1.4534                 1.7420
 IR Inten    --     45.1284               159.8734               194.6669

                     64                     65                     66
                      A                      A                      A
 Frequencies --   1039.3168              1052.5668              1063.2456
 Red. masses --      3.4522                 1.9756                 1.6739
 Frc consts  --      2.1970                 1.2896                 1.1149
 IR Inten    --    107.9681                65.6848                54.9808

                     67                     68                     69
                      A                      A                      A
 Frequencies --   1095.2367              1100.2378              1112.1299
 Red. masses --      2.6024                 2.5443                 1.8893
 Frc consts  --      1.8392                 1.8146                 1.3768
 IR Inten    --     69.4578                19.1532               125.8884

                     70                     71                     72
                      A                      A                      A
 Frequencies --   1128.7947              1147.3415              1161.1740
 Red. masses --      1.7492                 2.3372                 2.0842
 Frc consts  --      1.3132                 1.8127                 1.6557
 IR Inten    --      5.9342                 9.3056                45.8803

                     73                     74                     75
                      A                      A                      A
 Frequencies --   1174.0830              1182.1646              1186.3226
 Red. masses --      1.8124                 1.7825                 1.7690
 Frc consts  --      1.4720                 1.4677                 1.4668
 IR Inten    --      5.5386               102.4926                10.6082

                     76                     77                     78
                      A                      A                      A
 Frequencies --   1206.8715              1229.4452              1240.1675
 Red. masses --      1.7307                 1.8345                 1.8656
 Frc consts  --      1.4852                 1.6338                 1.6906
 IR Inten    --     15.0997                75.3687               180.0833

                     79                     80                     81
                      A                      A                      A
 Frequencies --   1258.5826              1278.0465              1286.8035
 Red. masses --      1.2412                 1.6111                 1.6170
 Frc consts  --      1.1584                 1.5505                 1.5775
 IR Inten    --     38.9907                89.4159                25.0066

                     82                     83                     84
                      A                      A                      A
 Frequencies --   1303.9579              1315.9403              1317.7322
 Red. masses --      1.3571                 2.5416                 1.7400
 Frc consts  --      1.3596                 2.5932                 1.7801
 IR Inten    --     12.1514               546.0650               164.1532

                     85                     86                     87
                      A                      A                      A
 Frequencies --   1325.3828              1329.9527              1340.2534
 Red. masses --      1.3272                 1.1076                 1.5003
 Frc consts  --      1.3736                 1.1543                 1.5878
 IR Inten    --     25.3349                 0.5123               120.7107

                     88                     89                     90
                      A                      A                      A
 Frequencies --   1348.1359              1363.7932              1365.7366
 Red. masses --      1.4674                 1.4723                 1.5242
 Frc consts  --      1.5713                 1.6134                 1.6750
 IR Inten    --     22.6807                68.5304                89.0601

                     91                     92                     93
                      A                      A                      A
 Frequencies --   1375.1763              1376.8744              1381.6162
 Red. masses --      1.3799                 1.4212                 4.3596
 Frc consts  --      1.5375                 1.5874                 4.9031
 IR Inten    --     20.8629                 0.3656              1313.3979

                     94                     95                     96
                      A                      A                      A
 Frequencies --   1391.3462              1394.8973              1401.4794
 Red. masses --      1.4039                 1.3418                 1.2794
 Frc consts  --      1.6012                 1.5382                 1.4806
 IR Inten    --      6.3998                 4.3838                12.9347

                     97                     98                     99
                      A                      A                      A
 Frequencies --   1410.5404              1420.7811              1435.9866
 Red. masses --      1.2466                 5.0927                 2.4429
 Frc consts  --      1.4614                 6.0569                 2.9679
 IR Inten    --      7.6584               102.8703                98.3302

                    100                    101                    102
                      A                      A                      A
 Frequencies --   1457.3923              1460.5004              1470.5261
 Red. masses --      1.1486                 2.6320                 1.0774
 Frc consts  --      1.4374                 3.3078                 1.3727
 IR Inten    --      1.9257                70.5179                 0.2452

                    103                    104                    105
                      A                      A                      A
 Frequencies --   1476.1704              1480.2004              1483.5128
 Red. masses --      1.0813                 1.0501                 1.0797
 Frc consts  --      1.3882                 1.3556                 1.4000
 IR Inten    --      0.6748                 0.9303                 2.9675

                    106                    107                    108
                      A                      A                      A
 Frequencies --   1486.0353              1488.6819              1492.0746
 Red. masses --      1.0606                 1.0684                 1.0573
 Frc consts  --      1.3799                 1.3950                 1.3869
 IR Inten    --      2.3736                 4.6736                 6.7460

                    109                    110                    111
                      A                      A                      A
 Frequencies --   1497.5992              1499.5408              1502.3986
 Red. masses --      1.0601                 1.0501                 1.0837
 Frc consts  --      1.4008                 1.3912                 1.4412
 IR Inten    --     11.3312                 5.6319                32.1778

                    112                    113                    114
                      A                      A                      A
 Frequencies --   1517.1081              1543.9562              1594.9690
 Red. masses --      4.1229                 5.2252                 5.2536
 Frc consts  --      5.5910                 7.3387                 7.8743
 IR Inten    --      6.2748               291.7090               139.7603

                    115                    116                    117
                      A                      A                      A
 Frequencies --   1613.0138              2968.2030              2979.3086
 Red. masses --      5.8483                 1.0804                 1.0737
 Frc consts  --      8.9651                 5.6079                 5.6151
 IR Inten    --     10.9437                21.3227                 8.9351

                    118                    119                    120
                      A                      A                      A
 Frequencies --   2983.5166              2986.1291              2995.2968
 Red. masses --      1.0634                 1.0671                 1.0652
 Frc consts  --      5.5768                 5.6061                 5.6308
 IR Inten    --     10.0498                33.3603                 8.5612

                    121                    122                    123
                      A                      A                      A
 Frequencies --   2997.1191              3006.1455              3011.4846
 Red. masses --      1.0658                 1.0361                 1.0429
 Frc consts  --      5.6409                 5.5166                 5.5724
 IR Inten    --    197.9431                57.2616                73.4121

                    124                    125                    126
                      A                      A                      A
 Frequencies --   3011.9713              3016.9386              3018.1172
 Red. masses --      1.0392                 1.0954                 1.0874
 Frc consts  --      5.5547                 5.8744                 5.8360
 IR Inten    --     74.9992                38.2210                58.8896

                    127                    128                    129
                      A                      A                      A
 Frequencies --   3018.3112              3036.8035              3057.0677
 Red. masses --      1.0692                 1.0962                 1.0978
 Frc consts  --      5.7389                 5.9561                 6.0450
 IR Inten    --    117.3709                24.9608               114.1190

                    130                    131                    132
                      A                      A                      A
 Frequencies --   3064.1054              3065.2826              3069.0143
 Red. masses --      1.1004                 1.1024                 1.0994
 Frc consts  --      6.0870                 6.1026                 6.1011
 IR Inten    --     14.9749               115.5351               142.7642

                    133                    134                    135
                      A                      A                      A
 Frequencies --   3074.0536              3075.2668              3086.4773
 Red. masses --      1.0942                 1.1016                 1.0992
 Frc consts  --      6.0922                 6.1379                 6.1698
 IR Inten    --     62.4211                99.4009                89.4838

                    136                    137                    138
                      A                      A                      A
 Frequencies --   3089.4488              3135.1263              3150.0593
 Red. masses --      1.1000                 1.0842                 1.0879
 Frc consts  --      6.1861                 6.2788                 6.3602
 IR Inten    --     48.7906                15.7805                24.1543

                    139                    140                    141
                      A                      A                      A
 Frequencies --   3164.9443              3170.5479              3379.8892
 Red. masses --      1.0913                 1.0943                 1.0637
 Frc consts  --      6.4404                 6.4811                 7.1596
 IR Inten    --     60.1458                71.7205               269.7130

 - Thermochemistry -
 -------------------
 Temperature   298.150 Kelvin.  Pressure   1.00000 Atm.
 Atom     1 has atomic number  6 and mass  12.00000

 Molecular mass:   314.18819 amu.
 Principal axes and moments of inertia in atomic units:
                           1         2         3
     Eigenvalues --  3298.30042********************
           X            0.82648   0.49302   0.27178
           Y           -0.37821   0.12867   0.91673
           Z           -0.41700   0.86045  -0.29281
 This molecule is an asymmetric top.
 Rotational symmetry number  1.
 Warning -- assumption of classical behavior for rotation
           may cause significant error
 Rotational temperatures (Kelvin)      0.02626     0.00377     0.00350
 Rotational constants (GHZ):           0.54717     0.07859     0.07286
 Zero-point vibrational energy    1087331.4 (Joules/Mol)
                                  259.87845 (Kcal/Mol)
 Warning -- explicit consideration of  36 degrees of freedom as
           vibrations may cause significant error
 Vibrational temperatures:     27.28    29.94    40.32    60.69    70.41
          (Kelvin)            105.76   138.04   151.09   161.15   178.56
                              199.14   235.32   250.74   265.78   323.05
                              341.35   351.56   359.15   370.33   382.63
                              422.71   462.74   477.50   521.26   530.49
                              547.29   583.63   602.73   614.15   632.24
                              652.02   684.63   707.95   736.01   770.11
                              814.78   913.68   962.06   989.80  1001.73
                             1012.06  1043.31  1062.33  1085.42  1087.98
                             1121.27  1151.10  1206.03  1210.81  1221.15
                             1257.23  1331.76  1337.16  1341.42  1354.48
                             1376.65  1383.33  1386.19  1400.22  1422.59
                             1451.81  1468.87  1479.72  1495.35  1514.41
                             1529.77  1575.80  1583.00  1600.11  1624.08
                             1650.77  1670.67  1689.24  1700.87  1706.85
                             1736.42  1768.90  1784.32  1810.82  1838.82
                             1851.42  1876.10  1893.34  1895.92  1906.93
                             1913.51  1928.33  1939.67  1962.19  1964.99
                             1978.57  1981.02  1987.84  2001.84  2006.95
                             2016.42  2029.45  2044.19  2066.06  2096.86
                             2101.33  2115.76  2123.88  2129.68  2134.44
                             2138.07  2141.88  2146.76  2154.71  2157.50
                             2161.62  2182.78  2221.41  2294.80  2320.77
                             4270.58  4286.56  4292.61  4296.37  4309.56
                             4312.19  4325.17  4332.85  4333.55  4340.70
                             4342.40  4342.68  4369.28  4398.44  4408.56
                             4410.26  4415.63  4422.88  4424.62  4440.75
                             4445.03  4510.75  4532.23  4553.65  4561.71
                             4862.91

 Zero-point correction=                           0.414143 (Hartree/Particle)
 Thermal correction to Energy=                    0.437643
 Thermal correction to Enthalpy=                  0.438587
 Thermal correction to Gibbs Free Energy=         0.359092
 Sum of electronic and zero-point Energies=          -1003.597208
 Sum of electronic and thermal Energies=             -1003.573708
 Sum of electronic and thermal Enthalpies=           -1003.572764
 Sum of electronic and thermal Free Energies=        -1003.652259

                     E (Thermal)             CV                S
                      KCal/Mol        Cal/Mol-Kelvin    Cal/Mol-Kelvin
 Total                  274.625             89.915            167.312
 Electronic               0.000              0.000              0.000
 Translational            0.889              2.981             43.130
 Rotational               0.889              2.981             35.882
 Vibrational            272.847             83.954             88.299
 Vibration     1          0.593              1.986              6.740
 Vibration     2          0.593              1.986              6.555
 Vibration     3          0.593              1.984              5.965
 Vibration     4          0.595              1.980              5.154
 Vibration     5          0.595              1.978              4.860
 Vibration     6          0.599              1.966              4.057
 Vibration     7          0.603              1.952              3.535
 Vibration     8          0.605              1.945              3.359
 Vibration     9          0.607              1.940              3.234
 Vibration    10          0.610              1.929              3.035
 Vibration    11          0.614              1.915              2.826
 Vibration    12          0.623              1.887              2.508
 Vibration    13          0.627              1.874              2.389
 Vibration    14          0.631              1.861              2.280
 Vibration    15          0.649              1.804              1.922
 Vibration    16          0.656              1.784              1.823
 Vibration    17          0.660              1.772              1.771
 Vibration    18          0.662              1.763              1.733
 Vibration    19          0.667              1.750              1.679
 Vibration    20          0.672              1.736              1.622
 Vibration    21          0.689              1.685              1.452
 Vibration    22          0.707              1.632              1.302
 Vibration    23          0.714              1.612              1.251
 Vibration    24          0.736              1.550              1.112
 Vibration    25          0.741              1.537              1.085
 Vibration    26          0.750              1.512              1.038
 Vibration    27          0.771              1.458              0.942
 Vibration    28          0.782              1.429              0.896
 Vibration    29          0.789              1.412              0.869
 Vibration    30          0.799              1.384              0.828
 Vibration    31          0.812              1.354              0.786
 Vibration    32          0.832              1.304              0.721
 Vibration    33          0.848              1.268              0.678
 Vibration    34          0.867              1.224              0.630
 Vibration    35          0.890              1.172              0.576
 Vibration    36          0.922              1.104              0.511

                           ! Non-Optimized Parameters !
 Normal termination of Gaussian 16 at Sun Feb 11 11:30:22 2024.
