 Gaussian 16, Revision A.03,
 Gaussian 16:  ES64L-G16RevA.03 25-Dec-2016

 ----------------------------------------------------------------
 #P UB3LYP/6-311++G(d,p) SCRF=(PCM,Solvent=n,n-DiMethylFormamide)
 ----------------------------------------------------------------

 -------
 Reduced
 -------
 Symbolic Z-matrix:
 Charge = -2 Multiplicity = 1

                         Standard orientation:
 ---------------------------------------------------------------------
 Center     Atomic      Atomic             Coordinates (Angstroms)
 Number     Number       Type             X           Y           Z
 ---------------------------------------------------------------------
      1          6           0       -4.661763   -0.259291    0.001212
      2          6           0       -3.228555    0.204550   -0.006205
      3          6           0       -2.915121    1.587639    0.037754
      4          6           0       -1.610245    2.023615    0.033524
      5          6           0       -0.524621    1.112422   -0.005785
      6          6           0        0.821248    1.657663   -0.011414
      7          8           0        1.055080    2.917933   -0.012306
      8          6           0        1.881460    0.673664   -0.009913
      9          6           0        3.232989    1.100526   -0.013491
     10          6           0        4.286646    0.209463   -0.005094
     11          6           0        4.020483   -1.189605    0.007766
     12          6           0        2.715745   -1.637065    0.014509
     13          6           0        1.609911   -0.746243    0.005819
     14          6           0        0.271001   -1.282816    0.010697
     15          8           0        0.077083   -2.570821    0.051584
     16          6           0       -0.800402   -0.310732   -0.021961
     17          6           0       -2.186022   -0.725676   -0.036656
     18          7           0       -2.482347   -2.090104   -0.124562
     19          1           0       -4.908529   -0.896633    0.873682
     20          1           0       -4.913441   -0.854748   -0.885680
     21          1           0       -5.350574    0.591118    0.043578
     22          1           0       -3.732677    2.307367    0.054149
     23          1           0       -1.360669    3.078615    0.051483
     24          1           0        3.398788    2.173559   -0.021753
     25          1           0        5.313670    0.570724   -0.007590
     26          1           0        4.844116   -1.901727    0.012460
     27          1           0        2.482548   -2.696897    0.025474
     28          1           0       -3.309928   -2.380560    0.380327
     29          1           0       -1.620703   -2.645669    0.026999
 ---------------------------------------------------------------------

 SCF Done:  E(UB3LYP) =  -783.894305502     A.U. after   17 cycles

 The electronic state is 1-A.
 Alpha  occ. eigenvalues --  -19.02289 -19.01712 -14.27758 -10.18250 -10.17441
 Alpha  occ. eigenvalues --  -10.16988 -10.15329 -10.14702 -10.14658 -10.14379
 Alpha  occ. eigenvalues --  -10.14373 -10.14215 -10.14137 -10.13865 -10.13258
 Alpha  occ. eigenvalues --  -10.13135 -10.13112 -10.13008  -0.94246  -0.93627
 Alpha  occ. eigenvalues --   -0.88214  -0.82253  -0.80482  -0.75746  -0.72519
 Alpha  occ. eigenvalues --   -0.72030  -0.69748  -0.66651  -0.62638  -0.59863
 Alpha  occ. eigenvalues --   -0.58227  -0.54937  -0.52465  -0.51391  -0.48607
 Alpha  occ. eigenvalues --   -0.46954  -0.44380  -0.43479  -0.42538  -0.41247
 Alpha  occ. eigenvalues --   -0.40542  -0.40262  -0.39530  -0.38743  -0.37692
 Alpha  occ. eigenvalues --   -0.36373  -0.36232  -0.35174  -0.34563  -0.33933
 Alpha  occ. eigenvalues --   -0.32624  -0.32125  -0.31251  -0.30277  -0.29798
 Alpha  occ. eigenvalues --   -0.27795  -0.22765  -0.22331  -0.21036  -0.20404
 Alpha  occ. eigenvalues --   -0.19448  -0.18321  -0.10147
 Alpha virt. eigenvalues --   -0.01907  -0.00159   0.00517   0.00682   0.01267
 Alpha virt. eigenvalues --    0.02208   0.02411   0.03003   0.03899   0.04210
 Alpha virt. eigenvalues --    0.04413   0.04771   0.05400   0.06443   0.06544

  Beta  occ. eigenvalues --  -19.02289 -19.01712 -14.27758 -10.18250 -10.17441
  Beta  occ. eigenvalues --  -10.16988 -10.15329 -10.14702 -10.14658 -10.14379
  Beta  occ. eigenvalues --  -10.14373 -10.14215 -10.14137 -10.13865 -10.13258
  Beta  occ. eigenvalues --  -10.13135 -10.13112 -10.13008  -0.94246  -0.93627
  Beta  occ. eigenvalues --   -0.88214  -0.82253  -0.80482  -0.75746  -0.72519
  Beta  occ. eigenvalues --   -0.72030  -0.69748  -0.66651  -0.62638  -0.59863
  Beta  occ. eigenvalues --   -0.58227  -0.54937  -0.52465  -0.51391  -0.48607
  Beta  occ. eigenvalues --   -0.46954  -0.44380  -0.43479  -0.42538  -0.41247
  Beta  occ. eigenvalues --   -0.40542  -0.40262  -0.39530  -0.38743  -0.37692
  Beta  occ. eigenvalues --   -0.36373  -0.36232  -0.35174  -0.34563  -0.33933
  Beta  occ. eigenvalues --   -0.32624  -0.32125  -0.31251  -0.30277  -0.29798
  Beta  occ. eigenvalues --   -0.27795  -0.22765  -0.22331  -0.21036  -0.20404
  Beta  occ. eigenvalues --   -0.19448  -0.18321  -0.10147
  Beta virt. eigenvalues --   -0.01907  -0.00159   0.00517   0.00682   0.01267
  Beta virt. eigenvalues --    0.02208   0.02411   0.03003   0.03899   0.04210
  Beta virt. eigenvalues --    0.04413   0.04771   0.05400   0.06443   0.06544

 Mulliken charges and spin densities:
               1          2
     1  C   -0.466665  -0.000000
     2  C    0.556110  -0.000000
     3  C   -0.881869   0.000000
     4  C   -0.251449  -0.000000
     5  C    0.463033  -0.000000
     6  C   -0.615769   0.000000
     7  O   -0.651035  -0.000000
     8  C    0.091026   0.000000
     9  C   -0.001533   0.000000
    10  C   -0.485569  -0.000000
    11  C   -0.563932   0.000000
    12  C    0.051519   0.000000
    13  C    0.169079  -0.000000
    14  C   -0.482404  -0.000000
    15  O   -0.627801  -0.000000
    16  C    0.090277   0.000000
    17  C    0.176194   0.000000
    18  N   -0.454451   0.000000
    19  H    0.152911  -0.000000
    20  H    0.158832  -0.000000
    21  H    0.157285  -0.000000
    22  H    0.117579   0.000000
    23  H    0.140178  -0.000000
    24  H    0.140463   0.000000
    25  H    0.154850  -0.000000
    26  H    0.154149   0.000000
    27  H    0.145703   0.000000
    28  H    0.236892   0.000000
    29  H    0.326397  -0.000000
 Sum of Mulliken charges =  -2.00000   0.00000

 Dipole moment (field-independent basis, Debye):
    X=             -5.3963    Y=             -3.1301    Z=              1.0825  Tot=              6.3317
 Quadrupole moment (field-independent basis, Debye-Ang):
   XX=           -136.7623   YY=           -165.7537   ZZ=           -119.7071
   XY=             -5.6245   XZ=             -3.6767   YZ=             -2.4929

 Normal termination of Gaussian 16 at Sun Jan 14 01:27:54 2024.
