 Gaussian 16, Revision A.03,
 Gaussian 16:  ES64L-G16RevA.03 25-Dec-2016

 --------------------------------------
 #P UB3LYP/6-311++G(d,p) nosym opt freq
 --------------------------------------

 -------
 Reduced
 -------
 Symbolic Z-matrix:
 Charge = -2 Multiplicity = 1

 SCF Done:  E(UB3LYP) =  -5685.90008834     A.U. after   41 cycles
 SCF Done:  E(UB3LYP) =  -5685.93354083     A.U. after   34 cycles
 SCF Done:  E(UB3LYP) =  -5685.94283047     A.U. after   24 cycles
 SCF Done:  E(UB3LYP) =  -5685.94484056     A.U. after   20 cycles
 SCF Done:  E(UB3LYP) =  -5685.94655297     A.U. after   20 cycles
 SCF Done:  E(UB3LYP) =  -5685.94836646     A.U. after   19 cycles
 SCF Done:  E(UB3LYP) =  -5685.94970499     A.U. after   18 cycles
 SCF Done:  E(UB3LYP) =  -5685.95025929     A.U. after   19 cycles
 SCF Done:  E(UB3LYP) =  -5685.95043430     A.U. after   19 cycles
 SCF Done:  E(UB3LYP) =  -5685.95053015     A.U. after   19 cycles
 SCF Done:  E(UB3LYP) =  -5685.95054571     A.U. after   18 cycles
 SCF Done:  E(UB3LYP) =  -5685.95055112     A.U. after   18 cycles
 SCF Done:  E(UB3LYP) =  -5685.95055185     A.U. after   17 cycles
 SCF Done:  E(UB3LYP) =  -5685.95055204     A.U. after   17 cycles
 SCF Done:  E(UB3LYP) =  -5685.95055216     A.U. after   17 cycles
 SCF Done:  E(UB3LYP) =  -5685.95055223     A.U. after   13 cycles
 Optimization completed.
    -- Stationary point found.
 Normal termination of Gaussian 16 at Sun Dec 17 22:18:22 2023.

 ----------------------------------------------------------------------
 #P Geom=AllCheck Guess=TCheck SCRF=Check GenChk UB3LYP/6-311++G(d,p) F
 req
 ----------------------------------------------------------------------

 Structure from the checkpoint file:  "015-an.chk"
 -------
 Reduced
 -------
 Charge = -2 Multiplicity = 1

                          Input orientation:
 ---------------------------------------------------------------------
 Center     Atomic      Atomic             Coordinates (Angstroms)
 Number     Number       Type             X           Y           Z
 ---------------------------------------------------------------------
      1          6           0       -1.810379    0.308363   -1.084873
      2          6           0       -1.168797    0.132723    0.313868
      3          6           0       -1.874965   -1.049284    1.006700
      4          6           0       -1.440858    1.402357    1.158277
      5          6           0        0.355302   -0.069558    0.161619
      6          6           0        0.975523   -1.227755    0.626148
      7          6           0        2.375626   -1.540302    0.548424
      8          8           0        2.871796   -2.636699    1.002569
      9          6           0        3.108970   -0.489487   -0.086277
     10          6           0        2.508324    0.691752   -0.565183
     11         35           0        3.574908    2.087777   -1.422053
     12          6           0        1.112686    0.989535   -0.480555
     13          8           0        0.579732    2.082101   -0.925911
     14         35           0        5.031415   -0.806073   -0.249828
     15          1           0       -2.888102    0.519835   -0.998119
     16          1           0       -1.688162   -0.608963   -1.672649
     17          1           0       -1.312350    1.131764   -1.601296
     18          1           0       -1.750045   -1.981125    0.446418
     19          1           0       -2.950632   -0.837593    1.079956
     20          1           0       -1.491997   -1.213791    2.018692
     21          1           0       -1.054209    1.267687    2.175246
     22          1           0       -2.521820    1.604391    1.225549
     23          1           0       -0.934554    2.251202    0.693755
     24          1           0        0.392589   -2.008857    1.103836
 ---------------------------------------------------------------------

 SCF Done:  E(UB3LYP) =  -5685.95055223     A.U. after    2 cycles

 Alpha  occ. eigenvalues -- -482.56083-482.56048 -62.21353 -62.21318 -56.03357
 Alpha  occ. eigenvalues --  -56.03320 -56.03035 -56.03000 -56.02995 -56.02962
 Alpha  occ. eigenvalues --  -18.76436 -18.75973  -9.95340  -9.94309  -9.93959
 Alpha  occ. eigenvalues --   -9.93719  -9.93409  -9.93096  -9.92514  -9.92512
 Alpha  occ. eigenvalues --   -9.89988  -9.88331  -8.42304  -8.42268  -6.25340
 Alpha  occ. eigenvalues --   -6.25298  -6.24258  -6.24222  -6.24136  -6.24106
 Alpha  occ. eigenvalues --   -2.36453  -2.36413  -2.36165  -2.36125  -2.36072
 Alpha  occ. eigenvalues --   -2.36036  -2.35210  -2.35208  -2.35179  -2.35177
 Alpha  occ. eigenvalues --   -0.68487  -0.67710  -0.58746  -0.56528  -0.51576
 Alpha  occ. eigenvalues --   -0.50953  -0.46361  -0.45323  -0.43422  -0.40279
 Alpha  occ. eigenvalues --   -0.33814  -0.29480  -0.27268  -0.22220  -0.21984
 Alpha  occ. eigenvalues --   -0.21277  -0.18791  -0.17043  -0.16841  -0.16471
 Alpha  occ. eigenvalues --   -0.14047  -0.13691  -0.12021  -0.10933  -0.10562
 Alpha  occ. eigenvalues --   -0.10258  -0.09545  -0.08018  -0.07523  -0.06772
 Alpha  occ. eigenvalues --   -0.04870  -0.03581  -0.02928  -0.00815   0.02638
 Alpha  occ. eigenvalues --    0.03657   0.05539   0.06022   0.12914
 Alpha virt. eigenvalues --    0.15552   0.17884   0.18202   0.19147   0.19588
 Alpha virt. eigenvalues --    0.21003   0.21133   0.21259   0.22498   0.22767
 Alpha virt. eigenvalues --    0.23904   0.24586   0.24923   0.25117   0.25396

  Beta  occ. eigenvalues -- -482.56083-482.56048 -62.21353 -62.21318 -56.03357
  Beta  occ. eigenvalues --  -56.03320 -56.03035 -56.03000 -56.02995 -56.02962
  Beta  occ. eigenvalues --  -18.76436 -18.75973  -9.95340  -9.94309  -9.93959
  Beta  occ. eigenvalues --   -9.93719  -9.93409  -9.93096  -9.92514  -9.92512
  Beta  occ. eigenvalues --   -9.89988  -9.88331  -8.42304  -8.42268  -6.25340
  Beta  occ. eigenvalues --   -6.25298  -6.24258  -6.24222  -6.24136  -6.24106
  Beta  occ. eigenvalues --   -2.36453  -2.36413  -2.36165  -2.36125  -2.36072
  Beta  occ. eigenvalues --   -2.36036  -2.35210  -2.35208  -2.35179  -2.35177
  Beta  occ. eigenvalues --   -0.68487  -0.67710  -0.58746  -0.56528  -0.51576
  Beta  occ. eigenvalues --   -0.50953  -0.46361  -0.45323  -0.43422  -0.40279
  Beta  occ. eigenvalues --   -0.33814  -0.29480  -0.27268  -0.22220  -0.21984
  Beta  occ. eigenvalues --   -0.21277  -0.18791  -0.17043  -0.16841  -0.16471
  Beta  occ. eigenvalues --   -0.14047  -0.13691  -0.12021  -0.10933  -0.10562
  Beta  occ. eigenvalues --   -0.10258  -0.09545  -0.08018  -0.07523  -0.06772
  Beta  occ. eigenvalues --   -0.04870  -0.03581  -0.02928  -0.00815   0.02638
  Beta  occ. eigenvalues --    0.03657   0.05539   0.06022   0.12914
  Beta virt. eigenvalues --    0.15552   0.17884   0.18202   0.19147   0.19588
  Beta virt. eigenvalues --    0.21003   0.21133   0.21259   0.22498   0.22767
  Beta virt. eigenvalues --    0.23904   0.24586   0.24923   0.25117   0.25396

 Mulliken charges and spin densities:
               1          2
     1  C   -0.696160  -0.000000
     2  C    0.818198  -0.000000
     3  C   -0.574150   0.000000
     4  C   -0.696514   0.000000
     5  C    1.369111   0.000000
     6  C   -0.234832  -0.000000
     7  C   -1.251435   0.000000
     8  O   -0.500776  -0.000000
     9  C    0.826079  -0.000000
    10  C   -0.215137  -0.000000
    11  Br  -0.347770   0.000000
    12  C   -0.852731   0.000000
    13  O   -0.454249   0.000000
    14  Br  -0.346126  -0.000000
    15  H    0.064495   0.000000
    16  H    0.087742   0.000000
    17  H    0.206939  -0.000000
    18  H    0.110107  -0.000000
    19  H    0.106109   0.000000
    20  H    0.110019   0.000000
    21  H    0.087837   0.000000
    22  H    0.064454   0.000000
    23  H    0.206836  -0.000000
    24  H    0.111955  -0.000000
 Sum of Mulliken charges =  -2.00000   0.00000

 Dipole moment (field-independent basis, Debye):
    X=            -20.0790    Y=              0.7327    Z=              1.1564  Tot=             20.1257
 Quadrupole moment (field-independent basis, Debye-Ang):
   XX=           -207.8634   YY=           -165.3003   ZZ=           -131.7739
   XY=             16.2219   XZ=              2.3650   YZ=             18.3024

  Exact polarizability: 292.402  -7.437 211.567 -20.999 -32.088 162.433
 Approx polarizability: 392.610 -14.305 340.664 -22.954 -60.885 244.715

                      1                      2                      3
                      A                      A                      A
 Frequencies --     42.0575                55.3740                78.9939
 Red. masses --      9.9017                 4.5592                 4.4362
 Frc consts  --      0.0103                 0.0082                 0.0163
 IR Inten    --      1.7979                 6.3958                 0.2877

                      4                      5                      6
                      A                      A                      A
 Frequencies --    128.0935               143.0717               170.0470
 Red. masses --     44.3876                 6.8839                 7.2949
 Frc consts  --      0.4291                 0.0830                 0.1243
 IR Inten    --      1.7926                 5.2941                 6.6348

                      7                      8                      9
                      A                      A                      A
 Frequencies --    206.9801               220.5044               244.4346
 Red. masses --      8.2368                 4.9529                 4.0755
 Frc consts  --      0.2079                 0.1419                 0.1435
 IR Inten    --      1.7549                 0.4611                 0.2938

                     10                     11                     12
                      A                      A                      A
 Frequencies --    252.6585               254.3977               266.7735
 Red. masses --      1.0847                15.1563                 6.2914
 Frc consts  --      0.0408                 0.5779                 0.2638
 IR Inten    --      0.0174                 1.7704                 0.7006

                     13                     14                     15
                      A                      A                      A
 Frequencies --    291.9913               300.6784               320.5092
 Red. masses --      1.4756                 1.9961                 1.0941
 Frc consts  --      0.0741                 0.1063                 0.0662
 IR Inten    --      2.1603                 0.8553                 0.1422

                     16                     17                     18
                      A                      A                      A
 Frequencies --    338.6668               340.1775               403.3613
 Red. masses --      2.8624                 5.2257                 2.6604
 Frc consts  --      0.1934                 0.3563                 0.2550
 IR Inten    --      0.1896                 9.0791                 0.0161

                     19                     20                     21
                      A                      A                      A
 Frequencies --    416.3010               474.0260               482.1880
 Red. masses --      2.6150                 4.1547                 9.8224
 Frc consts  --      0.2670                 0.5500                 1.3456
 IR Inten    --      2.3189                 0.3239                10.0731

                     22                     23                     24
                      A                      A                      A
 Frequencies --    540.3664               570.4708               664.2334
 Red. masses --      4.9422                 4.1643                 3.7878
 Frc consts  --      0.8502                 0.7985                 0.9846
 IR Inten    --      1.0759                 0.9240                 0.0291

                     25                     26                     27
                      A                      A                      A
 Frequencies --    671.9924               729.9730               742.9613
 Red. masses --      6.3192                 7.8937                 8.1637
 Frc consts  --      1.6813                 2.4782                 2.6550
 IR Inten    --      2.9616                44.8414                 4.8348

                     28                     29                     30
                      A                      A                      A
 Frequencies --    810.0394               833.0010               836.0889
 Red. masses --      4.8111                 4.6057                 1.6977
 Frc consts  --      1.8600                 1.8829                 0.6992
 IR Inten    --    115.3052                78.6039                12.9340

                     31                     32                     33
                      A                      A                      A
 Frequencies --    915.1401               926.6026               952.0386
 Red. masses --      1.7960                 1.7548                 1.2151
 Frc consts  --      0.8862                 0.8877                 0.6489
 IR Inten    --      0.2848                 9.2198                 0.3505

                     34                     35                     36
                      A                      A                      A
 Frequencies --    966.9312              1034.7587              1046.4940
 Red. masses --      5.0405                 1.4966                 1.3788
 Frc consts  --      2.7766                 0.9441                 0.8897
 IR Inten    --     16.9280                20.0115                 0.0604

                     37                     38                     39
                      A                      A                      A
 Frequencies --   1085.7463              1119.2968              1207.0762
 Red. masses --      2.9651                10.0606                 2.6180
 Frc consts  --      2.0594                 7.4262                 2.2474
 IR Inten    --     84.8933               176.1352                 6.4483

                     40                     41                     42
                      A                      A                      A
 Frequencies --   1211.4983              1253.2091              1268.7380
 Red. masses --      2.3343                 2.2340                 2.5439
 Frc consts  --      2.0186                 2.0672                 2.4127
 IR Inten    --     35.8497                65.1191                24.0873

                     43                     44                     45
                      A                      A                      A
 Frequencies --   1338.2928              1350.1210              1358.3422
 Red. masses --      4.3548                 1.2140                 1.7358
 Frc consts  --      4.5954                 1.3038                 1.8870
 IR Inten    --    111.7399                16.6513                34.6418

                     46                     47                     48
                      A                      A                      A
 Frequencies --   1382.0914              1389.9975              1417.5251
 Red. masses --      2.8702                 1.5687                 5.8223
 Frc consts  --      3.2303                 1.7858                 6.8929
 IR Inten    --      7.9764                80.8011                37.8200

                     49                     50                     51
                      A                      A                      A
 Frequencies --   1442.3196              1457.3238              1485.1308
 Red. masses --      3.4531                 1.0475                 1.0483
 Frc consts  --      4.2324                 1.3107                 1.3623
 IR Inten    --    745.7546                 1.1629                 0.6507

                     52                     53                     54
                      A                      A                      A
 Frequencies --   1486.5795              1493.7314              1511.4657
 Red. masses --      1.1934                 1.0543                 1.0538
 Frc consts  --      1.5538                 1.3860                 1.4184
 IR Inten    --     53.8539                 2.5491                 1.6150

                     55                     56                     57
                      A                      A                      A
 Frequencies --   1529.1457              1592.3400              2942.2186
 Red. masses --      1.0580                 7.3778                 1.0501
 Frc consts  --      1.4575                11.0217                 5.3558
 IR Inten    --      3.6464                86.4084                65.6823

                     58                     59                     60
                      A                      A                      A
 Frequencies --   2952.6281              2984.6491              3023.7889
 Red. masses --      1.0489                 1.0436                 1.0844
 Frc consts  --      5.3877                 5.4771                 5.8417
 IR Inten    --    326.2730               207.7737                61.7458

                     61                     62                     63
                      A                      A                      A
 Frequencies --   3028.1197              3044.4980              3070.6463
 Red. masses --      1.0852                 1.0889                 1.1011
 Frc consts  --      5.8630                 5.9465                 6.1170
 IR Inten    --     23.2248                81.3084                57.2155

                     64                     65                     66
                      A                      A                      A
 Frequencies --   3086.0035              3089.2186              3148.5780
 Red. masses --      1.1000                 1.0992                 1.0857
 Frc consts  --      6.1722                 6.1807                 6.3413
 IR Inten    --      0.0217                15.5131                39.2974

 - Thermochemistry -
 -------------------
 Temperature   298.150 Kelvin.  Pressure   1.00000 Atm.
 Atom     1 has atomic number  6 and mass  12.00000

 Molecular mass:   319.90475 amu.
 Principal axes and moments of inertia in atomic units:
                           1         2         3
     Eigenvalues --  3144.868206571.403679318.35119
           X            0.98877  -0.02934   0.14651
           Y           -0.03762   0.90006   0.43414
           Z           -0.14461  -0.43478   0.88885
 This molecule is an asymmetric top.
 Rotational symmetry number  1.
 Warning -- assumption of classical behavior for rotation
           may cause significant error
 Rotational temperatures (Kelvin)      0.02754     0.01318     0.00929
 Rotational constants (GHZ):           0.57387     0.27464     0.19368
 Zero-point vibrational energy     451127.9 (Joules/Mol)
                                  107.82216 (Kcal/Mol)
 Warning -- explicit consideration of  23 degrees of freedom as
           vibrations may cause significant error
 Vibrational temperatures:     60.51    79.67   113.65   184.30   205.85
          (Kelvin)            244.66   297.80   317.26   351.69   363.52
                              366.02   383.83   420.11   432.61   461.14
                              487.27   489.44   580.35   598.96   682.02
                              693.76   777.47   820.78   955.68   966.85
                             1050.27  1068.96  1165.47  1198.50  1202.95
                             1316.68  1333.17  1369.77  1391.20  1488.79
                             1505.67  1562.15  1610.42  1736.71  1743.08
                             1803.09  1825.43  1925.50  1942.52  1954.35
                             1988.52  1999.90  2039.50  2075.18  2096.76
                             2136.77  2138.86  2149.15  2174.66  2200.10
                             2291.02  4233.20  4248.17  4294.24  4350.56
                             4356.79  4380.35  4417.98  4440.07  4444.70
                             4530.10

 Zero-point correction=                           0.171826 (Hartree/Particle)
 Thermal correction to Energy=                    0.186612
 Thermal correction to Enthalpy=                  0.187556
 Thermal correction to Gibbs Free Energy=         0.128942
 Sum of electronic and zero-point Energies=          -5685.778727
 Sum of electronic and thermal Energies=             -5685.763940
 Sum of electronic and thermal Enthalpies=           -5685.762996
 Sum of electronic and thermal Free Energies=        -5685.821610

                     E (Thermal)             CV                S
                      KCal/Mol        Cal/Mol-Kelvin    Cal/Mol-Kelvin
 Total                  117.101             54.384            123.364
 Electronic               0.000              0.000              0.000
 Translational            0.889              2.981             43.184
 Rotational               0.889              2.981             33.620
 Vibrational            115.323             48.423             46.560
 Vibration     1          0.595              1.980              5.160
 Vibration     2          0.596              1.975              4.616
 Vibration     3          0.600              1.963              3.916
 Vibration     4          0.611              1.925              2.974
 Vibration     5          0.616              1.910              2.762
 Vibration     6          0.625              1.879              2.435
 Vibration     7          0.641              1.830              2.070
 Vibration     8          0.647              1.810              1.955
 Vibration     9          0.660              1.772              1.770
 Vibration    10          0.664              1.758              1.712
 Vibration    11          0.665              1.755              1.700
 Vibration    12          0.672              1.734              1.617
 Vibration    13          0.687              1.689              1.462
 Vibration    14          0.693              1.672              1.413
 Vibration    15          0.706              1.634              1.308
 Vibration    16          0.719              1.598              1.218
 Vibration    17          0.720              1.595              1.211
 Vibration    18          0.769              1.463              0.950
 Vibration    19          0.780              1.435              0.905
 Vibration    20          0.831              1.308              0.726
 Vibration    21          0.838              1.290              0.704
 Vibration    22          0.895              1.161              0.564
 Vibration    23          0.927              1.095              0.503

 Optimization completed.
    -- Stationary point found.
 Normal termination of Gaussian 16 at Sun Dec 17 22:52:06 2023.
