 Q-Chem 5.4, Q-Chem, Inc., Pleasanton, CA (2021)
 Q-Chem 5.4.0 for Intel X86 EM64T Linux

User input:
--------------------------------------------------------------
$molecule
-3 2
O                  5.8692480000     -1.6302070000      1.2351700000
S                  5.4620870000     -0.8802640000      0.0068830000
O                  6.2065870000      0.4080810000     -0.1441050000
O                  5.4658640000     -1.7153870000     -1.2262980000
C                  3.7230970000     -0.3968030000      0.2958720000
C                  3.4350770000      0.4140040000      1.4186780000
C                  2.1371040000      0.8005920000      1.6730560000
C                  1.0652680000      0.4078500000      0.8359750000
C                 -0.2946550000      0.8522450000      1.1603600000
O                 -0.5297340000      1.5749080000      2.1663390000
C                 -1.3564820000      0.4094090000      0.2519870000
C                 -2.7007430000      0.7967280000      0.4962260000
C                 -3.7230910000      0.3968070000     -0.3395290000
C                 -3.4350760000     -0.4140020000     -1.4623260000
C                 -2.1370990000     -0.8005930000     -1.7167020000
C                 -1.0652690000     -0.4078510000     -0.8796220000
C                  0.2946600000     -0.8522440000     -1.2040080000
O                  0.5297360000     -1.5749030000     -2.2099900000
C                  1.3564830000     -0.4094050000     -0.2956360000
C                  2.7007470000     -0.7967200000     -0.5398790000
S                 -5.4620950000      0.8802580000     -0.0505240000
O                 -5.8693090000      1.6300850000     -1.2788600000
O                 -6.2065650000     -0.4080880000      0.1005980000
O                 -5.4658510000      1.7154890000      1.1825830000
H                  4.2457940000      0.7230320000      2.0690540000
H                  1.8943410000      1.4221040000      2.5282490000
H                 -2.9122640000      1.4171390000      1.3576120000
H                 -4.2457890000     -0.7230290000     -2.1127060000
H                 -1.8943370000     -1.4221070000     -2.5718940000
H                  2.9122640000     -1.4171260000     -1.4012700000
$end

$rem
BASIS  =  6-311++G(d,p)
GUI  =  2
JOB_TYPE  =  SP
METHOD  =  B3LYP
SCF_CONVERGENCE  = 8
SOLVENT_METHOD = sm12
$end

$smx
solvent dimethylformamide
charges CM5
$end

--------------------------------------------------------------

             Standard Nuclear Orientation (Angstroms)
    I     Atom           X                Y                Z
 ----------------------------------------------------------------
    1      O       5.8692480000    -1.6302070000     1.2351700000
    2      S       5.4620870000    -0.8802640000     0.0068830000
    3      O       6.2065870000     0.4080810000    -0.1441050000
    4      O       5.4658640000    -1.7153870000    -1.2262980000
    5      C       3.7230970000    -0.3968030000     0.2958720000
    6      C       3.4350770000     0.4140040000     1.4186780000
    7      C       2.1371040000     0.8005920000     1.6730560000
    8      C       1.0652680000     0.4078500000     0.8359750000
    9      C      -0.2946550000     0.8522450000     1.1603600000
   10      O      -0.5297340000     1.5749080000     2.1663390000
   11      C      -1.3564820000     0.4094090000     0.2519870000
   12      C      -2.7007430000     0.7967280000     0.4962260000
   13      C      -3.7230910000     0.3968070000    -0.3395290000
   14      C      -3.4350760000    -0.4140020000    -1.4623260000
   15      C      -2.1370990000    -0.8005930000    -1.7167020000
   16      C      -1.0652690000    -0.4078510000    -0.8796220000
   17      C       0.2946600000    -0.8522440000    -1.2040080000
   18      O       0.5297360000    -1.5749030000    -2.2099900000
   19      C       1.3564830000    -0.4094050000    -0.2956360000
   20      C       2.7007470000    -0.7967200000    -0.5398790000
   21      S      -5.4620950000     0.8802580000    -0.0505240000
   22      O      -5.8693090000     1.6300850000    -1.2788600000
   23      O      -6.2065650000    -0.4080880000     0.1005980000
   24      O      -5.4658510000     1.7154890000     1.1825830000
   25      H       4.2457940000     0.7230320000     2.0690540000
   26      H       1.8943410000     1.4221040000     2.5282490000
   27      H      -2.9122640000     1.4171390000     1.3576120000
   28      H      -4.2457890000    -0.7230290000    -2.1127060000
   29      H      -1.8943370000    -1.4221070000    -2.5718940000
   30      H       2.9122640000    -1.4171260000    -1.4012700000
 ----------------------------------------------------------------

   17   -1935.5724753540      2.61e-09  Convergence criterion met
 Total energy in the final basis set =    -1936.0361350542

                    Orbital Energies (a.u.)
 --------------------------------------------------------------

 Alpha MOs
 -- Occupied --
-89.0287 -89.0287 -19.0809 -19.0809 -19.0728 -19.0728 -19.0713 -19.0713
-19.0713 -19.0713 -10.2307 -10.2307 -10.1965 -10.1965 -10.1861 -10.1861
-10.1844 -10.1844 -10.1830 -10.1830 -10.1822 -10.1822 -10.1822 -10.1822
 -8.0872  -8.0872  -6.0499  -6.0499  -6.0498  -6.0498  -6.0492  -6.0492
 -1.0867  -1.0867  -1.0053  -1.0029  -0.9518  -0.9518  -0.9474  -0.9474
 -0.8710  -0.8624  -0.7975  -0.7632  -0.7608  -0.7533  -0.6789  -0.6632
 -0.6349  -0.6137  -0.5883  -0.5725  -0.5578  -0.5398  -0.5097  -0.4845
 -0.4798  -0.4712  -0.4709  -0.4400  -0.4383  -0.4347  -0.4328  -0.4325
 -0.4283  -0.4262  -0.4252  -0.4149  -0.4125  -0.4030  -0.3829  -0.3788
 -0.3744  -0.3618  -0.3513  -0.3439  -0.3127  -0.3123  -0.3123  -0.3123
 -0.2900  -0.2894  -0.2783  -0.2771  -0.2748  -0.2742  -0.2706  -0.2637
 -0.2555  -0.2481  -0.2451  -0.2399  -0.2334  -0.2334  -0.1493

 Beta MOs
 -- Occupied --
-89.0287 -89.0287 -19.0749 -19.0749 -19.0728 -19.0728 -19.0713 -19.0713
-19.0713 -19.0713 -10.2294 -10.2293 -10.1960 -10.1960 -10.1856 -10.1856
-10.1836 -10.1836 -10.1824 -10.1824 -10.1822 -10.1822 -10.1819 -10.1819
 -8.0872  -8.0872  -6.0499  -6.0499  -6.0498  -6.0498  -6.0492  -6.0492
 -1.0866  -1.0866  -0.9950  -0.9924  -0.9517  -0.9517  -0.9474  -0.9474
 -0.8684  -0.8613  -0.7935  -0.7608  -0.7597  -0.7514  -0.6719  -0.6618
 -0.6328  -0.6125  -0.5875  -0.5715  -0.5554  -0.5381  -0.5087  -0.4832
 -0.4777  -0.4706  -0.4696  -0.4393  -0.4378  -0.4329  -0.4324  -0.4322
 -0.4278  -0.4243  -0.4157  -0.4114  -0.4101  -0.3994  -0.3757  -0.3726
 -0.3614  -0.3595  -0.3420  -0.3411  -0.3125  -0.3122  -0.3122  -0.3119
 -0.2872  -0.2811  -0.2780  -0.2767  -0.2746  -0.2741  -0.2628  -0.2546
 -0.2440  -0.2426  -0.2407  -0.2344  -0.2333  -0.2333

          Ground-State Mulliken Net Atomic Charges

     Atom                 Charge (a.u.)    Spin (a.u.)
  --------------------------------------------------------
      1 O                    -0.256023       0.000033
      2 S                     0.859169      -0.000145
      3 O                    -0.256338       0.000046
      4 O                    -0.356260       0.000420
      5 C                    -1.267869       0.024201
      6 C                     0.182351       0.043399
      7 C                     0.412958       0.023298
      8 C                    -0.001437       0.045005
      9 C                    -1.002935       0.068986
     10 O                    -0.235178       0.224969
     11 C                    -0.255624       0.055870
     12 C                     0.005035       0.020881
     13 C                    -1.267831       0.024198
     14 C                     0.182352       0.043398
     15 C                     0.412974       0.023297
     16 C                    -0.001439       0.045000
     17 C                    -1.002953       0.068985
     18 O                    -0.235176       0.224966
     19 C                    -0.255619       0.055876
     20 C                     0.005031       0.020878
     21 S                     0.859158      -0.000145
     22 O                    -0.256031       0.000033
     23 O                    -0.256332       0.000046
     24 O                    -0.356263       0.000420
     25 H                     0.277779      -0.003334
     26 H                     0.257408      -0.001699
     27 H                     0.136950      -0.001924
     28 H                     0.277782      -0.003334
     29 H                     0.257409      -0.001699
     30 H                     0.136951      -0.001923
  --------------------------------------------------------
  Sum of atomic charges =    -3.000000

                    Cartesian Multipole Moments
 -----------------------------------------------------------------
    Charge (ESU x 10^10)
               -14.4096
    Dipole Moment (Debye)
         X      -0.0000      Y       0.0000      Z       0.3144
       Tot       0.3144
    Quadrupole Moments (Debye-Ang)
        XX    -534.1303     XY      61.5220     YY    -197.5264
        XZ       4.4304     YZ     -12.2939     ZZ    -196.0384

 Total job time:  971.60s(wall), 7477.15s(cpu)
        *  Thank you very much for using Q-Chem.  Have a nice day.  *
