 Q-Chem 5.4, Q-Chem, Inc., Pleasanton, CA (2021)
 Q-Chem 5.4.0 for Intel X86 EM64T Linux

User input:
--------------------------------------------------------------
$molecule
0 1
C                  5.7698950000     -5.2881140000      1.2474400000
C                  6.7434180000     -5.1503550000      0.2665560000
C                  6.6272840000     -4.1455210000     -0.6882900000
C                  4.6831330000     -4.4162820000      1.2658370000
C                  4.5592030000     -3.3922000000      0.2971990000
C                  5.5499990000     -3.2498890000     -0.7031830000
C                  3.6605350000     -4.6039800000      2.3419720000
C                  2.5083380000     -3.6784880000      2.3585640000
C                  2.3836170000     -2.7077280000      1.4468510000
C                  3.3752020000     -2.4861230000      0.3622040000
O                  3.7595570000     -5.4839480000      3.1823640000
O                  3.1814120000     -1.5747190000     -0.4294800000
H                  5.8300500000     -6.0590830000      2.0051970000
C                  5.5147300000     -2.1948080000     -1.7804600000
H                  7.5931080000     -5.8233030000      0.2429380000
H                  7.3926820000     -4.0456920000     -1.4503240000
H                  1.7821460000     -3.8370550000      3.1483530000
H                  1.5460570000     -2.0185220000      1.4423820000
H                  5.5012710000     -1.1882280000     -1.3579470000
H                  4.6133350000     -2.2730720000     -2.3913380000
H                  6.3893270000     -2.2953020000     -2.4261480000
$end
$rem
MAX_SCF_CYCLES=200
BASIS  =  6-311++G(d,p)
GUI  =  2
JOB_TYPE  =  SP
METHOD  =  B3LYP
SOLVENT_METHOD = COSMO
$end
$solvent
dielectric 37.219
opticaldielectric 1.43
$end

--------------------------------------------------------------

             Standard Nuclear Orientation (Angstroms)
    I     Atom           X                Y                Z
 ----------------------------------------------------------------
    1      C       0.1475477065    -2.1235176345     0.0005240331
    2      C      -1.2072190795    -2.4292380132     0.0005012293
    3      C      -2.1484075436    -1.4049951679     0.0000254372
    4      C       0.5522779617    -0.7902230601     0.0001647052
    5      C      -0.4002600561     0.2562153702    -0.0001497913
    6      C      -1.7812490484    -0.0529167608    -0.0002438704
    7      C       2.0222919699    -0.5108265083    -0.0001949271
    8      C       2.4488251023     0.9042486719     0.0004254949
    9      C       1.5550643484     1.8994081595    -0.0000314081
   10      C       0.0871907062     1.6666944593     0.0000540781
   11      O       2.8513126960    -1.4070027655    -0.0009041256
   12      O      -0.6581508786     2.6359421186     0.0005717242
   13      H       0.9057584005    -2.8963850207     0.0007262153
   14      C      -2.8770489934     0.9835136056    -0.0006043637
   15      H      -1.5331332835    -3.4632446540     0.0008406182
   16      H      -3.2041937306    -1.6536138426    -0.0001381195
   17      H       3.5193051347     1.0784249539     0.0007445957
   18      H       1.8479287929     2.9438037038    -0.0000199054
   19      H      -2.8115914149     1.6384046675    -0.8716581386
   20      H      -2.8115786840     1.6389917487     0.8699541772
   21      H      -3.8518681984     0.4919248880    -0.0006139342
 ----------------------------------------------------------------

    9    -574.5829464816      3.75e-06  Convergence criterion met
 Total energy in the final basis set =     -574.5829464816
    5    -574.5962263004      2.83e-06  Convergence criterion met
 Total energy in the final basis set =     -574.5962263004

                    Orbital Energies (a.u.)
 --------------------------------------------------------------

 Alpha MOs
 -- Occupied --
-19.1375 -19.1352 -10.2853 -10.2848 -10.2115 -10.2096 -10.2089 -10.2080
-10.2076 -10.1948 -10.1934 -10.1918 -10.1670  -1.0707  -1.0680  -0.8901
 -0.8400  -0.7952  -0.7744  -0.7141  -0.6888  -0.6428  -0.6380  -0.5723
 -0.5382  -0.5328  -0.5070  -0.4858  -0.4663  -0.4584  -0.4562  -0.4342
 -0.4279  -0.4270  -0.4247  -0.4103  -0.3894  -0.3771  -0.3708  -0.3662
 -0.3091  -0.2886  -0.2800  -0.2758  -0.2685

          Ground-State Mulliken Net Atomic Charges

     Atom                 Charge (a.u.)
  ----------------------------------------
      1 C                     0.523524
      2 C                    -0.541995
      3 C                    -0.571496
      4 C                     0.215096
      5 C                     0.181480
      6 C                     0.781728
      7 C                    -0.373333
      8 C                     0.032613
      9 C                    -0.219389
     10 C                    -0.599011
     11 O                    -0.315113
     12 O                    -0.287376
     13 H                     0.195812
     14 C                    -0.468325
     15 H                     0.238194
     16 H                     0.171186
     17 H                     0.251518
     18 H                     0.253619
     19 H                     0.179307
     20 H                     0.179195
     21 H                     0.172766
  ----------------------------------------
  Sum of atomic charges =     0.000000

                    Cartesian Multipole Moments
 -----------------------------------------------------------------
    Charge (ESU x 10^10)
                 0.0000
    Dipole Moment (Debye)
         X      -2.2943      Y      -0.9119      Z       0.0013
       Tot       2.4689
    Quadrupole Moments (Debye-Ang)
        XX     -73.2401     XY      16.3917     YY     -77.7447
        XZ       0.0111     YZ      -0.0085     ZZ     -76.5106

 Total job time:  86.71s(wall), 188.89s(cpu)
        *  Thank you very much for using Q-Chem.  Have a nice day.  *
