 Q-Chem 5.4, Q-Chem, Inc., Pleasanton, CA (2021)
 Q-Chem 5.4.0 for Intel X86 EM64T Linux

User input:
--------------------------------------------------------------
$molecule
0 1
C                 -4.5815120000      0.2267800000      0.0184000000
C                 -3.1352910000     -0.1997940000      0.0207220000
C                 -2.7938400000     -1.5623630000     -0.0126890000
C                 -1.4686170000     -1.9704050000     -0.0124070000
C                 -0.4377710000     -1.0247680000      0.0215790000
C                  0.9772910000     -1.4875620000      0.0212130000
O                  1.2590240000     -2.6752570000     -0.0082820000
C                  2.0419220000     -0.4409580000      0.0583290000
C                  3.3829970000     -0.8364230000      0.0590130000
C                  4.3930930000      0.1176710000      0.0930620000
C                  4.0722280000      1.4776700000      0.1268000000
C                  2.7420200000      1.8802050000      0.1264350000
C                  1.7189910000      0.9274220000      0.0923090000
C                  0.2992110000      1.3885390000      0.0928270000
O                  0.0196590000      2.5762570000      0.1226610000
C                 -0.7634490000      0.3411970000      0.0554410000
C                 -2.1042520000      0.7373830000      0.0547010000
H                 -5.0912630000     -0.1216960000     -0.8851190000
H                 -4.6768200000      1.3126750000      0.0621310000
H                 -5.1164400000     -0.1954190000      0.8745210000
H                 -3.5821650000     -2.3081150000     -0.0390930000
H                 -1.2054030000     -3.0207130000     -0.0381290000
H                  3.6083370000     -1.8953670000      0.0325030000
H                  5.4313580000     -0.1943130000      0.0934140000
H                  4.8616120000      2.2202800000      0.1533140000
H                  2.4704240000      2.9282500000      0.1522780000
H                 -2.3213430000      1.7988240000      0.0815460000
$end
$rem
MAX_SCF_CYCLES=200
BASIS  =  6-311++G(d,p)
GUI  =  2
JOB_TYPE  =  SP
METHOD  =  B3LYP
SOLVENT_METHOD = PCM
$end
$pcm
theory = CPCM
$end
$solvent
dielectric 37.219
opticaldielectric 1.43
$end

--------------------------------------------------------------

             Standard Nuclear Orientation (Angstroms)
    I     Atom           X                Y                Z
 ----------------------------------------------------------------
    1      C      -4.5815120000     0.2267800000     0.0184000000
    2      C      -3.1352910000    -0.1997940000     0.0207220000
    3      C      -2.7938400000    -1.5623630000    -0.0126890000
    4      C      -1.4686170000    -1.9704050000    -0.0124070000
    5      C      -0.4377710000    -1.0247680000     0.0215790000
    6      C       0.9772910000    -1.4875620000     0.0212130000
    7      O       1.2590240000    -2.6752570000    -0.0082820000
    8      C       2.0419220000    -0.4409580000     0.0583290000
    9      C       3.3829970000    -0.8364230000     0.0590130000
   10      C       4.3930930000     0.1176710000     0.0930620000
   11      C       4.0722280000     1.4776700000     0.1268000000
   12      C       2.7420200000     1.8802050000     0.1264350000
   13      C       1.7189910000     0.9274220000     0.0923090000
   14      C       0.2992110000     1.3885390000     0.0928270000
   15      O       0.0196590000     2.5762570000     0.1226610000
   16      C      -0.7634490000     0.3411970000     0.0554410000
   17      C      -2.1042520000     0.7373830000     0.0547010000
   18      H      -5.0912630000    -0.1216960000    -0.8851190000
   19      H      -4.6768200000     1.3126750000     0.0621310000
   20      H      -5.1164400000    -0.1954190000     0.8745210000
   21      H      -3.5821650000    -2.3081150000    -0.0390930000
   22      H      -1.2054030000    -3.0207130000    -0.0381290000
   23      H       3.6083370000    -1.8953670000     0.0325030000
   24      H       5.4313580000    -0.1943130000     0.0934140000
   25      H       4.8616120000     2.2202800000     0.1533140000
   26      H       2.4704240000     2.9282500000     0.1522780000
   27      H      -2.3213430000     1.7988240000     0.0815460000
 ----------------------------------------------------------------

    9    -728.2959815898      1.83e-06  Convergence criterion met
 Total energy in the final basis set =     -728.2959815898

                    Orbital Energies (a.u.)
 --------------------------------------------------------------

 Alpha MOs
 -- Occupied --
-19.1316 -19.1303 -10.2831 -10.2821 -10.2076 -10.2071 -10.2063 -10.2059
-10.2040 -10.1966 -10.1962 -10.1958 -10.1956 -10.1947 -10.1921 -10.1916
-10.1699  -1.0668  -1.0647  -0.8933  -0.8815  -0.8167  -0.7838  -0.7772
 -0.7718  -0.7145  -0.6831  -0.6578  -0.6307  -0.6133  -0.5851  -0.5582
 -0.5462  -0.5051  -0.4894  -0.4842  -0.4710  -0.4592  -0.4555  -0.4508
 -0.4476  -0.4431  -0.4339  -0.4269  -0.4197  -0.3941  -0.3875  -0.3858
 -0.3706  -0.3696  -0.3616  -0.3597  -0.2886  -0.2868  -0.2785  -0.2754
 -0.2753  -0.2667

          Ground-State Mulliken Net Atomic Charges

     Atom                 Charge (a.u.)
  ----------------------------------------
      1 C                    -0.400840
      2 C                     0.387126
      3 C                    -0.386713
      4 C                     0.181719
      5 C                     0.178962
      6 C                    -0.680206
      7 O                    -0.293280
      8 C                     0.074686
      9 C                     0.201802
     10 C                    -0.449735
     11 C                    -0.445153
     12 C                     0.124152
     13 C                     0.349445
     14 C                    -0.574980
     15 O                    -0.286551
     16 C                     0.171602
     17 C                    -0.118745
     18 H                     0.182000
     19 H                     0.185623
     20 H                     0.179936
     21 H                     0.222930
     22 H                     0.195491
     23 H                     0.196987
     24 H                     0.223577
     25 H                     0.224296
     26 H                     0.195270
     27 H                     0.160596
  ----------------------------------------
  Sum of atomic charges =     0.000000

                    Cartesian Multipole Moments
 -----------------------------------------------------------------
    Charge (ESU x 10^10)
                 0.0000
    Dipole Moment (Debye)
         X      -0.9686      Y       0.1626      Z      -0.0084
       Tot       0.9822
    Quadrupole Moments (Debye-Ang)
        XX     -63.1816     XY      10.3863     YY    -110.0164
        XZ       0.5586     YZ      -0.1559     ZZ    -100.7870

 Total job time:  51.69s(wall), 350.66s(cpu)
        *  Thank you very much for using Q-Chem.  Have a nice day.  *
