 Gaussian 16, Revision A.03,
 Gaussian 16:  ES64L-G16RevA.03 25-Dec-2016

 --------------------------------------
 #P UB3LYP/6-311++G(d,p) nosym opt freq
 --------------------------------------

 --------
 Oxidized
 --------
 Symbolic Z-matrix:
 Charge =  0 Multiplicity = 1

 SCF Done:  E(UB3LYP) =  -728.282619779     A.U. after   15 cycles
 SCF Done:  E(UB3LYP) =  -728.282616975     A.U. after   10 cycles
 SCF Done:  E(UB3LYP) =  -728.282620367     A.U. after   10 cycles
 SCF Done:  E(UB3LYP) =  -728.282621587     A.U. after    9 cycles
 SCF Done:  E(UB3LYP) =  -728.282634506     A.U. after   11 cycles
 SCF Done:  E(UB3LYP) =  -728.282646247     A.U. after   11 cycles
 SCF Done:  E(UB3LYP) =  -728.282641012     A.U. after   11 cycles
 SCF Done:  E(UB3LYP) =  -728.272942823     A.U. after   15 cycles
 SCF Done:  E(UB3LYP) =  -728.282494346     A.U. after   12 cycles
 SCF Done:  E(UB3LYP) =  -728.282665475     A.U. after    9 cycles
 SCF Done:  E(UB3LYP) =  -728.282593520     A.U. after   14 cycles
 SCF Done:  E(UB3LYP) =  -728.282697564     A.U. after   13 cycles
 SCF Done:  E(UB3LYP) =  -728.282713434     A.U. after   11 cycles
 SCF Done:  E(UB3LYP) =  -728.282713327     A.U. after   12 cycles
 SCF Done:  E(UB3LYP) =  -728.282722164     A.U. after   10 cycles
 SCF Done:  E(UB3LYP) =  -728.282722639     A.U. after    9 cycles
 SCF Done:  E(UB3LYP) =  -728.282723444     A.U. after    9 cycles
 SCF Done:  E(UB3LYP) =  -728.282723462     A.U. after    8 cycles
 SCF Done:  E(UB3LYP) =  -728.282723467     A.U. after    7 cycles
 Optimization completed.
    -- Stationary point found.
 Normal termination of Gaussian 16 at Wed Dec 27 21:22:55 2023.

 ----------------------------------------------------------------------
 #P Geom=AllCheck Guess=TCheck SCRF=Check GenChk UB3LYP/6-311++G(d,p) F
 req
 ----------------------------------------------------------------------

 Structure from the checkpoint file:  "124.chk"
 --------
 Oxidized
 --------
 Charge =  0 Multiplicity = 1

                          Input orientation:
 ---------------------------------------------------------------------
 Center     Atomic      Atomic             Coordinates (Angstroms)
 Number     Number       Type             X           Y           Z
 ---------------------------------------------------------------------
      1          6           0       -4.581512    0.226780    0.018400
      2          6           0       -3.135291   -0.199794    0.020722
      3          6           0       -2.793840   -1.562363   -0.012689
      4          6           0       -1.468617   -1.970405   -0.012407
      5          6           0       -0.437771   -1.024768    0.021579
      6          6           0        0.977291   -1.487562    0.021213
      7          8           0        1.259024   -2.675257   -0.008282
      8          6           0        2.041922   -0.440958    0.058329
      9          6           0        3.382997   -0.836423    0.059013
     10          6           0        4.393093    0.117671    0.093062
     11          6           0        4.072228    1.477670    0.126800
     12          6           0        2.742020    1.880205    0.126435
     13          6           0        1.718991    0.927422    0.092309
     14          6           0        0.299211    1.388539    0.092827
     15          8           0        0.019659    2.576257    0.122661
     16          6           0       -0.763449    0.341197    0.055441
     17          6           0       -2.104252    0.737383    0.054701
     18          1           0       -5.091263   -0.121696   -0.885119
     19          1           0       -4.676820    1.312675    0.062131
     20          1           0       -5.116440   -0.195419    0.874521
     21          1           0       -3.582165   -2.308115   -0.039093
     22          1           0       -1.205403   -3.020713   -0.038129
     23          1           0        3.608337   -1.895367    0.032503
     24          1           0        5.431358   -0.194313    0.093414
     25          1           0        4.861612    2.220280    0.153314
     26          1           0        2.470424    2.928250    0.152278
     27          1           0       -2.321343    1.798824    0.081546
 ---------------------------------------------------------------------

 SCF Done:  E(UB3LYP) =  -728.282723467     A.U. after    1 cycles

 Alpha  occ. eigenvalues --  -19.12534 -19.12384 -10.27749 -10.27630 -10.21031
 Alpha  occ. eigenvalues --  -10.20774 -10.20722 -10.20682 -10.20459 -10.20138
 Alpha  occ. eigenvalues --  -10.20085 -10.19786 -10.19778 -10.19763 -10.19688
 Alpha  occ. eigenvalues --  -10.19415 -10.18430  -1.05962  -1.05718  -0.89428
 Alpha  occ. eigenvalues --   -0.88362  -0.81988  -0.78724  -0.77839  -0.77415
 Alpha  occ. eigenvalues --   -0.72116  -0.68403  -0.66117  -0.63382  -0.61634
 Alpha  occ. eigenvalues --   -0.58527  -0.56025  -0.54832  -0.50247  -0.49385
 Alpha  occ. eigenvalues --   -0.48767  -0.47450  -0.45345  -0.45273  -0.45052
 Alpha  occ. eigenvalues --   -0.44862  -0.44446  -0.43769  -0.43400  -0.41278
 Alpha  occ. eigenvalues --   -0.40437  -0.39505  -0.38796  -0.37464  -0.37362
 Alpha  occ. eigenvalues --   -0.36276  -0.36120  -0.28616  -0.28106  -0.27980
 Alpha  occ. eigenvalues --   -0.27605  -0.26956  -0.26895
 Alpha virt. eigenvalues --   -0.11436  -0.07190  -0.03799  -0.02624  -0.01137
 Alpha virt. eigenvalues --   -0.00658   0.00875   0.01407   0.01603   0.02050
 Alpha virt. eigenvalues --    0.03257   0.03577   0.03779   0.03951   0.04366

  Beta  occ. eigenvalues --  -19.12534 -19.12384 -10.27749 -10.27630 -10.21031
  Beta  occ. eigenvalues --  -10.20774 -10.20722 -10.20682 -10.20459 -10.20138
  Beta  occ. eigenvalues --  -10.20085 -10.19786 -10.19778 -10.19763 -10.19688
  Beta  occ. eigenvalues --  -10.19415 -10.18430  -1.05962  -1.05718  -0.89428
  Beta  occ. eigenvalues --   -0.88362  -0.81988  -0.78724  -0.77839  -0.77415
  Beta  occ. eigenvalues --   -0.72116  -0.68403  -0.66117  -0.63382  -0.61634
  Beta  occ. eigenvalues --   -0.58527  -0.56025  -0.54832  -0.50247  -0.49385
  Beta  occ. eigenvalues --   -0.48767  -0.47450  -0.45345  -0.45273  -0.45052
  Beta  occ. eigenvalues --   -0.44862  -0.44446  -0.43769  -0.43400  -0.41278
  Beta  occ. eigenvalues --   -0.40437  -0.39505  -0.38796  -0.37464  -0.37362
  Beta  occ. eigenvalues --   -0.36276  -0.36120  -0.28616  -0.28106  -0.27980
  Beta  occ. eigenvalues --   -0.27605  -0.26956  -0.26895
  Beta virt. eigenvalues --   -0.11436  -0.07190  -0.03799  -0.02624  -0.01137
  Beta virt. eigenvalues --   -0.00658   0.00875   0.01407   0.01603   0.02050
  Beta virt. eigenvalues --    0.03257   0.03577   0.03779   0.03951   0.04366

 Mulliken charges and spin densities:
               1          2
     1  C   -0.341223   0.000000
     2  C    0.457057   0.000000
     3  C   -0.328764  -0.000000
     4  C    0.190009   0.000000
     5  C    0.180231   0.000000
     6  C   -0.819353   0.000000
     7  O   -0.215267  -0.000000
     8  C    0.108643  -0.000000
     9  C    0.178514  -0.000000
    10  C   -0.369150  -0.000000
    11  C   -0.362953   0.000000
    12  C    0.100897  -0.000000
    13  C    0.375291  -0.000000
    14  C   -0.682034   0.000000
    15  O   -0.210662  -0.000000
    16  C    0.150590  -0.000000
    17  C   -0.131114  -0.000000
    18  H    0.164560   0.000000
    19  H    0.172164   0.000000
    20  H    0.162418   0.000000
    21  H    0.172281  -0.000000
    22  H    0.184741  -0.000000
    23  H    0.184966  -0.000000
    24  H    0.176453   0.000000
    25  H    0.177209  -0.000000
    26  H    0.182098  -0.000000
    27  H    0.142399  -0.000000
 Sum of Mulliken charges =  -0.00000  -0.00000

 Dipole moment (field-independent basis, Debye):
    X=             -0.7468    Y=              0.1199    Z=             -0.0064  Tot=              0.7564
 Quadrupole moment (field-independent basis, Debye-Ang):
   XX=            -72.2056   YY=           -107.5804   ZZ=           -100.7588
   XY=              7.7119   XZ=              0.4198   YZ=             -0.1153

  Exact polarizability: 271.838  10.181 194.047   1.864   2.899  88.976
 Approx polarizability: 383.150  -4.407 376.076   1.963   6.186 143.739

                      1                      2                      3
                      A                      A                      A
 Frequencies --     21.8827                39.5602                91.4962
 Red. masses --      1.0551                 5.8210                 4.0593
 Frc consts  --      0.0003                 0.0054                 0.0200
 IR Inten    --      0.5778                 5.3611                 0.4456

                      4                      5                      6
                      A                      A                      A
 Frequencies --    117.3813               143.4368               184.3949
 Red. masses --      4.9962                 6.1375                 4.0988
 Frc consts  --      0.0406                 0.0744                 0.0821
 IR Inten    --      0.0567                 0.7750                 1.1291

                      7                      8                      9
                      A                      A                      A
 Frequencies --    194.0834               276.5264               282.0633
 Red. masses --      4.8742                 5.3133                 4.4277
 Frc consts  --      0.1082                 0.2394                 0.2075
 IR Inten    --      0.4225                 0.3215                 1.3066

                     10                     11                     12
                      A                      A                      A
 Frequencies --    332.6743               371.9960               390.8222
 Red. masses --      6.3791                 4.2727                10.2048
 Frc consts  --      0.4160                 0.3484                 0.9184
 IR Inten    --      1.0617                 1.2601                23.0681

                     13                     14                     15
                      A                      A                      A
 Frequencies --    414.2732               425.2824               446.1397
 Red. masses --      3.3809                 5.9686                 3.8763
 Frc consts  --      0.3419                 0.6360                 0.4546
 IR Inten    --      0.6023                 0.9540                 0.2745

                     16                     17                     18
                      A                      A                      A
 Frequencies --    451.4326               476.1302               527.2615
 Red. masses --      3.8022                12.0144                 3.7174
 Frc consts  --      0.4565                 1.6047                 0.6089
 IR Inten    --      0.9512                 0.0939                 5.9986

                     19                     20                     21
                      A                      A                      A
 Frequencies --    581.6882               648.2383               669.0174
 Red. masses --      5.6487                 6.8148                 4.0935
 Frc consts  --      1.1261                 1.6872                 1.0795
 IR Inten    --      5.0818                 8.0941                 3.4052

                     22                     23                     24
                      A                      A                      A
 Frequencies --    674.9286               701.7186               730.5577
 Red. masses --      6.5918                 6.6200                 2.8297
 Frc consts  --      1.7692                 1.9206                 0.8898
 IR Inten    --      0.4323                 0.1488                48.6298

                     25                     26                     27
                      A                      A                      A
 Frequencies --    733.3353               749.0192               805.7035
 Red. masses --      2.9649                 6.3702                 2.2061
 Frc consts  --      0.9394                 2.1057                 0.8438
 IR Inten    --     32.8877                 0.5798                 1.7973

                     28                     29                     30
                      A                      A                      A
 Frequencies --    808.4565               854.2537               864.1965
 Red. masses --      2.7682                 6.0441                 1.5212
 Frc consts  --      1.0660                 2.5987                 0.6694
 IR Inten    --      3.4433                 6.9991                22.1559

                     31                     32                     33
                      A                      A                      A
 Frequencies --    916.6198               938.1590               943.5935
 Red. masses --      1.3758                 1.3699                 6.7219
 Frc consts  --      0.6811                 0.7104                 3.5262
 IR Inten    --      0.2044                 2.2846                54.3139

                     34                     35                     36
                      A                      A                      A
 Frequencies --    985.1833              1002.4613              1007.8024
 Red. masses --      2.6129                 1.3663                 1.3654
 Frc consts  --      1.4942                 0.8090                 0.8170
 IR Inten    --     39.2931                 0.7540                 2.2076

                     37                     38                     39
                      A                      A                      A
 Frequencies --   1018.4242              1026.2291              1057.6086
 Red. masses --      1.3263                 1.7610                 1.9513
 Frc consts  --      0.8105                 1.0927                 1.2860
 IR Inten    --      0.0016                 0.6768                 0.3739

                     40                     41                     42
                      A                      A                      A
 Frequencies --   1064.1126              1111.0649              1119.7301
 Red. masses --      1.5639                 2.6847                 2.2763
 Frc consts  --      1.0433                 1.9526                 1.6815
 IR Inten    --      4.4741                 0.1410                 2.0684

                     43                     44                     45
                      A                      A                      A
 Frequencies --   1165.6522              1180.5112              1194.5985
 Red. masses --      1.4793                 1.2620                 2.0099
 Frc consts  --      1.1843                 1.0362                 1.6899
 IR Inten    --      9.1260                15.8890                 4.2045

                     46                     47                     48
                      A                      A                      A
 Frequencies --   1227.1964              1241.2588              1288.9821
 Red. masses --      2.7785                 1.7911                 1.5507
 Frc consts  --      2.4654                 1.6259                 1.5180
 IR Inten    --     13.7050                 2.2653                13.3159

                     49                     50                     51
                      A                      A                      A
 Frequencies --   1309.9425              1316.6643              1350.3389
 Red. masses --      6.2603                 2.1885                 7.0718
 Frc consts  --      6.3292                 2.2353                 7.5974
 IR Inten    --    684.9901                 3.3628                24.0529

                     52                     53                     54
                      A                      A                      A
 Frequencies --   1362.0687              1415.4555              1439.2922
 Red. masses --      7.8720                 1.2507                 2.9478
 Frc consts  --      8.6047                 1.4763                 3.5979
 IR Inten    --     11.9793                 4.0918                12.8205

                     55                     56                     57
                      A                      A                      A
 Frequencies --   1481.1672              1486.5284              1496.1615
 Red. masses --      2.3218                 1.0432                 1.1990
 Frc consts  --      3.0011                 1.3582                 1.5813
 IR Inten    --      0.3989                 7.9835                 2.2825

                     58                     59                     60
                      A                      A                      A
 Frequencies --   1503.6228              1520.5195              1600.2303
 Red. masses --      2.6147                 2.8357                 6.4623
 Frc consts  --      3.4830                 3.8628                 9.7499
 IR Inten    --      5.3512                 0.5186                 6.2042

                     61                     62                     63
                      A                      A                      A
 Frequencies --   1615.2447              1628.1271              1637.9833
 Red. masses --      7.0568                 5.8906                 5.9141
 Frc consts  --     10.8477                 9.2000                 9.3489
 IR Inten    --      6.4742               120.8677                59.6317

                     64                     65                     66
                      A                      A                      A
 Frequencies --   1716.7940              1727.5783              3026.6867
 Red. masses --     12.5754                11.9646                 1.0375
 Frc consts  --     21.8378                21.0390                 5.6000
 IR Inten    --      6.1811               322.1020                23.5187

                     67                     68                     69
                      A                      A                      A
 Frequencies --   3075.8093              3111.4932              3161.2615
 Red. masses --      1.1001                 1.1004                 1.0896
 Frc consts  --      6.1320                 6.2767                 6.4155
 IR Inten    --     12.0887                12.5314                12.1712

                     70                     71                     72
                      A                      A                      A
 Frequencies --   3169.7267              3184.1475              3187.8757
 Red. masses --      1.0870                 1.0918                 1.0904
 Frc consts  --      6.4344                 6.5219                 6.5292
 IR Inten    --      3.3746                10.6770                 3.5729

                     73                     74                     75
                      A                      A                      A
 Frequencies --   3198.6422              3199.7536              3202.3202
 Red. masses --      1.0926                 1.0925                 1.0949
 Frc consts  --      6.5866                 6.5902                 6.6154
 IR Inten    --      4.7295                 0.4193                11.4417

 - Thermochemistry -
 -------------------
 Temperature   298.150 Kelvin.  Pressure   1.00000 Atm.
 Atom     1 has atomic number  6 and mass  12.00000

 Molecular mass:   222.06808 amu.
 Principal axes and moments of inertia in atomic units:
                           1         2         3
     Eigenvalues --  1711.773565353.339197053.94690
           X            0.99159  -0.12916  -0.00855
           Y            0.12890   0.99130  -0.02682
           Z            0.01194   0.02549   0.99960
 This molecule is an asymmetric top.
 Rotational symmetry number  1.
 Warning -- assumption of classical behavior for rotation
           may cause significant error
 Rotational temperatures (Kelvin)      0.05060     0.01618     0.01228
 Rotational constants (GHZ):           1.05431     0.33712     0.25585
 Zero-point vibrational energy     542043.4 (Joules/Mol)
                                  129.55147 (Kcal/Mol)
 Warning -- explicit consideration of  19 degrees of freedom as
           vibrations may cause significant error
 Vibrational temperatures:     31.48    56.92   131.64   168.89   206.37
          (Kelvin)            265.30   279.24   397.86   405.83   478.64
                              535.22   562.31   596.05   611.89   641.90
                              649.51   685.05   758.61   836.92   932.67
                              962.57   971.07  1009.62  1051.11  1055.11
                             1077.67  1159.23  1163.19  1229.08  1243.39
                             1318.81  1349.80  1357.62  1417.46  1442.32
                             1450.00  1465.29  1476.51  1521.66  1531.02
                             1598.57  1611.04  1677.11  1698.49  1718.76
                             1765.66  1785.89  1854.56  1884.72  1894.39
                             1942.84  1959.71  2036.52  2070.82  2131.07
                             2138.78  2152.64  2163.38  2187.69  2302.37
                             2323.98  2342.51  2356.69  2470.08  2485.60
                             4354.73  4425.40  4476.74  4548.35  4560.53
                             4581.28  4586.64  4602.13  4603.73  4607.42

 Zero-point correction=                           0.206453 (Hartree/Particle)
 Thermal correction to Energy=                    0.219646
 Thermal correction to Enthalpy=                  0.220590
 Thermal correction to Gibbs Free Energy=         0.165298
 Sum of electronic and zero-point Energies=           -728.076270
 Sum of electronic and thermal Energies=              -728.063078
 Sum of electronic and thermal Enthalpies=            -728.062133
 Sum of electronic and thermal Free Energies=         -728.117425

                     E (Thermal)             CV                S
                      KCal/Mol        Cal/Mol-Kelvin    Cal/Mol-Kelvin
 Total                  137.830             51.751            116.371
 Electronic               0.000              0.000              0.000
 Translational            0.889              2.981             42.096
 Rotational               0.889              2.981             32.536
 Vibrational            136.052             45.790             41.739
 Vibration     1          0.593              1.985              6.456
 Vibration     2          0.594              1.981              5.281
 Vibration     3          0.602              1.955              3.628
 Vibration     4          0.608              1.935              3.143
 Vibration     5          0.616              1.910              2.758
 Vibration     6          0.631              1.861              2.283
 Vibration     7          0.635              1.848              2.188
 Vibration     8          0.678              1.717              1.555
 Vibration     9          0.681              1.707              1.521
 Vibration    10          0.715              1.610              1.247
 Vibration    11          0.744              1.530              1.072
 Vibration    12          0.759              1.490              0.997
 Vibration    13          0.778              1.439              0.912
 Vibration    14          0.787              1.415              0.874
 Vibration    15          0.805              1.369              0.808
 Vibration    16          0.810              1.358              0.791
 Vibration    17          0.833              1.303              0.721
 Vibration    18          0.882              1.190              0.593
 Vibration    19          0.938              1.071              0.482

 Optimization completed.
    -- Stationary point found.
 Normal termination of Gaussian 16 at Wed Dec 27 22:14:11 2023.
