 Q-Chem 5.4, Q-Chem, Inc., Pleasanton, CA (2021)
 Q-Chem 5.4.0 for Intel X86 EM64T Linux

User input:
--------------------------------------------------------------
$molecule
0 1
C                 -2.8015860000     -0.8789960000     -0.9628520000
C                 -1.4595160000     -0.4044230000     -0.4667320000
C                 -0.3060010000     -1.1246120000     -0.7752970000
C                  0.9517980000     -0.7139370000     -0.3325000000
C                  2.1606930000     -1.5098330000     -0.6829430000
O                  2.1054510000     -2.5281750000     -1.3545890000
C                  3.4665200000     -1.0144760000     -0.1780400000
C                  3.5710830000      0.0978800000      0.5615740000
C                  2.3888360000      0.9172690000      0.9308860000
O                  2.5240440000      1.9252650000      1.6067900000
C                  1.0613780000      0.4516450000      0.4422990000
C                 -0.0896960000      1.1760360000      0.7538510000
C                 -1.3490730000      0.7701220000      0.3137620000
C                 -2.5704350000      1.5787020000      0.6700530000
H                 -2.7026390000     -1.7957170000     -1.5453000000
H                 -3.4869070000     -1.0783130000     -0.1326240000
H                 -3.2824270000     -0.1264270000     -1.5961970000
H                 -0.3677300000     -2.0274890000     -1.3721370000
H                  4.3292710000     -1.6138620000     -0.4484880000
H                  4.5242850000      0.4607740000      0.9309770000
H                  0.0177490000      2.0729400000      1.3532210000
H                 -3.2928280000      0.9827700000      1.2372280000
H                 -2.3034630000      2.4474000000      1.2729500000
H                 -3.0888070000      1.9354580000     -0.2258930000
$end

$rem
BASIS  =  6-311++G(d,p)
GUI  =  2
JOB_TYPE  =  SP
METHOD  =  B3LYP
SCF_CONVERGENCE  = 8
SOLVENT_METHOD = sm12
$end

$smx
solvent dimethylformamide
charges CM5
$end

--------------------------------------------------------------

             Standard Nuclear Orientation (Angstroms)
    I     Atom           X                Y                Z
 ----------------------------------------------------------------
    1      C      -2.8015860000    -0.8789960000    -0.9628520000
    2      C      -1.4595160000    -0.4044230000    -0.4667320000
    3      C      -0.3060010000    -1.1246120000    -0.7752970000
    4      C       0.9517980000    -0.7139370000    -0.3325000000
    5      C       2.1606930000    -1.5098330000    -0.6829430000
    6      O       2.1054510000    -2.5281750000    -1.3545890000
    7      C       3.4665200000    -1.0144760000    -0.1780400000
    8      C       3.5710830000     0.0978800000     0.5615740000
    9      C       2.3888360000     0.9172690000     0.9308860000
   10      O       2.5240440000     1.9252650000     1.6067900000
   11      C       1.0613780000     0.4516450000     0.4422990000
   12      C      -0.0896960000     1.1760360000     0.7538510000
   13      C      -1.3490730000     0.7701220000     0.3137620000
   14      C      -2.5704350000     1.5787020000     0.6700530000
   15      H      -2.7026390000    -1.7957170000    -1.5453000000
   16      H      -3.4869070000    -1.0783130000    -0.1326240000
   17      H      -3.2824270000    -0.1264270000    -1.5961970000
   18      H      -0.3677300000    -2.0274890000    -1.3721370000
   19      H       4.3292710000    -1.6138620000    -0.4484880000
   20      H       4.5242850000     0.4607740000     0.9309770000
   21      H       0.0177490000     2.0729400000     1.3532210000
   22      H      -3.2928280000     0.9827700000     1.2372280000
   23      H      -2.3034630000     2.4474000000     1.2729500000
   24      H      -3.0888070000     1.9354580000    -0.2258930000
 ----------------------------------------------------------------

   14    -613.9141430757      2.43e-09  Convergence criterion met
 Total energy in the final basis set =     -613.9331582758

                    Orbital Energies (a.u.)
 --------------------------------------------------------------

 Alpha MOs
 -- Occupied --
-19.1323 -19.1323 -10.2810 -10.2810 -10.2101 -10.2092 -10.2042 -10.2039
-10.2037 -10.2034 -10.1930 -10.1929 -10.1709 -10.1709  -1.0648  -1.0630
 -0.8914  -0.8444  -0.7961  -0.7869  -0.7263  -0.7023  -0.6872  -0.6283
 -0.6183  -0.5904  -0.5306  -0.5145  -0.5095  -0.4735  -0.4579  -0.4561
 -0.4545  -0.4489  -0.4375  -0.4206  -0.4191  -0.4172  -0.4040  -0.3936
 -0.3927  -0.3656  -0.3624  -0.3583  -0.3072  -0.2854  -0.2744  -0.2723
 -0.2649

          Ground-State Mulliken Net Atomic Charges

     Atom                 Charge (a.u.)
  ----------------------------------------
      1 C                     0.262805
      2 C                     0.807183
      3 C                    -0.642455
      4 C                    -0.518403
      5 C                    -1.422734
      6 O                    -0.305018
      7 C                     0.735022
      8 C                     0.732867
      9 C                    -1.418139
     10 O                    -0.305305
     11 C                    -0.526248
     12 C                    -0.645335
     13 C                     0.796660
     14 C                     0.264010
     15 H                     0.237580
     16 H                     0.215055
     17 H                     0.215102
     18 H                     0.105380
     19 H                     0.319852
     20 H                     0.319814
     21 H                     0.105685
     22 H                     0.214769
     23 H                     0.237145
     24 H                     0.214708
  ----------------------------------------
  Sum of atomic charges =     0.000000

                    Cartesian Multipole Moments
 -----------------------------------------------------------------
    Charge (ESU x 10^10)
                -0.0000
    Dipole Moment (Debye)
         X      -3.3602      Y       0.4369      Z      -0.1843
       Tot       3.3935
    Quadrupole Moments (Debye-Ang)
        XX     -68.0497     XY      -2.8842     YY     -92.7218
        XZ       0.1730     YZ      -6.8786     ZZ     -87.2530

 Total job time:  347.72s(wall), 2647.67s(cpu)
        *  Thank you very much for using Q-Chem.  Have a nice day.  *
