 Q-Chem 5.4, Q-Chem, Inc., Pleasanton, CA (2021)
 Q-Chem 5.4.0 for Intel X86 EM64T Linux

User input:
--------------------------------------------------------------
$molecule
0 1
O                  4.5895020000      1.5164340000     -1.4001910000
C                  3.5204580000      0.9515580000     -0.7920610000
C                  2.2368570000      1.1940650000     -1.2887130000
C                  1.1348500000      0.6190520000     -0.6714180000
C                 -0.2180990000      0.8847750000     -1.2080500000
O                 -0.3826790000      1.6131440000     -2.2009920000
C                 -1.3585100000      0.2636320000     -0.5344070000
C                 -2.6584750000      0.4946560000     -1.0183600000
O                 -2.9251800000      1.2691740000     -2.0862630000
C                 -3.7771320000     -0.0860270000     -0.3964660000
O                 -5.0192430000      0.1441770000     -0.8715710000
C                 -3.5933560000     -0.9065370000      0.7213390000
O                 -4.7063950000     -1.4413260000      1.2827130000
C                 -2.3043940000     -1.1413700000      1.2092290000
C                 -1.1971760000     -0.5691960000      0.5969290000
C                  0.1505400000     -0.8356360000      1.1345360000
O                  0.3136940000     -1.5654480000      2.1297050000
C                  1.2910270000     -0.2160850000      0.4626330000
C                  2.5885990000     -0.4521850000      0.9525960000
O                  2.8564580000     -1.2268000000      2.0206550000
C                  3.6930480000      0.1323450000      0.3234540000
O                  4.9619470000     -0.0759180000      0.7725130000
H                  5.3945860000      1.2493720000     -0.9356590000
H                  2.1051960000      1.8300050000     -2.1540130000
H                 -2.0515710000      1.6064030000     -2.4172710000
H                 -4.9402040000      0.7286540000     -1.6398490000
H                 -4.4606680000     -1.9851380000      2.0392130000
H                 -2.1513030000     -1.7758850000      2.0754000000
H                  1.9804640000     -1.5616450000      2.3496160000
H                  4.9271600000     -0.6582500000      1.5447520000
$end
$rem
MAX_SCF_CYCLES=200
BASIS  =  6-311++G(d,p)
GUI  =  2
JOB_TYPE  =  SP
METHOD  =  B3LYP
SOLVENT_METHOD = PCM
$end
$pcm
theory = CPCM
$end
$solvent
dielectric 37.219
opticaldielectric 1.43
$end

--------------------------------------------------------------

             Standard Nuclear Orientation (Angstroms)
    I     Atom           X                Y                Z
 ----------------------------------------------------------------
    1      O       4.5895020000     1.5164340000    -1.4001910000
    2      C       3.5204580000     0.9515580000    -0.7920610000
    3      C       2.2368570000     1.1940650000    -1.2887130000
    4      C       1.1348500000     0.6190520000    -0.6714180000
    5      C      -0.2180990000     0.8847750000    -1.2080500000
    6      O      -0.3826790000     1.6131440000    -2.2009920000
    7      C      -1.3585100000     0.2636320000    -0.5344070000
    8      C      -2.6584750000     0.4946560000    -1.0183600000
    9      O      -2.9251800000     1.2691740000    -2.0862630000
   10      C      -3.7771320000    -0.0860270000    -0.3964660000
   11      O      -5.0192430000     0.1441770000    -0.8715710000
   12      C      -3.5933560000    -0.9065370000     0.7213390000
   13      O      -4.7063950000    -1.4413260000     1.2827130000
   14      C      -2.3043940000    -1.1413700000     1.2092290000
   15      C      -1.1971760000    -0.5691960000     0.5969290000
   16      C       0.1505400000    -0.8356360000     1.1345360000
   17      O       0.3136940000    -1.5654480000     2.1297050000
   18      C       1.2910270000    -0.2160850000     0.4626330000
   19      C       2.5885990000    -0.4521850000     0.9525960000
   20      O       2.8564580000    -1.2268000000     2.0206550000
   21      C       3.6930480000     0.1323450000     0.3234540000
   22      O       4.9619470000    -0.0759180000     0.7725130000
   23      H       5.3945860000     1.2493720000    -0.9356590000
   24      H       2.1051960000     1.8300050000    -2.1540130000
   25      H      -2.0515710000     1.6064030000    -2.4172710000
   26      H      -4.9402040000     0.7286540000    -1.6398490000
   27      H      -4.4606680000    -1.9851380000     2.0392130000
   28      H      -2.1513030000    -1.7758850000     2.0754000000
   29      H       1.9804640000    -1.5616450000     2.3496160000
   30      H       4.9271600000    -0.6582500000     1.5447520000
 ----------------------------------------------------------------

    8   -1140.4968617218      9.25e-06  Convergence criterion met
 Total energy in the final basis set =    -1140.4968617218

                    Orbital Energies (a.u.)
 --------------------------------------------------------------

 Alpha MOs
 -- Occupied --
-19.1810 -19.1774 -19.1765 -19.1762 -19.1712 -19.1709 -19.1379 -19.1372
-10.2890 -10.2885 -10.2703 -10.2690 -10.2667 -10.2663 -10.2603 -10.2602
-10.2121 -10.2110 -10.2080 -10.2076 -10.1992 -10.1979  -1.1111  -1.1097
 -1.0932  -1.0916  -1.0776  -1.0761  -1.0597  -1.0585  -0.8965  -0.8794
 -0.8133  -0.7816  -0.7728  -0.7711  -0.7029  -0.6920  -0.6709  -0.6633
 -0.6276  -0.6009  -0.5890  -0.5808  -0.5676  -0.5616  -0.5383  -0.5261
 -0.5202  -0.5073  -0.4877  -0.4822  -0.4770  -0.4718  -0.4656  -0.4517
 -0.4458  -0.4426  -0.4380  -0.4336  -0.4159  -0.4146  -0.4073  -0.4029
 -0.4014  -0.3946  -0.3933  -0.3895  -0.3850  -0.3845  -0.3428  -0.3402
 -0.3004  -0.2865  -0.2617  -0.2551  -0.2423  -0.2378

          Ground-State Mulliken Net Atomic Charges

     Atom                 Charge (a.u.)
  ----------------------------------------
      1 O                    -0.268847
      2 C                    -0.443714
      3 C                    -0.244297
      4 C                     0.683057
      5 C                    -0.665000
      6 O                    -0.344068
      7 C                     0.695875
      8 C                    -0.042915
      9 O                    -0.394588
     10 C                    -0.215982
     11 O                    -0.298372
     12 C                    -0.483913
     13 O                    -0.285513
     14 C                     0.084943
     15 C                     0.754888
     16 C                    -0.532864
     17 O                    -0.353334
     18 C                     0.604964
     19 C                    -0.051235
     20 O                    -0.385561
     21 C                    -0.030492
     22 O                    -0.317519
     23 H                     0.329278
     24 H                     0.221235
     25 H                     0.384404
     26 H                     0.340378
     27 H                     0.338113
     28 H                     0.205134
     29 H                     0.374262
     30 H                     0.341682
  ----------------------------------------
  Sum of atomic charges =     0.000000

                    Cartesian Multipole Moments
 -----------------------------------------------------------------
    Charge (ESU x 10^10)
                 0.0000
    Dipole Moment (Debye)
         X       2.1566      Y      -1.7089      Z       2.5675
       Tot       3.7635
    Quadrupole Moments (Debye-Ang)
        XX    -120.8204     XY       0.6450     YY    -125.6918
        XZ      -0.1040     YZ      -0.5955     ZZ    -125.4394

 Total job time:  74.15s(wall), 446.35s(cpu)
        *  Thank you very much for using Q-Chem.  Have a nice day.  *
