 Q-Chem 5.4, Q-Chem, Inc., Pleasanton, CA (2021)
 Q-Chem 5.4.0 for Intel X86 EM64T Linux

User input:
--------------------------------------------------------------
$molecule
-1 2
O                  1.4309200000      2.3150760000     -0.2304830000
C                  0.7940040000      1.2260700000     -0.2008160000
C                 -0.6503380000      1.2161780000     -0.2420450000
C                 -1.4407280000      0.0881520000     -0.2168030000
C                 -0.7940430000     -1.2261790000     -0.1196070000
O                 -1.4309780000     -2.3151660000     -0.0897490000
C                  0.6502980000     -1.2162750000     -0.0784720000
C                  1.4407170000     -0.0882470000     -0.1037390000
C                  2.9160660000     -0.2077430000     -0.0244680000
C                  3.5138250000     -1.2365900000      0.7269870000
C                  4.8966180000     -1.3913920000      0.7804690000
C                  5.7299720000     -0.5133660000      0.0878060000
C                  5.1559550000      0.5221190000     -0.6505390000
C                  3.7732480000      0.6791270000     -0.7030120000
C                 -2.9160970000      0.2076810000     -0.2963500000
C                 -3.5136220000      1.2364510000     -1.0481050000
C                 -4.8963980000      1.3913200000     -1.1019130000
C                 -5.7299330000      0.5134590000     -0.4092690000
C                 -5.1561260000     -0.5219120000      0.3294110000
C                 -3.7734390000     -0.6789790000      0.3821920000
H                 -1.1024280000      2.2025890000     -0.2717240000
H                  1.1023710000     -2.2027020000     -0.0489070000
H                  2.8813120000     -1.9130260000      1.2903350000
H                  5.3238970000     -2.1942040000      1.3737270000
H                  6.8083710000     -0.6286980000      0.1303080000
H                  5.7910950000      1.2187300000     -1.1894970000
H                  3.3373760000      1.4988880000     -1.2557070000
H                 -2.8808970000      1.9127760000     -1.6113360000
H                 -5.3235030000      2.1940420000     -1.6954200000
H                 -6.8083180000      0.6288460000     -0.4519780000
H                 -5.7914380000     -1.2183540000      0.8683820000
H                 -3.3377600000     -1.4986710000      0.9351670000
$end
$rem
MAX_SCF_CYCLES=200
BASIS  =  6-311++G(d,p)
GUI  =  2
JOB_TYPE  =  SP
METHOD  =  B3LYP
SOLVENT_METHOD = COSMO
$end
$solvent
dielectric 37.219
opticaldielectric 1.43
$end

--------------------------------------------------------------

             Standard Nuclear Orientation (Angstroms)
    I     Atom           X                Y                Z
 ----------------------------------------------------------------
    1      O      -1.2960557386    -2.3202112594     0.5907026380
    2      C      -0.7223548635    -1.2321391151     0.3088471701
    3      C       0.7196669439    -1.1403325387     0.3007136228
    4      C       1.4444905531    -0.0063432950     0.0066127935
    5      C       0.7223630516     1.2323555229    -0.3084612286
    6      O       1.2960758948     2.3204674608    -0.5901283452
    7      C      -0.7196531357     1.1405096982    -0.3004137569
    8      C      -1.4445045113     0.0065092342    -0.0063368679
    9      C      -2.9262380105     0.0472295747    -0.0012823161
   10      C      -3.6112589581     1.2111937108     0.3942684135
   11      C      -5.0015344793     1.2839655946     0.3663633519
   12      C      -5.7549943749     0.1873902367    -0.0519801049
   13      C      -5.0938413353    -0.9805649903    -0.4336020204
   14      C      -3.7035716846    -1.0551450040    -0.4040775313
   15      C       2.9262574523    -0.0471756288     0.0013052458
   16      C       3.6110533240    -1.2111707122    -0.3945602346
   17      C       5.0013293261    -1.2841042369    -0.3669465936
   18      C       5.7549797364    -0.1876798621     0.0514322918
   19      C       5.0940284107     0.9802798695     0.4334128328
   20      C       3.7037624733     1.0550087595     0.4041650512
   21      H       1.2266363482    -2.0593261101     0.5776715817
   22      H      -1.2266016705     2.0594858143    -0.5774848563
   23      H      -3.0415245933     2.0641926212     0.7446895011
   24      H      -5.4972895311     2.1968198906     0.6825175370
   25      H      -6.8389629105     0.2392394322    -0.0713751570
   26      H      -5.6661036292    -1.8457235729    -0.7547903215
   27      H      -3.2000115597    -1.9715534630    -0.6762667988
   28      H       3.0410963905    -2.0640430515    -0.7449078582
   29      H       5.4969162882    -2.1969580373    -0.6833693353
   30      H       6.8389460708    -0.2396437730     0.0706459452
   31      H       5.6664711161     1.8452925596     0.7546680747
   32      H       3.2003869220     1.9714471701     0.6766466293
 ----------------------------------------------------------------

    9    -843.8710674968      7.83e-06  Convergence criterion met
 Total energy in the final basis set =     -843.8710674968
    4    -843.9544979006      8.39e-06  Convergence criterion met
 Total energy in the final basis set =     -843.9544979006

                    Orbital Energies (a.u.)
 --------------------------------------------------------------

 Alpha MOs
 -- Occupied --
-19.0827 -19.0827 -10.2272 -10.2272 -10.1845 -10.1845 -10.1803 -10.1803
-10.1734 -10.1734 -10.1729 -10.1729 -10.1723 -10.1723 -10.1720 -10.1720
-10.1686 -10.1686 -10.1644 -10.1644  -1.0077  -1.0053  -0.8626  -0.8600
 -0.8271  -0.7874  -0.7494  -0.7456  -0.7454  -0.7171  -0.6838  -0.6332
 -0.6125  -0.6044  -0.5926  -0.5787  -0.5572  -0.5175  -0.5068  -0.4865
 -0.4721  -0.4644  -0.4497  -0.4434  -0.4412  -0.4360  -0.4206  -0.4197
 -0.4177  -0.4074  -0.4036  -0.3937  -0.3858  -0.3717  -0.3691  -0.3642
 -0.3503  -0.3489  -0.3415  -0.3395  -0.2953  -0.2922  -0.2595  -0.2575
 -0.2494  -0.2451  -0.2415  -0.2283  -0.1661

 Beta MOs
 -- Occupied --
-19.0760 -19.0760 -10.2259 -10.2259 -10.1846 -10.1846 -10.1793 -10.1793
-10.1734 -10.1734 -10.1728 -10.1728 -10.1721 -10.1721 -10.1720 -10.1720
-10.1685 -10.1685 -10.1632 -10.1632  -0.9961  -0.9934  -0.8615  -0.8596
 -0.8225  -0.7859  -0.7482  -0.7454  -0.7451  -0.7149  -0.6746  -0.6311
 -0.6114  -0.6041  -0.5916  -0.5762  -0.5552  -0.5171  -0.5049  -0.4848
 -0.4696  -0.4632  -0.4492  -0.4413  -0.4400  -0.4329  -0.4202  -0.4174
 -0.4155  -0.4013  -0.3924  -0.3908  -0.3776  -0.3661  -0.3624  -0.3526
 -0.3499  -0.3457  -0.3410  -0.3391  -0.2878  -0.2749  -0.2582  -0.2568
 -0.2401  -0.2364  -0.2357  -0.2224

          Ground-State Mulliken Net Atomic Charges

     Atom                 Charge (a.u.)    Spin (a.u.)
  --------------------------------------------------------
      1 O                    -0.500891       0.238801
      2 C                    -0.618037       0.106649
      3 C                    -0.738096       0.048415
      4 C                     1.145895       0.105591
      5 C                    -0.617344       0.106639
      6 O                    -0.500870       0.238842
      7 C                    -0.737913       0.048407
      8 C                     1.145482       0.105549
      9 C                     1.207871      -0.026515
     10 C                    -0.724014       0.018731
     11 C                    -0.390634      -0.006490
     12 C                    -0.429261       0.014490
     13 C                    -0.293908      -0.000320
     14 C                    -0.339587       0.013661
     15 C                     1.207603      -0.026503
     16 C                    -0.724309       0.018727
     17 C                    -0.390902      -0.006488
     18 C                    -0.428936       0.014489
     19 C                    -0.294094      -0.000314
     20 C                    -0.338544       0.013639
     21 H                     0.179758      -0.009011
     22 H                     0.179810      -0.009010
     23 H                     0.190467      -0.001705
     24 H                     0.209073       0.000507
     25 H                     0.200896      -0.000950
     26 H                     0.211058       0.000381
     27 H                     0.188931      -0.002220
     28 H                     0.190258      -0.001706
     29 H                     0.209065       0.000507
     30 H                     0.200947      -0.000950
     31 H                     0.211087       0.000381
     32 H                     0.189112      -0.002223
  --------------------------------------------------------
  Sum of atomic charges =    -1.000024

                    Cartesian Multipole Moments
 -----------------------------------------------------------------
    Charge (ESU x 10^10)
                -4.8033
    Dipole Moment (Debye)
         X      -0.0014      Y       0.0004      Z      -0.0004
       Tot       0.0015
    Quadrupole Moments (Debye-Ang)
        XX    -120.7844     XY     -17.0008     YY    -139.4595
        XZ       4.7777     YZ      12.8139     ZZ    -126.9119

 Total job time:  96.24s(wall), 708.19s(cpu)
        *  Thank you very much for using Q-Chem.  Have a nice day.  *
