 Q-Chem 5.4, Q-Chem, Inc., Pleasanton, CA (2021)
 Q-Chem 5.4.0 for Intel X86 EM64T Linux

User input:
--------------------------------------------------------------
$molecule
-1 2
O                 -4.3374280000      0.9658390000     -1.5542180000
C                 -3.1686540000      0.5578080000     -0.9489290000
C                 -1.9209880000      0.9749960000     -1.3791290000
C                 -0.7462960000      0.5400210000     -0.7392320000
C                  0.5568870000      1.0020590000     -1.2216790000
O                  0.6610350000      1.7820500000     -2.1986880000
C                  1.7293320000      0.5004160000     -0.4980780000
C                  3.0174280000      0.9042400000     -0.9084710000
C                  4.1510250000      0.4580920000     -0.2577660000
C                  4.0323470000     -0.4208520000      0.8426510000
C                  2.7852620000     -0.8321040000      1.2655670000
C                  1.6109960000     -0.3880950000      0.6144490000
C                  0.3146990000     -0.8341200000      1.0775650000
O                  0.1842130000     -1.6338360000      2.0768180000
C                 -0.8450660000     -0.3442650000      0.3694170000
C                 -2.1351550000     -0.7567530000      0.7903470000
O                 -2.3009350000     -1.5987460000      1.8403540000
C                 -3.2847620000     -0.3166140000      0.1458550000
O                 -4.5151550000     -0.7377240000      0.5823150000
H                 -4.0980900000      1.5538640000     -2.2777370000
H                 -1.8177730000      1.6500710000     -2.2232950000
H                  3.0800180000      1.5785860000     -1.7548800000
H                  5.1330780000      0.7811730000     -0.5898070000
H                  4.9235330000     -0.7717660000      1.3544120000
H                  2.6684160000     -1.5055010000      2.1066640000
H                 -1.3430330000     -1.7871120000      2.1521120000
H                 -4.3349350000     -1.3217280000      1.3333850000
$end
$rem
MAX_SCF_CYCLES=200
BASIS  =  6-311++G(d,p)
GUI  =  2
JOB_TYPE  =  SP
METHOD  =  B3LYP
SOLVENT_METHOD = PCM
$end
$pcm
theory = CPCM
$end
$solvent
dielectric 37.219
opticaldielectric 1.43
$end

--------------------------------------------------------------

             Standard Nuclear Orientation (Angstroms)
    I     Atom           X                Y                Z
 ----------------------------------------------------------------
    1      O      -4.3374280000     0.9658390000    -1.5542180000
    2      C      -3.1686540000     0.5578080000    -0.9489290000
    3      C      -1.9209880000     0.9749960000    -1.3791290000
    4      C      -0.7462960000     0.5400210000    -0.7392320000
    5      C       0.5568870000     1.0020590000    -1.2216790000
    6      O       0.6610350000     1.7820500000    -2.1986880000
    7      C       1.7293320000     0.5004160000    -0.4980780000
    8      C       3.0174280000     0.9042400000    -0.9084710000
    9      C       4.1510250000     0.4580920000    -0.2577660000
   10      C       4.0323470000    -0.4208520000     0.8426510000
   11      C       2.7852620000    -0.8321040000     1.2655670000
   12      C       1.6109960000    -0.3880950000     0.6144490000
   13      C       0.3146990000    -0.8341200000     1.0775650000
   14      O       0.1842130000    -1.6338360000     2.0768180000
   15      C      -0.8450660000    -0.3442650000     0.3694170000
   16      C      -2.1351550000    -0.7567530000     0.7903470000
   17      O      -2.3009350000    -1.5987460000     1.8403540000
   18      C      -3.2847620000    -0.3166140000     0.1458550000
   19      O      -4.5151550000    -0.7377240000     0.5823150000
   20      H      -4.0980900000     1.5538640000    -2.2777370000
   21      H      -1.8177730000     1.6500710000    -2.2232950000
   22      H       3.0800180000     1.5785860000    -1.7548800000
   23      H       5.1330780000     0.7811730000    -0.5898070000
   24      H       4.9235330000    -0.7717660000     1.3544120000
   25      H       2.6684160000    -1.5055010000     2.1066640000
   26      H      -1.3430330000    -1.7871120000     2.1521120000
   27      H      -4.3349350000    -1.3217280000     1.3333850000
 ----------------------------------------------------------------

    8    -914.8637641433      8.22e-06  Convergence criterion met
 Total energy in the final basis set =     -914.8637641433

                    Orbital Energies (a.u.)
 --------------------------------------------------------------

 Alpha MOs
 -- Occupied --
-19.1591 -19.1573 -19.1391 -19.0941 -19.0797 -10.2423 -10.2374 -10.2343
-10.2323 -10.2299 -10.1779 -10.1773 -10.1769 -10.1756 -10.1734 -10.1729
-10.1723 -10.1712 -10.1688  -1.0816  -1.0646  -1.0480  -1.0079  -1.0058
 -0.8652  -0.8510  -0.7878  -0.7551  -0.7456  -0.7414  -0.6733  -0.6595
 -0.6309  -0.6089  -0.5731  -0.5647  -0.5510  -0.5295  -0.5060  -0.4984
 -0.4849  -0.4654  -0.4528  -0.4488  -0.4308  -0.4268  -0.4239  -0.4202
 -0.4200  -0.4086  -0.4004  -0.3832  -0.3814  -0.3806  -0.3669  -0.3644
 -0.3553  -0.3516  -0.3390  -0.3141  -0.2666  -0.2634  -0.2603  -0.2451
 -0.2335  -0.2231  -0.1452

 Beta MOs
 -- Occupied --
-19.1590 -19.1571 -19.1388 -19.0895 -19.0749 -10.2421 -10.2369 -10.2318
-10.2315 -10.2281 -10.1777 -10.1771 -10.1763 -10.1746 -10.1730 -10.1723
-10.1720 -10.1712 -10.1681  -1.0810  -1.0640  -1.0468  -0.9998  -0.9977
 -0.8625  -0.8497  -0.7841  -0.7522  -0.7435  -0.7400  -0.6665  -0.6579
 -0.6285  -0.6072  -0.5717  -0.5631  -0.5504  -0.5272  -0.5045  -0.4966
 -0.4838  -0.4638  -0.4486  -0.4470  -0.4295  -0.4259  -0.4211  -0.4180
 -0.4090  -0.4064  -0.3942  -0.3824  -0.3797  -0.3675  -0.3634  -0.3599
 -0.3539  -0.3438  -0.3378  -0.3040  -0.2596  -0.2532  -0.2516  -0.2408
 -0.2276  -0.2158

          Ground-State Mulliken Net Atomic Charges

     Atom                 Charge (a.u.)    Spin (a.u.)
  --------------------------------------------------------
      1 O                    -0.319538       0.004568
      2 C                    -0.465327       0.006350
      3 C                     0.102833       0.068291
      4 C                     0.817613       0.037727
      5 C                    -0.524309       0.101521
      6 O                    -0.473217       0.183179
      7 C                    -0.053999       0.045240
      8 C                     0.057176       0.021029
      9 C                    -0.507426       0.056837
     10 C                    -0.489620       0.030207
     11 C                     0.042408       0.046493
     12 C                     0.138554       0.012936
     13 C                    -0.313989       0.164772
     14 O                    -0.519739       0.169165
     15 C                     0.647708      -0.029938
     16 C                     0.013896       0.047106
     17 O                    -0.480454       0.010136
     18 C                    -0.312971       0.037675
     19 O                    -0.341522       0.005922
     20 H                     0.328415      -0.000348
     21 H                     0.165555      -0.005573
     22 H                     0.168560      -0.000958
     23 H                     0.199069      -0.004245
     24 H                     0.198889      -0.002904
     25 H                     0.177907      -0.001314
     26 H                     0.414760      -0.003625
     27 H                     0.328766      -0.000248
  --------------------------------------------------------
  Sum of atomic charges =    -1.000000

                    Cartesian Multipole Moments
 -----------------------------------------------------------------
    Charge (ESU x 10^10)
                -4.8032
    Dipole Moment (Debye)
         X       2.5995      Y       0.2581      Z      -0.1244
       Tot       2.6153
    Quadrupole Moments (Debye-Ang)
        XX    -132.6900     XY      -6.3164     YY    -122.9731
        XZ       6.6307     YZ       8.9382     ZZ    -126.2649

 Total job time:  104.72s(wall), 386.27s(cpu)
        *  Thank you very much for using Q-Chem.  Have a nice day.  *
