 Gaussian 16, Revision A.03,
 Gaussian 16:  ES64L-G16RevA.03 25-Dec-2016

 ----------------------------------------------------------------
 #P UB3LYP/6-311++G(d,p) SCRF=(PCM,Solvent=n,n-DiMethylFormamide)
 ----------------------------------------------------------------

 -------
 Reduced
 -------
 Symbolic Z-matrix:
 Charge = -3 Multiplicity = 1

                         Standard orientation:
 ---------------------------------------------------------------------
 Center     Atomic      Atomic             Coordinates (Angstroms)
 Number     Number       Type             X           Y           Z
 ---------------------------------------------------------------------
      1          6           0        2.708825    1.325817   -0.017289
      2          6           0        2.378122    2.668399   -0.012866
      3          6           0        1.011743    3.036522    0.013662
      4          6           0        1.731783    0.297972    0.009100
      5          6           0        0.335073    0.679276    0.007204
      6          6           0        0.026079    2.062617    0.024055
      7          6           0        2.184096   -1.096326    0.000833
      8          6           0        1.128374   -2.144814    0.002541
      9          6           0       -0.239533   -1.689885   -0.000366
     10          6           0       -0.643630   -0.367578   -0.001958
     11          8           0        3.417390   -1.393440   -0.003217
     12          8           0        1.412111   -3.387707    0.009761
     13          1           0        3.745166    1.004562   -0.038120
     14          1           0        3.152810    3.436560   -0.032416
     15          1           0        0.735226    4.089496    0.016050
     16          1           0       -1.016826    2.352867    0.038388
     17          1           0       -1.000804   -2.462315   -0.002224
     18         16           0       -2.445747   -0.018894   -0.004486
     19          8           0       -3.130781   -1.350947   -0.014374
     20          8           0       -2.735104    0.777207   -1.242510
     21          8           0       -2.739768    0.761029    1.242917
 ---------------------------------------------------------------------

 SCF Done:  E(UB3LYP) =  -1158.97549765     A.U. after   17 cycles

 The electronic state is 1-A.
 Alpha  occ. eigenvalues --  -89.02011 -19.06878 -19.06647 -19.06632 -19.02036
 Alpha  occ. eigenvalues --  -19.01366 -10.16807 -10.16384 -10.14863 -10.14812
 Alpha  occ. eigenvalues --  -10.14487 -10.14445 -10.14385 -10.14072 -10.13373
 Alpha  occ. eigenvalues --  -10.12401  -8.07889  -6.04191  -6.04169  -6.04007
 Alpha  occ. eigenvalues --   -1.07980  -0.95010  -0.94566  -0.94282  -0.92107
 Alpha  occ. eigenvalues --   -0.82754  -0.77110  -0.72157  -0.69458  -0.65354
 Alpha  occ. eigenvalues --   -0.58778  -0.58217  -0.55413  -0.52120  -0.47729
 Alpha  occ. eigenvalues --   -0.46838  -0.45114  -0.42955  -0.42776  -0.41487
 Alpha  occ. eigenvalues --   -0.40445  -0.39529  -0.37792  -0.37041  -0.35988
 Alpha  occ. eigenvalues --   -0.34590  -0.32874  -0.31874  -0.31825  -0.31238
 Alpha  occ. eigenvalues --   -0.30663  -0.30040  -0.27795  -0.27108  -0.26351
 Alpha  occ. eigenvalues --   -0.25398  -0.23428  -0.22467  -0.20723  -0.19138
 Alpha  occ. eigenvalues --   -0.17932  -0.11112
 Alpha virt. eigenvalues --   -0.00736   0.00559   0.01727   0.02125   0.02512
 Alpha virt. eigenvalues --    0.03688   0.04023   0.05020   0.05528   0.05701
 Alpha virt. eigenvalues --    0.06453   0.06705   0.06900   0.08376   0.08708

  Beta  occ. eigenvalues --  -89.02011 -19.06878 -19.06647 -19.06632 -19.02036
  Beta  occ. eigenvalues --  -19.01366 -10.16807 -10.16384 -10.14863 -10.14812
  Beta  occ. eigenvalues --  -10.14487 -10.14445 -10.14385 -10.14072 -10.13373
  Beta  occ. eigenvalues --  -10.12401  -8.07889  -6.04191  -6.04169  -6.04007
  Beta  occ. eigenvalues --   -1.07980  -0.95010  -0.94566  -0.94282  -0.92107
  Beta  occ. eigenvalues --   -0.82754  -0.77110  -0.72157  -0.69458  -0.65354
  Beta  occ. eigenvalues --   -0.58778  -0.58217  -0.55413  -0.52120  -0.47729
  Beta  occ. eigenvalues --   -0.46838  -0.45114  -0.42955  -0.42776  -0.41487
  Beta  occ. eigenvalues --   -0.40445  -0.39529  -0.37792  -0.37041  -0.35988
  Beta  occ. eigenvalues --   -0.34590  -0.32874  -0.31874  -0.31825  -0.31238
  Beta  occ. eigenvalues --   -0.30663  -0.30040  -0.27795  -0.27108  -0.26351
  Beta  occ. eigenvalues --   -0.25398  -0.23428  -0.22467  -0.20723  -0.19138
  Beta  occ. eigenvalues --   -0.17932  -0.11112
  Beta virt. eigenvalues --   -0.00736   0.00559   0.01727   0.02125   0.02512
  Beta virt. eigenvalues --    0.03688   0.04023   0.05020   0.05528   0.05701
  Beta virt. eigenvalues --    0.06453   0.06705   0.06900   0.08376   0.08708

 Mulliken charges and spin densities:
               1          2
     1  C    0.064916   0.000000
     2  C   -0.515892  -0.000000
     3  C   -0.871365  -0.000000
     4  C    0.526603   0.000000
     5  C    0.914836   0.000000
     6  C   -0.573665   0.000000
     7  C   -0.624892  -0.000000
     8  C   -0.029772  -0.000000
     9  C    0.154572   0.000000
    10  C   -0.797622  -0.000000
    11  O   -0.652976   0.000000
    12  O   -0.705787  -0.000000
    13  H    0.140717  -0.000000
    14  H    0.153747  -0.000000
    15  H    0.157523  -0.000000
    16  H    0.129605   0.000000
    17  H    0.197183  -0.000000
    18  S    0.589354   0.000000
    19  O   -0.387429   0.000000
    20  O   -0.434866  -0.000000
    21  O   -0.434792  -0.000000
 Sum of Mulliken charges =  -3.00000   0.00000

 Dipole moment (field-independent basis, Debye):
    X=             -0.3689    Y=             13.5631    Z=             -0.0252  Tot=             13.5681
 Quadrupole moment (field-independent basis, Debye-Ang):
   XX=           -212.2370   YY=           -171.2397   ZZ=           -121.2044
   XY=             30.2519   XZ=             -0.2141   YZ=              0.0610

 Normal termination of Gaussian 16 at Sat Jan 13 19:22:36 2024.
