 Gaussian 16, Revision A.03,
 Gaussian 16:  ES64L-G16RevA.03 25-Dec-2016

 ----------------------------------------------------------------------
 #P UB3LYP/6-311++G(d,p) nosym opt freq SCRF=(PCM,Solvent=n,n-DiMethylF
 ormamide)
 ----------------------------------------------------------------------

 -------
 Reduced
 -------
 Symbolic Z-matrix:
 Charge = -2 Multiplicity = 1

 SCF Done:  E(UB3LYP) =  -689.418148786     A.U. after   18 cycles
 SCF Done:  E(UB3LYP) =  -689.419063054     A.U. after   13 cycles
 SCF Done:  E(UB3LYP) =  -689.419214168     A.U. after   13 cycles
 SCF Done:  E(UB3LYP) =  -689.419253159     A.U. after   12 cycles
 SCF Done:  E(UB3LYP) =  -689.419259431     A.U. after   11 cycles
 SCF Done:  E(UB3LYP) =  -689.419263639     A.U. after   11 cycles
 SCF Done:  E(UB3LYP) =  -689.419264428     A.U. after   10 cycles
 SCF Done:  E(UB3LYP) =  -689.419264572     A.U. after   10 cycles
 Optimization completed.
    -- Stationary point found.
 Normal termination of Gaussian 16 at Sun Feb 11 03:20:03 2024.

 ----------------------------------------------------------------------
 #P Geom=AllCheck Guess=TCheck SCRF=Check GenChk UB3LYP/6-311++G(d,p) F
 req
 ----------------------------------------------------------------------

 Structure from the checkpoint file:  "282-an.chk"
 -------
 Reduced
 -------
 Charge = -2 Multiplicity = 1

                          Input orientation:
 ---------------------------------------------------------------------
 Center     Atomic      Atomic             Coordinates (Angstroms)
 Number     Number       Type             X           Y           Z
 ---------------------------------------------------------------------
      1          6           0       -1.819818    3.150582    0.226904
      2          6           0       -2.961293    2.450970   -0.100964
      3          6           0       -2.875619    1.076162   -0.443358
      4          6           0       -0.534019    2.535951    0.235719
      5          6           0       -0.443897    1.130259   -0.117149
      6          6           0       -1.642336    0.451537   -0.446533
      7          6           0        0.636988    3.269035    0.580247
      8          6           0        1.841539    2.544321    0.548075
      9          6           0        1.977508    1.182997    0.214348
     10          6           0        0.827287    0.421679   -0.138308
     11          8           0        0.686639    4.553675    0.924969
     12          8           0        0.891921   -0.843144   -0.457775
     13          1           0       -1.877100    4.202065    0.489047
     14          1           0       -3.926346    2.949684   -0.098084
     15          1           0       -3.773067    0.522404   -0.701659
     16          1           0       -1.560095   -0.597987   -0.708189
     17          6           0        3.340893    0.532320    0.235333
     18          8           0        2.950533    3.301348    0.896376
     19          6           0        4.130830    0.676603   -1.080024
     20          1           0        3.208291   -0.532163    0.448202
     21          1           0        3.941327    0.957574    1.047095
     22          1           0        2.513985    4.169896    1.071772
     23          1           0        3.584984    0.230734   -1.916329
     24          1           0        5.107044    0.182064   -1.015065
     25          1           0        4.304661    1.729688   -1.319210
 ---------------------------------------------------------------------

 SCF Done:  E(UB3LYP) =  -689.419264572     A.U. after    1 cycles

 Alpha  occ. eigenvalues --  -19.10826 -19.02204 -19.01335 -10.17484 -10.17038
 Alpha  occ. eigenvalues --  -10.15855 -10.14753 -10.14385 -10.14381 -10.14298
 Alpha  occ. eigenvalues --  -10.14260 -10.14218 -10.13750 -10.13306 -10.12396
 Alpha  occ. eigenvalues --   -1.01894  -0.92315  -0.91447  -0.82183  -0.77505
 Alpha  occ. eigenvalues --   -0.73941  -0.72006  -0.68902  -0.64112  -0.60794
 Alpha  occ. eigenvalues --   -0.57946  -0.55489  -0.53273  -0.49951  -0.46940
 Alpha  occ. eigenvalues --   -0.44549  -0.43039  -0.42362  -0.40818  -0.40014
 Alpha  occ. eigenvalues --   -0.39539  -0.38427  -0.36460  -0.35352  -0.35165
 Alpha  occ. eigenvalues --   -0.34815  -0.34479  -0.33681  -0.31872  -0.30750
 Alpha  occ. eigenvalues --   -0.30483  -0.29420  -0.29115  -0.22706  -0.21992
 Alpha  occ. eigenvalues --   -0.21001  -0.19290  -0.18930  -0.11133
 Alpha virt. eigenvalues --   -0.00493  -0.00036   0.00791   0.01413   0.01959
 Alpha virt. eigenvalues --    0.02460   0.02782   0.03035   0.04738   0.05144
 Alpha virt. eigenvalues --    0.05599   0.05740   0.05860   0.06935   0.08177

  Beta  occ. eigenvalues --  -19.10826 -19.02204 -19.01335 -10.17484 -10.17038
  Beta  occ. eigenvalues --  -10.15855 -10.14753 -10.14385 -10.14381 -10.14298
  Beta  occ. eigenvalues --  -10.14260 -10.14218 -10.13750 -10.13306 -10.12396
  Beta  occ. eigenvalues --   -1.01894  -0.92315  -0.91447  -0.82183  -0.77505
  Beta  occ. eigenvalues --   -0.73941  -0.72006  -0.68902  -0.64112  -0.60794
  Beta  occ. eigenvalues --   -0.57946  -0.55489  -0.53273  -0.49951  -0.46940
  Beta  occ. eigenvalues --   -0.44549  -0.43039  -0.42362  -0.40818  -0.40014
  Beta  occ. eigenvalues --   -0.39539  -0.38427  -0.36460  -0.35352  -0.35165
  Beta  occ. eigenvalues --   -0.34815  -0.34479  -0.33681  -0.31872  -0.30750
  Beta  occ. eigenvalues --   -0.30483  -0.29420  -0.29115  -0.22706  -0.21992
  Beta  occ. eigenvalues --   -0.21001  -0.19290  -0.18930  -0.11133
  Beta virt. eigenvalues --   -0.00493  -0.00036   0.00791   0.01413   0.01959
  Beta virt. eigenvalues --    0.02460   0.02782   0.03035   0.04738   0.05144
  Beta virt. eigenvalues --    0.05599   0.05740   0.05860   0.06935   0.08177

 Mulliken charges and spin densities:
               1          2
     1  C   -0.243608   0.000000
     2  C   -0.286756  -0.000000
     3  C   -0.479891   0.000000
     4  C    0.661640  -0.000000
     5  C    0.061326  -0.000000
     6  C    0.041099  -0.000000
     7  C   -1.011441   0.000000
     8  C   -0.806896  -0.000000
     9  C    1.803947  -0.000000
    10  C   -0.786712   0.000000
    11  O   -0.754541  -0.000000
    12  O   -0.680466   0.000000
    13  H    0.139292   0.000000
    14  H    0.155909  -0.000000
    15  H    0.152086  -0.000000
    16  H    0.141780  -0.000000
    17  C   -0.151004  -0.000000
    18  O   -0.341022   0.000000
    19  C   -0.614280   0.000000
    20  H    0.154454   0.000000
    21  H    0.156047   0.000000
    22  H    0.276541  -0.000000
    23  H    0.150960   0.000000
    24  H    0.117846  -0.000000
    25  H    0.143690   0.000000
 Sum of Mulliken charges =  -2.00000  -0.00000

 Dipole moment (field-independent basis, Debye):
    X=             -6.4824    Y=            -17.6210    Z=             -1.9053  Tot=             18.8720
 Quadrupole moment (field-independent basis, Debye-Ang):
   XX=           -120.1827   YY=           -181.0214   ZZ=           -104.2532
   XY=            -11.1136   XZ=             -2.2387   YZ=            -16.2911

  Exact polarizability: 373.892  -3.873 288.593  22.298  36.393 162.180
 Approx polarizability: 412.988   2.243 330.498  30.991  44.313 176.786

                      1                      2                      3
                      A                      A                      A
 Frequencies --     59.1092                73.0978                98.0240
 Red. masses --      4.4486                 2.8290                 4.7634
 Frc consts  --      0.0092                 0.0089                 0.0270
 IR Inten    --     16.3406                 3.0090                 2.4905

                      4                      5                      6
                      A                      A                      A
 Frequencies --    141.4811               170.0172               198.9830
 Red. masses --      5.3760                 7.0604                 1.1520
 Frc consts  --      0.0634                 0.1202                 0.0269
 IR Inten    --      2.8661                 4.9644                 4.0783

                      7                      8                      9
                      A                      A                      A
 Frequencies --    227.5595               250.0620               306.2570
 Red. masses --      4.7730                 4.6229                 2.3237
 Frc consts  --      0.1456                 0.1703                 0.1284
 IR Inten    --      0.3975                12.7380                15.4193

                     10                     11                     12
                      A                      A                      A
 Frequencies --    307.9243               340.1774               359.3436
 Red. masses --      4.4148                 5.8102                 8.2846
 Frc consts  --      0.2466                 0.3961                 0.6303
 IR Inten    --     13.7254                 9.4599                 5.9746

                     13                     14                     15
                      A                      A                      A
 Frequencies --    396.1288               437.9257               441.5371
 Red. masses --      6.7267                 6.6605                 4.6188
 Frc consts  --      0.6219                 0.7526                 0.5305
 IR Inten    --      7.6188                 3.2357                12.9057

                     16                     17                     18
                      A                      A                      A
 Frequencies --    478.5460               518.0078               554.0788
 Red. masses --      4.0165                 7.8198                 4.7332
 Frc consts  --      0.5419                 1.2363                 0.8561
 IR Inten    --      5.8068                 3.3650                 3.2556

                     19                     20                     21
                      A                      A                      A
 Frequencies --    609.9462               660.5548               687.1986
 Red. masses --      5.4887                 5.8454                 3.4208
 Frc consts  --      1.2031                 1.5027                 0.9518
 IR Inten    --     56.3486                 5.8791                 6.3812

                     22                     23                     24
                      A                      A                      A
 Frequencies --    691.2819               699.9022               728.7103
 Red. masses --      3.1869                 2.9170                 1.3599
 Frc consts  --      0.8973                 0.8419                 0.4255
 IR Inten    --     71.8826                10.1524               180.9476

                     25                     26                     27
                      A                      A                      A
 Frequencies --    749.6257               764.7899               777.2848
 Red. masses --      2.3393                 1.5881                 2.9199
 Frc consts  --      0.7745                 0.5473                 1.0394
 IR Inten    --     12.1231                 2.0355                15.0174

                     28                     29                     30
                      A                      A                      A
 Frequencies --    840.3375               875.6970               884.2093
 Red. masses --      1.4915                 3.1676                 3.5046
 Frc consts  --      0.6206                 1.4312                 1.6143
 IR Inten    --      1.0520                71.2219               125.2138

                     31                     32                     33
                      A                      A                      A
 Frequencies --    953.7317               968.0166               969.6480
 Red. masses --      1.3667                 3.4665                 1.2525
 Frc consts  --      0.7324                 1.9139                 0.6938
 IR Inten    --      2.1264                92.6693                 1.5755

                     34                     35                     36
                      A                      A                      A
 Frequencies --   1017.7869              1022.6275              1070.9668
 Red. masses --      2.0311                 3.6407                 1.8927
 Frc consts  --      1.2396                 2.2432                 1.2791
 IR Inten    --     52.5443               251.2114                15.9445

                     37                     38                     39
                      A                      A                      A
 Frequencies --   1087.0244              1101.7607              1123.8552
 Red. masses --      2.2995                 2.1506                 1.8499
 Frc consts  --      1.6009                 1.5381                 1.3766
 IR Inten    --    352.5785               123.3976                12.9743

                     40                     41                     42
                      A                      A                      A
 Frequencies --   1156.3952              1179.4117              1229.6908
 Red. masses --      2.1634                 1.7717                 2.6173
 Frc consts  --      1.7045                 1.4520                 2.3318
 IR Inten    --     47.6650                98.4735               217.6832

                     43                     44                     45
                      A                      A                      A
 Frequencies --   1273.0618              1295.9532              1315.5510
 Red. masses --      2.0242                 1.4717                 6.1246
 Frc consts  --      1.9329                 1.4563                 6.2452
 IR Inten    --     16.7424               324.1111               557.3778

                     46                     47                     48
                      A                      A                      A
 Frequencies --   1336.8730              1347.1836              1378.9279
 Red. masses --      1.5317                 1.8649                 3.6489
 Frc consts  --      1.6129                 1.9942                 4.0878
 IR Inten    --    127.0486                10.6385              1201.3765

                     49                     50                     51
                      A                      A                      A
 Frequencies --   1383.6456              1420.4096              1435.1233
 Red. masses --      1.4247                 4.7656                 2.5577
 Frc consts  --      1.6070                 5.6650                 3.1037
 IR Inten    --    321.5298                70.5572               126.1109

                     52                     53                     54
                      A                      A                      A
 Frequencies --   1460.0687              1460.5192              1481.7620
 Red. masses --      2.6527                 1.1014                 1.0485
 Frc consts  --      3.3319                 1.3843                 1.3563
 IR Inten    --     68.0276                 2.5193                 2.0833

                     55                     56                     57
                      A                      A                      A
 Frequencies --   1490.8010              1515.9142              1543.1754
 Red. masses --      1.0650                 4.2467                 5.2061
 Frc consts  --      1.3945                 5.7497                 7.3045
 IR Inten    --      7.1353                 6.7201               310.4087

                     58                     59                     60
                      A                      A                      A
 Frequencies --   1595.1565              1612.6448              3004.9331
 Red. masses --      5.2922                 5.8575                 1.0404
 Frc consts  --      7.9340                 8.9751                 5.5351
 IR Inten    --    152.2574                11.4987               101.4065

                     61                     62                     63
                      A                      A                      A
 Frequencies --   3011.7920              3049.8850              3064.2400
 Red. masses --      1.0583                 1.1001                 1.0960
 Frc consts  --      5.6561                 6.0289                 6.0633
 IR Inten    --    135.6169                 7.8383               124.7824

                     64                     65                     66
                      A                      A                      A
 Frequencies --   3084.5128              3134.9952              3150.0694
 Red. masses --      1.1032                 1.0842                 1.0879
 Frc consts  --      6.1839                 6.2782                 6.3600
 IR Inten    --     76.2089                15.3841                24.0235

                     67                     68                     69
                      A                      A                      A
 Frequencies --   3164.2800              3169.9481              3376.9258
 Red. masses --      1.0914                 1.0948                 1.0641
 Frc consts  --      6.4383                 6.4817                 7.1496
 IR Inten    --     56.3930                73.6574               261.6447

 - Thermochemistry -
 -------------------
 Temperature   298.150 Kelvin.  Pressure   1.00000 Atm.
 Atom     1 has atomic number  6 and mass  12.00000

 Molecular mass:   202.06299 amu.
 Principal axes and moments of inertia in atomic units:
                           1         2         3
     Eigenvalues --  1863.642153484.855285175.72118
           X            0.99218   0.11411  -0.05049
           Y           -0.12405   0.94561  -0.30071
           Z            0.01343   0.30463   0.95238
 This molecule is an asymmetric top.
 Rotational symmetry number  1.
 Warning -- assumption of classical behavior for rotation
           may cause significant error
 Rotational temperatures (Kelvin)      0.04648     0.02485     0.01673
 Rotational constants (GHZ):           0.96839     0.51788     0.34869
 Zero-point vibrational energy     495057.0 (Joules/Mol)
                                  118.32146 (Kcal/Mol)
 Warning -- explicit consideration of  19 degrees of freedom as
           vibrations may cause significant error
 Vibrational temperatures:     85.04   105.17   141.03   203.56   244.62
          (Kelvin)            286.29   327.41   359.78   440.64   443.03
                              489.44   517.02   569.94   630.08   635.27
                              688.52   745.30   797.20   877.58   950.39
                              988.73   994.60  1007.00  1048.45  1078.54
                             1100.36  1118.34  1209.06  1259.93  1272.18
                             1372.21  1392.76  1395.11  1464.37  1471.33
                             1540.88  1563.99  1585.19  1616.98  1663.79
                             1696.91  1769.25  1831.65  1864.59  1892.78
                             1923.46  1938.30  1983.97  1990.76  2043.65
                             2064.82  2100.71  2101.36  2131.93  2144.93
                             2181.06  2220.29  2295.07  2320.24  4323.43
                             4333.30  4388.10  4408.76  4437.93  4510.56
                             4532.25  4552.69  4560.85  4858.64

 Zero-point correction=                           0.188557 (Hartree/Particle)
 Thermal correction to Energy=                    0.201265
 Thermal correction to Enthalpy=                  0.202209
 Thermal correction to Gibbs Free Energy=         0.149610
 Sum of electronic and zero-point Energies=           -689.230707
 Sum of electronic and thermal Energies=              -689.218000
 Sum of electronic and thermal Enthalpies=            -689.217056
 Sum of electronic and thermal Free Energies=         -689.269654

                     E (Thermal)             CV                S
                      KCal/Mol        Cal/Mol-Kelvin    Cal/Mol-Kelvin
 Total                  126.295             49.844            110.703
 Electronic               0.000              0.000              0.000
 Translational            0.889              2.981             41.815
 Rotational               0.889              2.981             31.886
 Vibrational            124.518             43.883             37.002
 Vibration     1          0.596              1.974              4.487
 Vibration     2          0.599              1.967              4.068
 Vibration     3          0.603              1.951              3.493
 Vibration     4          0.615              1.912              2.784
 Vibration     5          0.625              1.879              2.435
 Vibration     6          0.637              1.841              2.142
 Vibration     7          0.651              1.799              1.898
 Vibration     8          0.663              1.763              1.730
 Vibration     9          0.697              1.662              1.382
 Vibration    10          0.698              1.659              1.373
 Vibration    11          0.720              1.595              1.211
 Vibration    12          0.734              1.556              1.125
 Vibration    13          0.763              1.478              0.977
 Vibration    14          0.798              1.388              0.833
 Vibration    15          0.801              1.380              0.822
 Vibration    16          0.835              1.298              0.714
 Vibration    17          0.873              1.210              0.615
 Vibration    18          0.909              1.131              0.536
 Vibration    19          0.969              1.011              0.433

                           ! Non-Optimized Parameters !
 Normal termination of Gaussian 16 at Sun Feb 11 04:05:37 2024.
