 Q-Chem 5.4, Q-Chem, Inc., Pleasanton, CA (2021)
 Q-Chem 5.4.0 for Intel X86 EM64T Linux

User input:
--------------------------------------------------------------
$molecule
-2 1
C                 -1.5931220000     -1.3869650000     -0.1672470000
C                 -0.2560350000     -0.6836090000     -0.1104480000
C                 -0.1838650000      0.7005030000      0.1430990000
C                 -1.4401100000      1.5035810000      0.3936600000
C                  1.0685770000      1.4160150000      0.2103640000
O                  1.1511570000      2.6875830000      0.4856530000
C                  2.2173540000      0.5999570000     -0.0325960000
C                  2.1453240000     -0.7677160000     -0.2931360000
C                  0.9143140000     -1.4922840000     -0.3584690000
O                  0.8579340000     -2.7649040000     -0.6355780000
H                 -1.4185910000     -2.4657550000     -0.1445300000
H                 -2.1544400000     -1.1693390000     -1.0995720000
H                 -2.2557630000     -1.1005300000      0.6579250000
H                 -1.8706250000      1.3256710000      1.4009700000
H                 -2.2384040000      1.2719150000     -0.3211900000
H                 -1.1894090000      2.5660070000      0.3373030000
H                  3.1881350000      1.0968840000      0.0147910000
H                  3.0575680000     -1.3370150000     -0.4810000000
$end
$rem
MAX_SCF_CYCLES=200
BASIS  =  6-311++G(d,p)
GUI  =  2
JOB_TYPE  =  SP
METHOD  =  B3LYP
SOLVENT_METHOD = PCM
$end
$pcm
theory = CPCM
$end
$solvent
dielectric 37.219
opticaldielectric 1.43
$end

--------------------------------------------------------------

             Standard Nuclear Orientation (Angstroms)
    I     Atom           X                Y                Z
 ----------------------------------------------------------------
    1      C      -1.5931220000    -1.3869650000    -0.1672470000
    2      C      -0.2560350000    -0.6836090000    -0.1104480000
    3      C      -0.1838650000     0.7005030000     0.1430990000
    4      C      -1.4401100000     1.5035810000     0.3936600000
    5      C       1.0685770000     1.4160150000     0.2103640000
    6      O       1.1511570000     2.6875830000     0.4856530000
    7      C       2.2173540000     0.5999570000    -0.0325960000
    8      C       2.1453240000    -0.7677160000    -0.2931360000
    9      C       0.9143140000    -1.4922840000    -0.3584690000
   10      O       0.8579340000    -2.7649040000    -0.6355780000
   11      H      -1.4185910000    -2.4657550000    -0.1445300000
   12      H      -2.1544400000    -1.1693390000    -1.0995720000
   13      H      -2.2557630000    -1.1005300000     0.6579250000
   14      H      -1.8706250000     1.3256710000     1.4009700000
   15      H      -2.2384040000     1.2719150000    -0.3211900000
   16      H      -1.1894090000     2.5660070000     0.3373030000
   17      H       3.1881350000     1.0968840000     0.0147910000
   18      H       3.0575680000    -1.3370150000    -0.4810000000
 ----------------------------------------------------------------

   10    -460.4808626220      1.45e-06  Convergence criterion met
 Total energy in the final basis set =     -460.4808626220

                    Orbital Energies (a.u.)
 --------------------------------------------------------------

 Alpha MOs
 -- Occupied --
-19.0108 -19.0108 -10.1602 -10.1602 -10.1330 -10.1330 -10.1233 -10.1228
-10.1153 -10.1147  -0.9221  -0.9189  -0.7801  -0.7266  -0.6931  -0.6247
 -0.6217  -0.5281  -0.5068  -0.4424  -0.4177  -0.3995  -0.3884  -0.3694
 -0.3597  -0.3586  -0.3493  -0.3489  -0.3332  -0.3063  -0.3014  -0.2992
 -0.2197  -0.1964  -0.1941  -0.1881  -0.1128

          Ground-State Mulliken Net Atomic Charges

     Atom                 Charge (a.u.)
  ----------------------------------------
      1 C                    -0.533577
      2 C                     0.550374
      3 C                     0.563072
      4 C                    -0.533997
      5 C                    -0.801841
      6 O                    -0.771827
      7 C                    -0.007535
      8 C                    -0.010658
      9 C                    -0.799833
     10 O                    -0.772716
     11 H                     0.149314
     12 H                     0.147283
     13 H                     0.135133
     14 H                     0.147042
     15 H                     0.134690
     16 H                     0.149633
     17 H                     0.127840
     18 H                     0.127602
  ----------------------------------------
  Sum of atomic charges =    -2.000000

                    Cartesian Multipole Moments
 -----------------------------------------------------------------
    Charge (ESU x 10^10)
                -9.6064
    Dipole Moment (Debye)
         X      -9.9918      Y       0.3848      Z       0.7503
       Tot      10.0273
    Quadrupole Moments (Debye-Ang)
        XX     -81.4350     XY      -2.8733     YY    -131.3380
        XZ       0.2158     YZ     -12.6938     ZZ     -72.0060

 Total job time:  19.13s(wall), 110.16s(cpu)
        *  Thank you very much for using Q-Chem.  Have a nice day.  *
