 Q-Chem 5.4, Q-Chem, Inc., Pleasanton, CA (2021)
 Q-Chem 5.4.0 for Intel X86 EM64T Linux

User input:
--------------------------------------------------------------
$molecule
-2 1
C                 -3.3561780000      3.6818700000      0.0365700000
C                 -4.5671200000      3.0219310000      0.0577440000
C                 -4.5906630000      1.5974020000      0.0820510000
C                 -2.1139180000      2.9947320000      0.0379600000
C                 -2.1376200000      1.5417350000      0.0627900000
C                 -3.4024240000      0.8971700000      0.0841240000
C                 -0.8863330000      3.7624930000      0.0147580000
C                  0.3076150000      2.9521800000      0.0186130000
C                  0.2867030000      1.4978920000      0.0435130000
C                 -0.9361030000      0.7337140000      0.0666070000
C                  1.5726250000      3.5963590000     -0.0028670000
C                  2.7301490000      2.8682170000     -0.0001750000
C                  2.7649080000      1.4391810000      0.0239660000
C                  1.5298370000      0.8173120000      0.0448160000
O                 -0.8631540000      5.0496030000     -0.0074140000
O                 -0.9589790000     -0.5549260000      0.0885960000
Br                 4.4464920000      3.8601740000     -0.0309240000
C                  4.0441670000      0.6435050000      0.0273530000
H                 -3.3030830000      4.7663740000      0.0177660000
H                 -5.4999210000      3.5839820000      0.0559550000
H                 -5.5416810000      1.0669340000      0.0988410000
H                 -3.3853270000     -0.1885320000      0.1023640000
H                  1.5653600000      4.6799840000     -0.0212290000
H                  1.4743040000     -0.2682970000      0.0637430000
H                  4.6753010000      0.8689240000      0.8981010000
H                  4.6628450000      0.8413780000     -0.8588610000
H                  3.8112380000     -0.4250390000      0.0457980000
$end

$rem
BASIS  =  6-311++G(d,p)
GUI  =  2
JOB_TYPE  =  SP
METHOD  =  B3LYP
SCF_CONVERGENCE  = 8
SOLVENT_METHOD = sm12
$end

$smx
solvent dimethylformamide
charges CM5
$end

--------------------------------------------------------------

             Standard Nuclear Orientation (Angstroms)
    I     Atom           X                Y                Z
 ----------------------------------------------------------------
    1      C      -3.3561780000     3.6818700000     0.0365700000
    2      C      -4.5671200000     3.0219310000     0.0577440000
    3      C      -4.5906630000     1.5974020000     0.0820510000
    4      C      -2.1139180000     2.9947320000     0.0379600000
    5      C      -2.1376200000     1.5417350000     0.0627900000
    6      C      -3.4024240000     0.8971700000     0.0841240000
    7      C      -0.8863330000     3.7624930000     0.0147580000
    8      C       0.3076150000     2.9521800000     0.0186130000
    9      C       0.2867030000     1.4978920000     0.0435130000
   10      C      -0.9361030000     0.7337140000     0.0666070000
   11      C       1.5726250000     3.5963590000    -0.0028670000
   12      C       2.7301490000     2.8682170000    -0.0001750000
   13      C       2.7649080000     1.4391810000     0.0239660000
   14      C       1.5298370000     0.8173120000     0.0448160000
   15      O      -0.8631540000     5.0496030000    -0.0074140000
   16      O      -0.9589790000    -0.5549260000     0.0885960000
   17      Br      4.4464920000     3.8601740000    -0.0309240000
   18      C       4.0441670000     0.6435050000     0.0273530000
   19      H      -3.3030830000     4.7663740000     0.0177660000
   20      H      -5.4999210000     3.5839820000     0.0559550000
   21      H      -5.5416810000     1.0669340000     0.0988410000
   22      H      -3.3853270000    -0.1885320000     0.1023640000
   23      H       1.5653600000     4.6799840000    -0.0212290000
   24      H       1.4743040000    -0.2682970000     0.0637430000
   25      H       4.6753010000     0.8689240000     0.8981010000
   26      H       4.6628450000     0.8413780000    -0.8588610000
   27      H       3.8112380000    -0.4250390000     0.0457980000
 ----------------------------------------------------------------

   18   -3301.7958019044      9.63e-09  Convergence criterion met
 Total energy in the final basis set =    -3302.0727290150

                    Orbital Energies (a.u.)
 --------------------------------------------------------------

 Alpha MOs
 -- Occupied --
******** -62.4767 -56.2971 -56.2935 -56.2934 -19.0302 -19.0294 -10.2195
-10.1895 -10.1885 -10.1862 -10.1760 -10.1746 -10.1741 -10.1728 -10.1701
-10.1700 -10.1677 -10.1574 -10.1554 -10.1552 -10.1551  -8.6849  -6.5154
 -6.5037  -6.5035  -2.6263  -2.6231  -2.6229  -2.6136  -2.6135  -0.9474
 -0.9440  -0.8625  -0.8441  -0.7953  -0.7780  -0.7511  -0.7441  -0.7225
 -0.6922  -0.6489  -0.6226  -0.5977  -0.5839  -0.5462  -0.5175  -0.5083
 -0.4704  -0.4520  -0.4459  -0.4349  -0.4260  -0.4225  -0.4199  -0.4038
 -0.3950  -0.3831  -0.3824  -0.3735  -0.3648  -0.3601  -0.3420  -0.3362
 -0.3334  -0.3265  -0.3166  -0.2911  -0.2857  -0.2543  -0.2406  -0.2364
 -0.2281  -0.2099  -0.2034  -0.1194

          Ground-State Mulliken Net Atomic Charges

     Atom                 Charge (a.u.)
  ----------------------------------------
      1 C                    -0.438481
      2 C                     1.561227
      3 C                     1.450806
      4 C                    -2.082838
      5 C                    -1.497053
      6 C                    -0.418855
      7 C                    -3.625004
      8 C                    -2.792877
      9 C                    -2.605946
     10 C                    -2.533814
     11 C                     0.475916
     12 C                     3.558360
     13 C                     2.918204
     14 C                    -0.666655
     15 O                    -0.328751
     16 O                    -0.350836
     17 Br                    0.404186
     18 C                     3.022012
     19 H                     0.110080
     20 H                     0.398133
     21 H                     0.391523
     22 H                     0.109048
     23 H                     0.131259
     24 H                    -0.119330
     25 H                     0.243604
     26 H                     0.243876
     27 H                     0.442209
  ----------------------------------------
  Sum of atomic charges =    -2.000000

                    Cartesian Multipole Moments
 -----------------------------------------------------------------
    Charge (ESU x 10^10)
                -9.6064
    Dipole Moment (Debye)
         X       7.4785      Y     -22.8650      Z      -0.3580
       Tot      24.0596
    Quadrupole Moments (Debye-Ang)
        XX    -179.6693     XY       9.5538     YY    -233.6243
        XZ       0.7710     YZ       0.0229     ZZ    -131.4449

 Total job time:  783.10s(wall), 5941.68s(cpu)
        *  Thank you very much for using Q-Chem.  Have a nice day.  *
