 Gaussian 16, Revision A.03,
 Gaussian 16:  ES64L-G16RevA.03 25-Dec-2016

 ----------------------------------------------------------------------
 #P UB3LYP/6-311++G(d,p) nosym opt freq SCRF=(PCM,Solvent=n,n-DiMethylF
 ormamide)
 ----------------------------------------------------------------------

 --------
 Oxidized
 --------
 Symbolic Z-matrix:
 Charge = -1 Multiplicity = 1

 SCF Done:  E(UB3LYP) =  -1462.93455877     A.U. after   16 cycles
 SCF Done:  E(UB3LYP) =  -1462.93372581     A.U. after   14 cycles
 SCF Done:  E(UB3LYP) =  -1462.93519155     A.U. after   14 cycles
 SCF Done:  E(UB3LYP) =  -1462.93519987     A.U. after   14 cycles
 SCF Done:  E(UB3LYP) =  -1462.93611980     A.U. after   14 cycles
 SCF Done:  E(UB3LYP) =  -1462.93607851     A.U. after   13 cycles
 SCF Done:  E(UB3LYP) =  -1462.93613589     A.U. after   12 cycles
 SCF Done:  E(UB3LYP) =  -1462.93613791     A.U. after   11 cycles
 SCF Done:  E(UB3LYP) =  -1462.93613821     A.U. after   10 cycles
 SCF Done:  E(UB3LYP) =  -1462.93613845     A.U. after    9 cycles
 SCF Done:  E(UB3LYP) =  -1462.93613864     A.U. after    9 cycles
 SCF Done:  E(UB3LYP) =  -1462.93613885     A.U. after    9 cycles
 SCF Done:  E(UB3LYP) =  -1462.93613895     A.U. after    9 cycles
 SCF Done:  E(UB3LYP) =  -1462.93613901     A.U. after    9 cycles
 Optimization completed.
    -- Stationary point found.
 Normal termination of Gaussian 16 at Sun Feb 11 01:14:10 2024.

 ----------------------------------------------------------------------
 #P Geom=AllCheck Guess=TCheck SCRF=Check GenChk UB3LYP/6-311++G(d,p) F
 req
 ----------------------------------------------------------------------

 Structure from the checkpoint file:  "190.chk"
 --------
 Oxidized
 --------
 Charge = -1 Multiplicity = 1

                          Input orientation:
 ---------------------------------------------------------------------
 Center     Atomic      Atomic             Coordinates (Angstroms)
 Number     Number       Type             X           Y           Z
 ---------------------------------------------------------------------
      1          8           0        1.492769   -2.873047   -0.578168
      2          6           0        1.478936   -1.554134   -0.297291
      3          6           0        2.741063   -0.920413   -0.138098
      4          8           0        3.802349   -1.733650   -0.289420
      5          6           0        2.806839    0.442784    0.143875
      6          6           0        1.630113    1.176943    0.274576
      7          6           0        0.390969    0.570031    0.128219
      8          6           0       -0.813502    1.423883    0.283845
      9          8           0       -0.719299    2.620982    0.538109
     10          6           0       -2.142887    0.780653    0.120372
     11          6           0       -3.301622    1.553443    0.255275
     12          6           0       -4.554226    0.970348    0.105953
     13          6           0       -4.659348   -0.393830   -0.180439
     14          6           0       -3.512692   -1.168122   -0.315924
     15          6           0       -2.247018   -0.590604   -0.167481
     16          6           0       -1.039090   -1.460232   -0.320056
     17          8           0       -1.174958   -2.652239   -0.565369
     18          6           0        0.292765   -0.820646   -0.163056
     19         16           0        4.397751    1.282590    0.385234
     20          8           0        5.410569    0.245800   -0.032931
     21          8           0        4.387562    2.465458   -0.503314
     22          8           0        4.482676    1.612249    1.826606
     23          1           0        2.422706   -3.148501   -0.632079
     24          1           0        4.625647   -1.172992   -0.222735
     25          1           0        1.668215    2.236595    0.490111
     26          1           0       -3.201857    2.608316    0.477124
     27          1           0       -5.448355    1.573443    0.211625
     28          1           0       -5.635589   -0.849702   -0.297178
     29          1           0       -3.580483   -2.225403   -0.537384
 ---------------------------------------------------------------------

 SCF Done:  E(UB3LYP) =  -1462.93613901     A.U. after    2 cycles

 Alpha  occ. eigenvalues --  -89.06447 -19.17432 -19.16944 -19.12470 -19.12443
 Alpha  occ. eigenvalues --  -19.11125 -19.10499 -19.10450 -10.28194 -10.27891
 Alpha  occ. eigenvalues --  -10.27158 -10.26949 -10.22141 -10.21268 -10.20684
 Alpha  occ. eigenvalues --  -10.20631 -10.20590 -10.20214 -10.19697 -10.19643
 Alpha  occ. eigenvalues --  -10.19568 -10.19518  -8.12315  -6.08600  -6.08552
 Alpha  occ. eigenvalues --   -6.08509  -1.12800  -1.10632  -1.07383  -1.05839
 Alpha  occ. eigenvalues --   -1.05665  -0.99004  -0.98836  -0.89357  -0.88174
 Alpha  occ. eigenvalues --   -0.81543  -0.78196  -0.77602  -0.76914  -0.70313
 Alpha  occ. eigenvalues --   -0.67772  -0.66306  -0.62547  -0.62116  -0.60219
 Alpha  occ. eigenvalues --   -0.58813  -0.56593  -0.53370  -0.52447  -0.51752
 Alpha  occ. eigenvalues --   -0.50288  -0.49419  -0.47474  -0.47155  -0.46275
 Alpha  occ. eigenvalues --   -0.46061  -0.45582  -0.45251  -0.44919  -0.44528
 Alpha  occ. eigenvalues --   -0.44066  -0.42195  -0.41637  -0.40300  -0.39468
 Alpha  occ. eigenvalues --   -0.39233  -0.38078  -0.37948  -0.36679  -0.35820
 Alpha  occ. eigenvalues --   -0.34828  -0.34706  -0.31704  -0.31607  -0.31065
 Alpha  occ. eigenvalues --   -0.28368  -0.28230  -0.27665  -0.27143  -0.26936
 Alpha  occ. eigenvalues --   -0.26687  -0.24167
 Alpha virt. eigenvalues --   -0.11445  -0.07242  -0.03711  -0.02146  -0.00651
 Alpha virt. eigenvalues --    0.00008   0.00985   0.01968   0.02083   0.03179
 Alpha virt. eigenvalues --    0.03713   0.03867   0.04028   0.04504   0.04667

  Beta  occ. eigenvalues --  -89.06447 -19.17432 -19.16944 -19.12470 -19.12443
  Beta  occ. eigenvalues --  -19.11125 -19.10499 -19.10450 -10.28194 -10.27891
  Beta  occ. eigenvalues --  -10.27158 -10.26949 -10.22141 -10.21268 -10.20684
  Beta  occ. eigenvalues --  -10.20631 -10.20590 -10.20214 -10.19697 -10.19643
  Beta  occ. eigenvalues --  -10.19568 -10.19518  -8.12315  -6.08600  -6.08552
  Beta  occ. eigenvalues --   -6.08509  -1.12800  -1.10632  -1.07383  -1.05839
  Beta  occ. eigenvalues --   -1.05665  -0.99004  -0.98836  -0.89357  -0.88174
  Beta  occ. eigenvalues --   -0.81543  -0.78196  -0.77602  -0.76914  -0.70313
  Beta  occ. eigenvalues --   -0.67772  -0.66306  -0.62547  -0.62116  -0.60219
  Beta  occ. eigenvalues --   -0.58813  -0.56593  -0.53370  -0.52447  -0.51752
  Beta  occ. eigenvalues --   -0.50288  -0.49419  -0.47474  -0.47155  -0.46275
  Beta  occ. eigenvalues --   -0.46061  -0.45582  -0.45251  -0.44919  -0.44528
  Beta  occ. eigenvalues --   -0.44066  -0.42195  -0.41637  -0.40300  -0.39468
  Beta  occ. eigenvalues --   -0.39233  -0.38078  -0.37948  -0.36679  -0.35820
  Beta  occ. eigenvalues --   -0.34828  -0.34706  -0.31704  -0.31607  -0.31065
  Beta  occ. eigenvalues --   -0.28368  -0.28230  -0.27665  -0.27143  -0.26936
  Beta  occ. eigenvalues --   -0.26687  -0.24167
  Beta virt. eigenvalues --   -0.11445  -0.07242  -0.03711  -0.02146  -0.00651
  Beta virt. eigenvalues --    0.00008   0.00985   0.01968   0.02083   0.03179
  Beta virt. eigenvalues --    0.03713   0.03867   0.04028   0.04504   0.04667

 Mulliken charges and spin densities:
               1          2
     1  O   -0.229732  -0.000000
     2  C   -0.217394   0.000000
     3  C   -0.321090   0.000000
     4  O   -0.428355   0.000000
     5  C   -0.346624   0.000000
     6  C   -0.351253   0.000000
     7  C    0.596426  -0.000000
     8  C   -0.625180  -0.000000
     9  O   -0.281377   0.000000
    10  C    0.377118   0.000000
    11  C    0.091923   0.000000
    12  C   -0.467093   0.000000
    13  C   -0.506259   0.000000
    14  C    0.157953  -0.000000
    15  C    0.056869   0.000000
    16  C   -0.419881  -0.000000
    17  O   -0.285313   0.000000
    18  C    0.570633  -0.000000
    19  S    0.950007   0.000000
    20  O   -0.470443  -0.000000
    21  O   -0.316101   0.000000
    22  O   -0.279353   0.000000
    23  H    0.323081  -0.000000
    24  H    0.447701  -0.000000
    25  H    0.196112  -0.000000
    26  H    0.180738  -0.000000
    27  H    0.207195   0.000000
    28  H    0.206065  -0.000000
    29  H    0.183625   0.000000
 Sum of Mulliken charges =  -1.00000   0.00000

 Dipole moment (field-independent basis, Debye):
    X=            -20.5999    Y=             -6.2362    Z=             -2.0571  Tot=             21.6213
 Quadrupole moment (field-independent basis, Debye-Ang):
   XX=           -209.4184   YY=           -169.3007   ZZ=           -145.0503
   XY=            -38.1364   XZ=            -10.5678   YZ=             -6.1157

  Exact polarizability: 445.799  -6.699 337.684   5.170  38.321 162.074
 Approx polarizability: 462.764 -18.780 436.079   2.236  51.864 195.723

                      1                      2                      3
                      A                      A                      A
 Frequencies --     13.5478                24.9337                55.1058
 Red. masses --     13.9672                 8.3396                10.1794
 Frc consts  --      0.0015                 0.0031                 0.0182
 IR Inten    --      0.9137                 2.3584                 6.4465

                      4                      5                      6
                      A                      A                      A
 Frequencies --     99.8282               110.2058               119.1635
 Red. masses --      7.3974                 5.7409                10.4584
 Frc consts  --      0.0434                 0.0411                 0.0875
 IR Inten    --      5.0549                 0.5434                 3.7924

                      7                      8                      9
                      A                      A                      A
 Frequencies --    122.7268               175.3147               205.4963
 Red. masses --     10.3343                 7.1603                 8.6610
 Frc consts  --      0.0917                 0.1297                 0.2155
 IR Inten    --      3.6062                 0.2344                 4.0389

                     10                     11                     12
                      A                      A                      A
 Frequencies --    233.9501               262.7722               291.0769
 Red. masses --      8.8999                 8.5604                 9.8729
 Frc consts  --      0.2870                 0.3483                 0.4928
 IR Inten    --      0.9843                31.5320                 8.6818

                     13                     14                     15
                      A                      A                      A
 Frequencies --    298.3176               302.2996               357.3290
 Red. masses --      6.0465                 6.9453                10.4073
 Frc consts  --      0.3170                 0.3740                 0.7829
 IR Inten    --      2.5942                 4.5001                 4.0360

                     16                     17                     18
                      A                      A                      A
 Frequencies --    379.1422               389.5273               397.5552
 Red. masses --      8.8424                 8.4708                 7.5830
 Frc consts  --      0.7489                 0.7573                 0.7061
 IR Inten    --      1.2620                10.3341                36.6691

                     19                     20                     21
                      A                      A                      A
 Frequencies --    429.8419               433.9888               455.4611
 Red. masses --      3.5859                10.2611                 4.7113
 Frc consts  --      0.3904                 1.1387                 0.5758
 IR Inten    --      1.0976                14.8978                 5.5530

                     22                     23                     24
                      A                      A                      A
 Frequencies --    470.5430               483.9237               498.4029
 Red. masses --     12.4124                10.2997                 9.8575
 Frc consts  --      1.6192                 1.4211                 1.4427
 IR Inten    --      0.8790                 9.1365                 9.6351

                     25                     26                     27
                      A                      A                      A
 Frequencies --    514.7343               518.1746               574.1027
 Red. masses --      1.1444                11.6697                 5.9255
 Frc consts  --      0.1786                 1.8461                 1.1507
 IR Inten    --    196.3704                26.8783                 0.5026

                     28                     29                     30
                      A                      A                      A
 Frequencies --    583.1035               597.7834               621.1018
 Red. masses --     10.3698                 6.7828                10.4608
 Frc consts  --      2.0774                 1.4281                 2.3776
 IR Inten    --    220.2243                25.6680               205.2334

                     31                     32                     33
                      A                      A                      A
 Frequencies --    662.3781               678.8106               695.5666
 Red. masses --      6.9602                 6.5946                 5.5441
 Frc consts  --      1.7992                 1.7903                 1.5804
 IR Inten    --      3.6035                29.1912                 0.1958

                     34                     35                     36
                      A                      A                      A
 Frequencies --    729.6755               731.6896               744.9013
 Red. masses --      2.7554                 5.9817                 4.1742
 Frc consts  --      0.8643                 1.8868                 1.3647
 IR Inten    --     90.5158                46.8885                26.9732

                     37                     38                     39
                      A                      A                      A
 Frequencies --    766.7461               778.5387               803.6372
 Red. masses --      1.1284                 6.2255                 3.2635
 Frc consts  --      0.3909                 2.2232                 1.2418
 IR Inten    --    139.8266               101.8412                 5.6240

                     40                     41                     42
                      A                      A                      A
 Frequencies --    818.5926               867.4407               906.3283
 Red. masses --      2.7753                 7.2635                 1.4213
 Frc consts  --      1.0957                 3.2201                 0.6879
 IR Inten    --      4.2161                55.1870                12.7330

                     43                     44                     45
                      A                      A                      A
 Frequencies --    915.6182               918.8324               960.0117
 Red. masses --      1.4631                 7.9730                13.9301
 Frc consts  --      0.7227                 3.9659                 7.5641
 IR Inten    --      1.2858                 4.4883               459.7786

                     46                     47                     48
                      A                      A                      A
 Frequencies --   1002.6660              1023.3948              1034.6835
 Red. masses --      1.3869                 1.3305                 5.1025
 Frc consts  --      0.8215                 0.8210                 3.2185
 IR Inten    --      2.1857                 0.0094                72.0937

                     49                     50                     51
                      A                      A                      A
 Frequencies --   1060.2302              1068.0578              1091.3018
 Red. masses --      3.0354                 3.2912                12.5658
 Frc consts  --      2.0103                 2.2121                 8.8172
 IR Inten    --     83.5094                57.2036               532.4991

                     52                     53                     54
                      A                      A                      A
 Frequencies --   1115.5030              1159.9405              1176.8262
 Red. masses --      2.0530                19.7648                 1.1697
 Frc consts  --      1.5052                15.6680                 0.9544
 IR Inten    --      1.0426               568.3624                 7.6945

                     55                     56                     57
                      A                      A                      A
 Frequencies --   1195.3665              1215.1515              1243.1154
 Red. masses --      1.8863                 2.2864                 2.1371
 Frc consts  --      1.5880                 1.9891                 1.9458
 IR Inten    --    102.7918                38.2164               343.3477

                     58                     59                     60
                      A                      A                      A
 Frequencies --   1270.8996              1279.4070              1299.1077
 Red. masses --      4.4617                 2.5438                 2.5860
 Frc consts  --      4.2460                 2.4533                 2.5714
 IR Inten    --   1167.8918               124.8262               744.0504

                     61                     62                     63
                      A                      A                      A
 Frequencies --   1327.7856              1355.5650              1357.1138
 Red. masses --      4.8788                 3.0531                 6.0795
 Frc consts  --      5.0677                 3.3054                 6.5970
 IR Inten    --    129.1372                78.3621                70.0120

                     64                     65                     66
                      A                      A                      A
 Frequencies --   1443.0965              1476.2927              1484.3615
 Red. masses --      3.0147                 2.5423                 3.0810
 Frc consts  --      3.6990                 3.2646                 3.9997
 IR Inten    --    459.2567                17.4916                73.3864

                     67                     68                     69
                      A                      A                      A
 Frequencies --   1498.5658              1508.8575              1586.0617
 Red. masses --      2.7386                 2.6727                 6.4103
 Frc consts  --      3.6235                 3.5851                 9.5010
 IR Inten    --    170.6452                59.4808               357.0840

                     70                     71                     72
                      A                      A                      A
 Frequencies --   1611.8317              1613.1276              1625.3769
 Red. masses --      7.0307                 5.4308                 5.6812
 Frc consts  --     10.7619                 8.3264                 8.8429
 IR Inten    --     11.8764               302.0445                34.6788

                     73                     74                     75
                      A                      A                      A
 Frequencies --   1684.1728              1698.2390              3139.0144
 Red. masses --     11.4612                11.3178                 1.0699
 Frc consts  --     19.1537                19.2313                 6.2114
 IR Inten    --     26.3525               668.2487              1553.6650

                     76                     77                     78
                      A                      A                      A
 Frequencies --   3177.3064              3189.8567              3202.7248
 Red. masses --      1.0874                 1.0916                 1.0931
 Frc consts  --      6.4680                 6.5442                 6.6063
 IR Inten    --      3.7100                12.5002                 7.0699

                     79                     80                     81
                      A                      A                      A
 Frequencies --   3206.6304              3207.9977              3698.8100
 Red. masses --      1.0944                 1.0902                 1.0652
 Frc consts  --      6.6303                 6.6105                 8.5860
 IR Inten    --     18.3186                 3.0950               267.7357

 - Thermochemistry -
 -------------------
 Temperature   298.150 Kelvin.  Pressure   1.00000 Atm.
 Atom     1 has atomic number  8 and mass  15.99491

 Molecular mass:   318.99125 amu.
 Principal axes and moments of inertia in atomic units:
                           1         2         3
     Eigenvalues --  3110.06792********************
           X            0.99374  -0.10948  -0.02212
           Y            0.10256   0.97286  -0.20744
           Z            0.04423   0.20388   0.97800
 This molecule is an asymmetric top.
 Rotational symmetry number  1.
 Warning -- assumption of classical behavior for rotation
           may cause significant error
 Rotational temperatures (Kelvin)      0.02785     0.00766     0.00616
 Rotational constants (GHZ):           0.58029     0.15957     0.12829
 Zero-point vibrational energy     498404.1 (Joules/Mol)
                                  119.12144 (Kcal/Mol)
 Warning -- explicit consideration of  29 degrees of freedom as
           vibrations may cause significant error
 Vibrational temperatures:     19.49    35.87    79.29   143.63   158.56
          (Kelvin)            171.45   176.58   252.24   295.66   336.60
                              378.07   418.79   429.21   434.94   514.12
                              545.50   560.44   571.99   618.45   624.41
                              655.31   677.01   696.26   717.09   740.59
                              745.54   826.01   838.96   860.08   893.63
                              953.01   976.66  1000.77  1049.84  1052.74
                             1071.75  1103.18  1120.14  1156.25  1177.77
                             1248.05  1304.00  1317.37  1321.99  1381.24
                             1442.61  1472.44  1488.68  1525.43  1536.70
                             1570.14  1604.96  1668.90  1693.19  1719.87
                             1748.33  1788.57  1828.54  1840.78  1869.13
                             1910.39  1950.36  1952.58  2076.29  2124.06
                             2135.67  2156.10  2170.91  2281.99  2319.07
                             2320.93  2338.55  2423.15  2443.39  4516.34
                             4571.44  4589.49  4608.01  4613.63  4615.59
                             5321.76

 Zero-point correction=                           0.189832 (Hartree/Particle)
 Thermal correction to Energy=                    0.207099
 Thermal correction to Enthalpy=                  0.208044
 Thermal correction to Gibbs Free Energy=         0.142837
 Sum of electronic and zero-point Energies=          -1462.746307
 Sum of electronic and thermal Energies=             -1462.729040
 Sum of electronic and thermal Enthalpies=           -1462.728095
 Sum of electronic and thermal Free Energies=        -1462.793302

                     E (Thermal)             CV                S
                      KCal/Mol        Cal/Mol-Kelvin    Cal/Mol-Kelvin
 Total                  129.957             67.371            137.239
 Electronic               0.000              0.000              0.000
 Translational            0.889              2.981             43.176
 Rotational               0.889              2.981             34.558
 Vibrational            128.179             61.410             59.505
 Vibration     1          0.593              1.986              7.408
 Vibration     2          0.593              1.985              6.196
 Vibration     3          0.596              1.976              4.625
 Vibration     4          0.604              1.949              3.458
 Vibration     5          0.606              1.941              3.265
 Vibration     6          0.609              1.933              3.114
 Vibration     7          0.610              1.930              3.057
 Vibration     8          0.627              1.873              2.378
 Vibration     9          0.640              1.832              2.083
 Vibration    10          0.654              1.789              1.848
 Vibration    11          0.670              1.741              1.643
 Vibration    12          0.687              1.690              1.468
 Vibration    13          0.691              1.677              1.426
 Vibration    14          0.694              1.669              1.404
 Vibration    15          0.732              1.560              1.134
 Vibration    16          0.749              1.515              1.043
 Vibration    17          0.757              1.493              1.002
 Vibration    18          0.764              1.475              0.972
 Vibration    19          0.791              1.405              0.859
 Vibration    20          0.795              1.396              0.846
 Vibration    21          0.814              1.349              0.779
 Vibration    22          0.828              1.315              0.736
 Vibration    23          0.840              1.286              0.700
 Vibration    24          0.854              1.254              0.662
 Vibration    25          0.870              1.217              0.622
 Vibration    26          0.873              1.210              0.614
 Vibration    27          0.930              1.087              0.496
 Vibration    28          0.940              1.068              0.480
 Vibration    29          0.956              1.037              0.453

 Optimization completed.
    -- Stationary point found.
 Normal termination of Gaussian 16 at Sun Feb 11 03:24:38 2024.
