 Gaussian 16, Revision A.03,
 Gaussian 16:  ES64L-G16RevA.03 25-Dec-2016

 ----------------------------------------------------------------------
 #P UB3LYP/6-311++G(d,p) nosym opt freq SCRF=(PCM,Solvent=n,n-DiMethylF
 ormamide)
 ----------------------------------------------------------------------

 -------
 Reduced
 -------
 Symbolic Z-matrix:
 Charge = -2 Multiplicity = 1

 SCF Done:  E(UB3LYP) =  -767.841540608     A.U. after   17 cycles
 SCF Done:  E(UB3LYP) =  -767.843135861     A.U. after   14 cycles
 SCF Done:  E(UB3LYP) =  -767.843336289     A.U. after   13 cycles
 SCF Done:  E(UB3LYP) =  -767.843332695     A.U. after   13 cycles
 SCF Done:  E(UB3LYP) =  -767.843377404     A.U. after   12 cycles
 SCF Done:  E(UB3LYP) =  -767.843381374     A.U. after   11 cycles
 Optimization completed.
    -- Stationary point found.
 Normal termination of Gaussian 16 at Sat Feb 10 18:32:41 2024.

 ----------------------------------------------------------------------
 #P Geom=AllCheck Guess=TCheck SCRF=Check GenChk UB3LYP/6-311++G(d,p) F
 req
 ----------------------------------------------------------------------

 Structure from the checkpoint file:  "130-an.chk"
 -------
 Reduced
 -------
 Charge = -2 Multiplicity = 1

                          Input orientation:
 ---------------------------------------------------------------------
 Center     Atomic      Atomic             Coordinates (Angstroms)
 Number     Number       Type             X           Y           Z
 ---------------------------------------------------------------------
      1          6           0       -3.373367    3.491083    0.023227
      2          6           0       -4.592319    2.853598    0.073571
      3          6           0       -4.604106    1.424475    0.120970
      4          6           0       -2.123263    2.799198    0.018222
      5          6           0       -2.151449    1.349904    0.070289
      6          6           0       -3.425798    0.716739    0.118369
      7          6           0       -0.895347    3.542525   -0.035205
      8          6           0        0.302623    2.749799   -0.029982
      9          6           0        0.274828    1.300510    0.022459
     10          6           0       -0.953395    0.553902    0.073655
     11          6           0        1.578389    3.391301   -0.073978
     12          6           0        2.772078    2.705917   -0.071152
     13          6           0        2.728731    1.277436   -0.022445
     14          6           0        1.524005    0.617064    0.022601
     15          8           0       -0.869251    4.849678   -0.082729
     16          8           0       -0.979389   -0.748668    0.119985
     17          6           0       -5.896343    3.615764    0.080763
     18          1           0       -5.555164    0.899160    0.158800
     19          1           0       -3.438962   -0.367455    0.153807
     20          1           0        1.495930   -0.466675    0.061833
     21          6           0        4.104299    3.416278   -0.114971
     22          1           0        3.658899    0.714719   -0.020161
     23          1           0       -3.332229    4.574957   -0.015820
     24          1           0        1.578717    4.476147   -0.109947
     25          1           0       -5.726130    4.694375    0.041614
     26          1           0       -6.482720    3.401533    0.982263
     27          1           0       -6.526627    3.344352   -0.774478
     28          1           0        3.974765    4.500763   -0.147382
     29          1           0        4.689577    3.121976   -0.994269
     30          1           0        4.716677    3.178023    0.762901
 ---------------------------------------------------------------------

 SCF Done:  E(UB3LYP) =  -767.843381374     A.U. after    1 cycles

 Alpha  occ. eigenvalues --  -19.01680 -19.01277 -10.17118 -10.16685 -10.15490
 Alpha  occ. eigenvalues --  -10.15488 -10.15296 -10.15295 -10.14513 -10.14507
 Alpha  occ. eigenvalues --  -10.14401 -10.14398 -10.13937 -10.13931 -10.13347
 Alpha  occ. eigenvalues --  -10.13344 -10.13272 -10.13269  -0.92763  -0.92087
 Alpha  occ. eigenvalues --   -0.82741  -0.82297  -0.76582  -0.74189  -0.72626
 Alpha  occ. eigenvalues --   -0.71298  -0.68357  -0.65907  -0.62912  -0.59228
 Alpha  occ. eigenvalues --   -0.57404  -0.55481  -0.52227  -0.49305  -0.48294
 Alpha  occ. eigenvalues --   -0.44347  -0.42947  -0.42741  -0.41717  -0.40636
 Alpha  occ. eigenvalues --   -0.40523  -0.39587  -0.39574  -0.38230  -0.37711
 Alpha  occ. eigenvalues --   -0.37202  -0.35967  -0.35537  -0.34927  -0.34476
 Alpha  occ. eigenvalues --   -0.32608  -0.31813  -0.31220  -0.30974  -0.29210
 Alpha  occ. eigenvalues --   -0.28894  -0.23069  -0.22008  -0.21610  -0.20661
 Alpha  occ. eigenvalues --   -0.19745  -0.19109  -0.10515
 Alpha virt. eigenvalues --   -0.02292  -0.00117   0.00278   0.00434   0.01359
 Alpha virt. eigenvalues --    0.02099   0.02229   0.02288   0.03417   0.04073
 Alpha virt. eigenvalues --    0.04156   0.04516   0.04701   0.05774   0.06065

  Beta  occ. eigenvalues --  -19.01680 -19.01277 -10.17118 -10.16685 -10.15490
  Beta  occ. eigenvalues --  -10.15488 -10.15296 -10.15295 -10.14513 -10.14507
  Beta  occ. eigenvalues --  -10.14401 -10.14398 -10.13937 -10.13931 -10.13347
  Beta  occ. eigenvalues --  -10.13344 -10.13272 -10.13269  -0.92763  -0.92087
  Beta  occ. eigenvalues --   -0.82741  -0.82297  -0.76582  -0.74189  -0.72626
  Beta  occ. eigenvalues --   -0.71298  -0.68357  -0.65907  -0.62912  -0.59228
  Beta  occ. eigenvalues --   -0.57404  -0.55481  -0.52227  -0.49305  -0.48294
  Beta  occ. eigenvalues --   -0.44347  -0.42947  -0.42741  -0.41717  -0.40636
  Beta  occ. eigenvalues --   -0.40523  -0.39587  -0.39574  -0.38230  -0.37711
  Beta  occ. eigenvalues --   -0.37202  -0.35967  -0.35537  -0.34927  -0.34476
  Beta  occ. eigenvalues --   -0.32608  -0.31813  -0.31220  -0.30974  -0.29210
  Beta  occ. eigenvalues --   -0.28894  -0.23069  -0.22008  -0.21610  -0.20661
  Beta  occ. eigenvalues --   -0.19745  -0.19109  -0.10515
  Beta virt. eigenvalues --   -0.02292  -0.00117   0.00278   0.00434   0.01359
  Beta virt. eigenvalues --    0.02099   0.02229   0.02288   0.03417   0.04073
  Beta virt. eigenvalues --    0.04156   0.04516   0.04701   0.05774   0.06065

 Mulliken charges and spin densities:
               1          2
     1  C   -0.346227  -0.000000
     2  C    0.332238   0.000000
     3  C   -0.576784  -0.000000
     4  C    0.188184  -0.000000
     5  C    0.180438   0.000000
     6  C    0.059186   0.000000
     7  C   -0.378479  -0.000000
     8  C    0.188525  -0.000000
     9  C    0.180344   0.000000
    10  C   -0.904509   0.000000
    11  C   -0.344850  -0.000000
    12  C    0.332930   0.000000
    13  C   -0.577687   0.000000
    14  C    0.058040  -0.000000
    15  O   -0.691188  -0.000000
    16  O   -0.674418  -0.000000
    17  C   -0.376135  -0.000000
    18  H    0.152993  -0.000000
    19  H    0.148043  -0.000000
    20  H    0.147635  -0.000000
    21  C   -0.376656  -0.000000
    22  H    0.152992   0.000000
    23  H    0.109361   0.000000
    24  H    0.109884   0.000000
    25  H    0.153953  -0.000000
    26  H    0.149613  -0.000000
    27  H    0.149513   0.000000
    28  H    0.154049   0.000000
    29  H    0.149490  -0.000000
    30  H    0.149521  -0.000000
 Sum of Mulliken charges =  -2.00000   0.00000

 Dipole moment (field-independent basis, Debye):
    X=              8.8776    Y=            -19.8119    Z=             -0.1756  Tot=             21.7107
 Quadrupole moment (field-independent basis, Debye-Ang):
   XX=           -135.7851   YY=           -212.0909   ZZ=           -118.7058
   XY=             17.4600   XZ=              0.3931   YZ=              1.5612

  Exact polarizability: 623.850  -4.897 389.748  -8.935  -7.284 177.024
 Approx polarizability: 663.339  -4.409 453.889  -9.378  -8.960 196.129

                      1                      2                      3
                      A                      A                      A
 Frequencies --     50.0408                91.0108               115.8846
 Red. masses --      4.8403                 3.5667                 1.0870
 Frc consts  --      0.0071                 0.0174                 0.0086
 IR Inten    --     19.5223                 0.0176                 0.1111

                      4                      5                      6
                      A                      A                      A
 Frequencies --    117.3707               123.9015               165.3481
 Red. masses --      1.6065                 1.9265                 3.8465
 Frc consts  --      0.0130                 0.0174                 0.0620
 IR Inten    --      2.1270                 1.7074                17.3840

                      7                      8                      9
                      A                      A                      A
 Frequencies --    166.6467               185.6750               236.6892
 Red. masses --      6.1863                 3.3974                 4.3556
 Frc consts  --      0.1012                 0.0690                 0.1438
 IR Inten    --      7.0651                 0.0479                 1.0566

                     10                     11                     12
                      A                      A                      A
 Frequencies --    270.4813               309.5337               322.8728
 Red. masses --      4.1596                 4.2933                 4.8741
 Frc consts  --      0.1793                 0.2424                 0.2994
 IR Inten    --     10.1949                 0.0161                 9.5156

                     13                     14                     15
                      A                      A                      A
 Frequencies --    342.9634               365.7138               369.9400
 Red. masses --      7.1020                 6.2516                 3.5955
 Frc consts  --      0.4922                 0.4926                 0.2899
 IR Inten    --      2.9775                 0.1633                 7.6648

                     16                     17                     18
                      A                      A                      A
 Frequencies --    416.5280               437.4729               437.4949
 Red. masses --      5.2185                 3.7305                 4.5240
 Frc consts  --      0.5334                 0.4207                 0.5102
 IR Inten    --      0.0176                22.0799                 3.4225

                     19                     20                     21
                      A                      A                      A
 Frequencies --    481.8946               492.8379               545.8902
 Red. masses --      2.8955                11.7819                 4.1073
 Frc consts  --      0.3962                 1.6861                 0.7211
 IR Inten    --      0.0174                 3.2133                 0.0043

                     22                     23                     24
                      A                      A                      A
 Frequencies --    574.2836               590.7430               635.2740
 Red. masses --      5.1075                 5.7298                 3.4534
 Frc consts  --      0.9925                 1.1781                 0.8212
 IR Inten    --     57.3029                 0.4205                26.9898

                     25                     26                     27
                      A                      A                      A
 Frequencies --    653.7005               700.6594               713.1242
 Red. masses --      7.2454                 6.4982                 4.0319
 Frc consts  --      1.8242                 1.8796                 1.2081
 IR Inten    --      0.3897                 3.4478                58.2397

                     28                     29                     30
                      A                      A                      A
 Frequencies --    723.5274               730.0543               771.6476
 Red. masses --      5.4748                 4.2572                 6.1244
 Frc consts  --      1.6886                 1.3369                 2.1486
 IR Inten    --     25.9906                 0.0750                35.6497

                     31                     32                     33
                      A                      A                      A
 Frequencies --    791.2787               801.8391               832.4430
 Red. masses --      1.9267                 1.4148                 3.4400
 Frc consts  --      0.7108                 0.5359                 1.4045
 IR Inten    --     36.9683                 0.1044                35.4005

                     34                     35                     36
                      A                      A                      A
 Frequencies --    904.6697               911.3182               916.8881
 Red. masses --      3.7259                 1.3816                 1.3887
 Frc consts  --      1.7967                 0.6760                 0.6879
 IR Inten    --      0.0246                 8.7063                19.2807

                     37                     38                     39
                      A                      A                      A
 Frequencies --    923.3386               966.1653               976.1061
 Red. masses --      6.1976                 1.8563                 1.2975
 Frc consts  --      3.1131                 1.0209                 0.7284
 IR Inten    --     32.4860                16.1660                 0.6172

                     40                     41                     42
                      A                      A                      A
 Frequencies --    980.0889              1011.2728              1032.7330
 Red. masses --      1.3067                 1.5013                 1.8536
 Frc consts  --      0.7395                 0.9046                 1.1648
 IR Inten    --      2.6415                 0.9173                 9.7322

                     43                     44                     45
                      A                      A                      A
 Frequencies --   1056.3628              1056.4831              1077.8849
 Red. masses --      1.4929                 1.4929                 4.0317
 Frc consts  --      0.9815                 0.9817                 2.7599
 IR Inten    --      1.7016                 9.2200               656.6635

                     46                     47                     48
                      A                      A                      A
 Frequencies --   1112.7219              1135.8714              1173.1557
 Red. masses --      1.8343                 1.6497                 3.0668
 Frc consts  --      1.3381                 1.2540                 2.4869
 IR Inten    --    145.6927                67.3865               180.9429

                     49                     50                     51
                      A                      A                      A
 Frequencies --   1177.2272              1202.1696              1203.4835
 Red. masses --      1.4612                 5.2067                 4.5005
 Frc consts  --      1.1931                 4.4334                 3.8405
 IR Inten    --    502.8121               481.1998               345.1906

                     52                     53                     54
                      A                      A                      A
 Frequencies --   1205.1223              1263.7721              1307.1437
 Red. masses --      1.5646                 2.1902                 5.7408
 Frc consts  --      1.3388                 2.0609                 5.7792
 IR Inten    --    126.4356                98.7252                15.8680

                     55                     56                     57
                      A                      A                      A
 Frequencies --   1333.9400              1339.8832              1352.8978
 Red. masses --      1.8692                 3.7234                 6.1367
 Frc consts  --      1.9596                 3.9384                 6.6179
 IR Inten    --      7.3121              2379.2182               736.8092

                     58                     59                     60
                      A                      A                      A
 Frequencies --   1402.3713              1404.2286              1414.0791
 Red. masses --      1.2599                 1.3063                 4.0961
 Frc consts  --      1.4598                 1.5177                 4.8257
 IR Inten    --     16.8805                35.7308               346.0788

                     61                     62                     63
                      A                      A                      A
 Frequencies --   1448.5676              1456.0920              1470.5796
 Red. masses --      6.1277                 2.7730                 1.0443
 Frc consts  --      7.5758                 3.4639                 1.3306
 IR Inten    --      1.1304                 0.0674                 9.1870

                     64                     65                     66
                      A                      A                      A
 Frequencies --   1470.9012              1476.4482              1486.0839
 Red. masses --      1.0443                 1.4328                 1.4947
 Frc consts  --      1.3313                 1.8402                 1.9449
 IR Inten    --      8.3419                26.5449                69.2958

                     67                     68                     69
                      A                      A                      A
 Frequencies --   1492.2780              1506.8071              1524.8035
 Red. masses --      1.9042                 3.6444                 4.1342
 Frc consts  --      2.4984                 4.8752                 5.6633
 IR Inten    --      0.4009                 2.9916                86.6257

                     70                     71                     72
                      A                      A                      A
 Frequencies --   1574.5681              1622.9329              1624.6793
 Red. masses --      7.4590                 5.6466                 5.8023
 Frc consts  --     10.8957                 8.7628                 9.0238
 IR Inten    --      1.8934               103.8230                35.1886

                     73                     74                     75
                      A                      A                      A
 Frequencies --   2998.2025              2998.8399              3035.6507
 Red. masses --      1.0385                 1.0385                 1.0999
 Frc consts  --      5.5000                 5.5023                 5.9717
 IR Inten    --    428.6799                10.9998                50.8288

                     76                     77                     78
                      A                      A                      A
 Frequencies --   3035.8389              3084.9861              3085.4826
 Red. masses --      1.0999                 1.0982                 1.0980
 Frc consts  --      5.9723                 6.1580                 6.1589
 IR Inten    --     50.3474                47.3744                49.3475

                     79                     80                     81
                      A                      A                      A
 Frequencies --   3132.1813              3132.7244              3157.0511
 Red. masses --      1.0870                 1.0872                 1.0880
 Frc consts  --      6.2834                 6.2867                 6.3893
 IR Inten    --     42.2221                52.4654                38.9417

                     82                     83                     84
                      A                      A                      A
 Frequencies --   3160.2347              3167.4660              3170.4200
 Red. masses --      1.0878                 1.0913                 1.0909
 Frc consts  --      6.4007                 6.4507                 6.4604
 IR Inten    --     37.7334                65.2096                50.5822

 - Thermochemistry -
 -------------------
 Temperature   298.150 Kelvin.  Pressure   1.00000 Atm.
 Atom     1 has atomic number  6 and mass  12.00000

 Molecular mass:   236.08373 amu.
 Principal axes and moments of inertia in atomic units:
                           1         2         3
     Eigenvalues --  1930.327546637.398878545.42991
           X            0.99961   0.01929   0.02024
           Y           -0.01998   0.99921   0.03425
           Z           -0.01956  -0.03464   0.99921
 This molecule is an asymmetric top.
 Rotational symmetry number  1.
 Warning -- assumption of classical behavior for rotation
           may cause significant error
 Rotational temperatures (Kelvin)      0.04487     0.01305     0.01014
 Rotational constants (GHZ):           0.93494     0.27190     0.21119
 Zero-point vibrational energy     602439.2 (Joules/Mol)
                                  143.98642 (Kcal/Mol)
 Warning -- explicit consideration of  23 degrees of freedom as
           vibrations may cause significant error
 Vibrational temperatures:     72.00   130.94   166.73   168.87   178.27
          (Kelvin)            237.90   239.77   267.14   340.54   389.16
                              445.35   464.54   493.45   526.18   532.26
                              599.29   629.43   629.46   693.34   709.08
                              785.41   826.27   849.95   914.02   940.53
                             1008.09  1026.03  1040.99  1050.39  1110.23
                             1138.47  1153.67  1197.70  1301.62  1311.18
                             1319.20  1328.48  1390.10  1404.40  1410.13
                             1455.00  1485.87  1519.87  1520.04  1550.84
                             1600.96  1634.27  1687.91  1693.77  1729.65
                             1731.54  1733.90  1818.29  1880.69  1919.24
                             1927.79  1946.52  2017.70  2020.37  2034.54
                             2084.17  2094.99  2115.84  2116.30  2124.28
                             2138.14  2147.06  2167.96  2193.85  2265.45
                             2335.04  2337.55  4313.74  4314.66  4367.62
                             4367.90  4438.61  4439.32  4506.51  4507.29
                             4542.29  4546.87  4557.28  4561.53

 Zero-point correction=                           0.229457 (Hartree/Particle)
 Thermal correction to Energy=                    0.244207
 Thermal correction to Enthalpy=                  0.245151
 Thermal correction to Gibbs Free Energy=         0.188177
 Sum of electronic and zero-point Energies=           -767.613924
 Sum of electronic and thermal Energies=              -767.599175
 Sum of electronic and thermal Enthalpies=            -767.598230
 Sum of electronic and thermal Free Energies=         -767.655205

                     E (Thermal)             CV                S
                      KCal/Mol        Cal/Mol-Kelvin    Cal/Mol-Kelvin
 Total                  153.242             58.766            119.912
 Electronic               0.000              0.000              0.000
 Translational            0.889              2.981             42.279
 Rotational               0.889              2.981             33.059
 Vibrational            151.465             52.804             44.574
 Vibration     1          0.595              1.978              4.816
 Vibration     2          0.602              1.956              3.638
 Vibration     3          0.608              1.936              3.168
 Vibration     4          0.608              1.935              3.143
 Vibration     5          0.610              1.929              3.039
 Vibration     6          0.624              1.885              2.488
 Vibration     7          0.624              1.883              2.473
 Vibration     8          0.632              1.859              2.271
 Vibration     9          0.656              1.785              1.828
 Vibration    10          0.674              1.728              1.593
 Vibration    11          0.699              1.656              1.365
 Vibration    12          0.708              1.630              1.296
 Vibration    13          0.722              1.590              1.198
 Vibration    14          0.739              1.543              1.098
 Vibration    15          0.742              1.534              1.080
 Vibration    16          0.780              1.434              0.904
 Vibration    17          0.798              1.389              0.835
 Vibration    18          0.798              1.388              0.835
 Vibration    19          0.838              1.290              0.705
 Vibration    20          0.849              1.266              0.676
 Vibration    21          0.901              1.149              0.553
 Vibration    22          0.931              1.087              0.496
 Vibration    23          0.948              1.052              0.466

                           ! Non-Optimized Parameters !
 Normal termination of Gaussian 16 at Sat Feb 10 20:08:04 2024.
