 Q-Chem 5.4, Q-Chem, Inc., Pleasanton, CA (2021)
 Q-Chem 5.4.0 for Intel X86 EM64T Linux

User input:
--------------------------------------------------------------
$molecule
-2 1
C                  1.5729390000      1.1147160000     -1.6012390000
C                  0.1947460000      0.8954130000     -1.3431880000
C                 -0.2994150000      0.1548800000     -0.2309400000
C                  0.5616920000     -0.4527790000      0.7547800000
C                  1.9533140000     -0.2193700000      0.4757900000
C                  2.4228770000      0.5051410000     -0.6131200000
O                  2.0373570000      1.7911560000     -2.6166630000
O                  0.1577850000     -1.1313180000      1.7766290000
C                 -1.7565390000     -0.0031260000     -0.0715790000
F                 -2.5020900000      0.6134070000     -1.0637560000
F                 -2.2264000000     -1.3067080000     -0.0878380000
F                 -2.2945270000      0.5150940000      1.0955060000
H                 -0.5101410000      1.3265150000     -2.0479340000
H                  2.6577390000     -0.6543920000      1.1866440000
H                  3.4988040000      0.6346890000     -0.7504920000
$end
$rem
MAX_SCF_CYCLES=200
BASIS  =  6-311++G(d,p)
GUI  =  2
JOB_TYPE  =  SP
METHOD  =  B3LYP
SOLVENT_METHOD = PCM
$end
$pcm
theory = CPCM
$end
$solvent
dielectric 37.219
opticaldielectric 1.43
$end

--------------------------------------------------------------

             Standard Nuclear Orientation (Angstroms)
    I     Atom           X                Y                Z
 ----------------------------------------------------------------
    1      C       1.5729390000     1.1147160000    -1.6012390000
    2      C       0.1947460000     0.8954130000    -1.3431880000
    3      C      -0.2994150000     0.1548800000    -0.2309400000
    4      C       0.5616920000    -0.4527790000     0.7547800000
    5      C       1.9533140000    -0.2193700000     0.4757900000
    6      C       2.4228770000     0.5051410000    -0.6131200000
    7      O       2.0373570000     1.7911560000    -2.6166630000
    8      O       0.1577850000    -1.1313180000     1.7766290000
    9      C      -1.7565390000    -0.0031260000    -0.0715790000
   10      F      -2.5020900000     0.6134070000    -1.0637560000
   11      F      -2.2264000000    -1.3067080000    -0.0878380000
   12      F      -2.2945270000     0.5150940000     1.0955060000
   13      H      -0.5101410000     1.3265150000    -2.0479340000
   14      H       2.6577390000    -0.6543920000     1.1866440000
   15      H       3.4988040000     0.6346890000    -0.7504920000
 ----------------------------------------------------------------

    9    -718.9987681227      4.62e-06  Convergence criterion met
 Total energy in the final basis set =     -718.9987681227

                    Orbital Energies (a.u.)
 --------------------------------------------------------------

 Alpha MOs
 -- Occupied --
-24.6917 -24.6885 -24.6884 -19.0286 -19.0209 -10.4051 -10.1898 -10.1772
-10.1510 -10.1375 -10.1358 -10.1348  -1.2849  -1.1999  -1.1974  -0.9443
 -0.9290  -0.7996  -0.7448  -0.6821  -0.6531  -0.5947  -0.5762  -0.5679
 -0.5470  -0.4943  -0.4546  -0.4543  -0.4370  -0.4342  -0.4176  -0.4133
 -0.4025  -0.3946  -0.3731  -0.3669  -0.3620  -0.3383  -0.3281  -0.3201
 -0.2375  -0.2301  -0.2077  -0.2027  -0.1323

          Ground-State Mulliken Net Atomic Charges

     Atom                 Charge (a.u.)
  ----------------------------------------
      1 C                    -0.448996
      2 C                    -0.410378
      3 C                     0.303784
      4 C                    -0.383771
      5 C                    -0.100981
      6 C                     0.074523
      7 O                    -0.766946
      8 O                    -0.708817
      9 C                     0.516020
     10 F                    -0.220903
     11 F                    -0.157985
     12 F                    -0.158097
     13 H                     0.145075
     14 H                     0.157944
     15 H                     0.159529
  ----------------------------------------
  Sum of atomic charges =    -2.000000

                    Cartesian Multipole Moments
 -----------------------------------------------------------------
    Charge (ESU x 10^10)
                -9.6064
    Dipole Moment (Debye)
         X      -5.1960      Y      -3.0366      Z       4.1385
       Tot       7.3039
    Quadrupole Moments (Debye-Ang)
        XX    -100.8308     XY     -14.8077     YY     -94.5296
        XZ      21.3045     YZ      26.1999     ZZ    -115.9321

 Total job time:  56.56s(wall), 109.47s(cpu)
        *  Thank you very much for using Q-Chem.  Have a nice day.  *
