 Q-Chem 5.4, Q-Chem, Inc., Pleasanton, CA (2021)
 Q-Chem 5.4.0 for Intel X86 EM64T Linux

User input:
--------------------------------------------------------------
$molecule
-2 1
C                  5.1144260000     -2.7587260000      0.1716500000
C                  5.9156290000     -2.1480780000     -0.7597770000
C                  5.2940590000     -1.2778000000     -1.7117280000
C                  3.7097170000     -2.5582640000      0.2286100000
C                  3.1006240000     -1.6698260000     -0.7442530000
C                  3.9248810000     -1.0430120000     -1.6901480000
C                  2.9424850000     -3.2380270000      1.2446900000
C                  1.5070650000     -2.9576750000      1.2026160000
C                  0.8979760000     -2.0692390000      0.2297490000
C                  1.6652160000     -1.3894490000     -0.7863110000
C                  0.6828030000     -3.5845150000      2.1484790000
C                 -0.5067380000     -1.8688180000      0.2866830000
C                 -1.3079530000     -2.4795200000      1.2180680000
O                  3.4625200000     -4.0169190000      2.1044390000
O                  1.1451810000     -0.6105170000     -1.6460270000
H                  5.5355910000     -3.4343400000      0.9085810000
H                  6.9828520000     -2.3237970000     -0.8017710000
S                  6.2884800000     -0.4307030000     -2.8571540000
H                 -2.3751840000     -2.3038610000      1.2600340000
H                  3.4509450000     -0.3802140000     -2.4046250000
H                  1.1567580000     -4.2472950000      2.8629630000
H                 -0.9279000000     -1.1931870000     -0.4502350000
C                 -0.6863890000     -3.3497690000      2.1700470000
S                 -1.6808100000     -4.1970750000      3.3153310000
O                 -0.9336560000     -4.7096620000      4.4698710000
O                 -2.9449880000     -3.4891480000      3.5753890000
O                 -2.1268150000     -5.5700570000      2.4171090000
C                 -3.0065750000     -6.4695900000      3.0915660000
H                 -2.5430640000     -6.8641330000      4.0018750000
H                 -3.1908290000     -7.2878060000      2.3919230000
H                 -3.9536910000     -5.9799140000      3.3420940000
O                  5.5410850000      0.0824810000     -4.0112600000
O                  7.5521780000     -1.1392290000     -3.1179040000
O                  6.7355400000      0.9418120000     -1.9586440000
C                  7.6153880000      1.8411440000     -2.6332200000
H                  7.1517010000      2.2360690000     -3.5432760000
H                  8.5622280000      1.3511660000     -2.8842080000
H                  7.8002150000      2.6591430000     -1.9334710000
$end
$rem
MAX_SCF_CYCLES=200
BASIS  =  6-311++G(d,p)
GUI  =  2
JOB_TYPE  =  SP
METHOD  =  B3LYP
SOLVENT_METHOD = PCM
$end
$pcm
theory = CPCM
$end
$solvent
dielectric 37.219
opticaldielectric 1.43
$end

--------------------------------------------------------------

             Standard Nuclear Orientation (Angstroms)
    I     Atom           X                Y                Z
 ----------------------------------------------------------------
    1      C       5.1144260000    -2.7587260000     0.1716500000
    2      C       5.9156290000    -2.1480780000    -0.7597770000
    3      C       5.2940590000    -1.2778000000    -1.7117280000
    4      C       3.7097170000    -2.5582640000     0.2286100000
    5      C       3.1006240000    -1.6698260000    -0.7442530000
    6      C       3.9248810000    -1.0430120000    -1.6901480000
    7      C       2.9424850000    -3.2380270000     1.2446900000
    8      C       1.5070650000    -2.9576750000     1.2026160000
    9      C       0.8979760000    -2.0692390000     0.2297490000
   10      C       1.6652160000    -1.3894490000    -0.7863110000
   11      C       0.6828030000    -3.5845150000     2.1484790000
   12      C      -0.5067380000    -1.8688180000     0.2866830000
   13      C      -1.3079530000    -2.4795200000     1.2180680000
   14      O       3.4625200000    -4.0169190000     2.1044390000
   15      O       1.1451810000    -0.6105170000    -1.6460270000
   16      H       5.5355910000    -3.4343400000     0.9085810000
   17      H       6.9828520000    -2.3237970000    -0.8017710000
   18      S       6.2884800000    -0.4307030000    -2.8571540000
   19      H      -2.3751840000    -2.3038610000     1.2600340000
   20      H       3.4509450000    -0.3802140000    -2.4046250000
   21      H       1.1567580000    -4.2472950000     2.8629630000
   22      H      -0.9279000000    -1.1931870000    -0.4502350000
   23      C      -0.6863890000    -3.3497690000     2.1700470000
   24      S      -1.6808100000    -4.1970750000     3.3153310000
   25      O      -0.9336560000    -4.7096620000     4.4698710000
   26      O      -2.9449880000    -3.4891480000     3.5753890000
   27      O      -2.1268150000    -5.5700570000     2.4171090000
   28      C      -3.0065750000    -6.4695900000     3.0915660000
   29      H      -2.5430640000    -6.8641330000     4.0018750000
   30      H      -3.1908290000    -7.2878060000     2.3919230000
   31      H      -3.9536910000    -5.9799140000     3.3420940000
   32      O       5.5410850000     0.0824810000    -4.0112600000
   33      O       7.5521780000    -1.1392290000    -3.1179040000
   34      O       6.7355400000     0.9418120000    -1.9586440000
   35      C       7.6153880000     1.8411440000    -2.6332200000
   36      H       7.1517010000     2.2360690000    -3.5432760000
   37      H       8.5622280000     1.3511660000    -2.8842080000
   38      H       7.8002150000     2.6591430000    -1.9334710000
 ----------------------------------------------------------------

    9   -2015.6414802411      5.41e-06  Convergence criterion met
 Total energy in the final basis set =    -2015.6414802411

                    Orbital Energies (a.u.)
 --------------------------------------------------------------

 Alpha MOs
 -- Occupied --
-89.0805 -89.0805 -19.1622 -19.1622 -19.1323 -19.1323 -19.1302 -19.1302
-19.0439 -19.0439 -10.2185 -10.2185 -10.2080 -10.2080 -10.2024 -10.2024
-10.1871 -10.1871 -10.1770 -10.1770 -10.1684 -10.1684 -10.1660 -10.1660
-10.1601 -10.1601  -8.1416  -8.1416  -6.1052  -6.1052  -6.1038  -6.1038
 -6.1019  -6.1019  -1.1421  -1.1421  -1.0324  -1.0324  -1.0195  -1.0195
 -0.9700  -0.9668  -0.8641  -0.8608  -0.7988  -0.7763  -0.7585  -0.7512
 -0.7267  -0.7132  -0.6715  -0.6695  -0.6287  -0.6286  -0.5921  -0.5874
 -0.5578  -0.5564  -0.5343  -0.5313  -0.5188  -0.5095  -0.4882  -0.4850
 -0.4698  -0.4645  -0.4625  -0.4543  -0.4502  -0.4465  -0.4462  -0.4306
 -0.4278  -0.4206  -0.4063  -0.4032  -0.4007  -0.4001  -0.3965  -0.3857
 -0.3718  -0.3629  -0.3576  -0.3514  -0.3458  -0.3455  -0.3426  -0.3419
 -0.3380  -0.3291  -0.3283  -0.3282  -0.3212  -0.3197  -0.2944  -0.2944
 -0.2637  -0.2551  -0.2511  -0.2471  -0.2261  -0.2188  -0.1303

          Ground-State Mulliken Net Atomic Charges

     Atom                 Charge (a.u.)
  ----------------------------------------
      1 C                    -0.065543
      2 C                    -0.392785
      3 C                    -1.016873
      4 C                     0.607948
      5 C                     0.178859
      6 C                     0.091998
      7 C                    -0.534754
      8 C                     0.178737
      9 C                     0.607337
     10 C                    -0.535197
     11 C                     0.091226
     12 C                    -0.066465
     13 C                    -0.392305
     14 O                    -0.591896
     15 O                    -0.591892
     16 H                     0.163220
     17 H                     0.236774
     18 S                     0.336808
     19 H                     0.236742
     20 H                     0.220566
     21 H                     0.220559
     22 H                     0.163245
     23 C                    -1.013913
     24 S                     0.336295
     25 O                    -0.254441
     26 O                    -0.276413
     27 O                    -0.098260
     28 C                    -0.137471
     29 H                     0.171977
     30 H                     0.190935
     31 H                     0.169278
     32 O                    -0.254313
     33 O                    -0.276406
     34 O                    -0.098340
     35 C                    -0.137608
     36 H                     0.171965
     37 H                     0.169262
     38 H                     0.190951
  ----------------------------------------
  Sum of atomic charges =    -2.000194

                    Cartesian Multipole Moments
 -----------------------------------------------------------------
    Charge (ESU x 10^10)
                -9.6073
    Dipole Moment (Debye)
         X     -22.1321      Y      22.2293      Z      -2.2019
       Tot      31.4455
    Quadrupole Moments (Debye-Ang)
        XX    -285.1880     XY      60.1391     YY    -234.4224
        XZ      36.8404     YZ      38.8286     ZZ    -256.7196

 Total job time:  135.53s(wall), 797.98s(cpu)
        *  Thank you very much for using Q-Chem.  Have a nice day.  *
