 Gaussian 16, Revision A.03,
 Gaussian 16:  ES64L-G16RevA.03 25-Dec-2016

 ----------------------------------------------------------------
 #P UB3LYP/6-311++G(d,p) SCRF=(PCM,Solvent=n,n-DiMethylFormamide)
 ----------------------------------------------------------------

 -------
 Reduced
 -------
 Symbolic Z-matrix:
 Charge = -2 Multiplicity = 1

                         Standard orientation:
 ---------------------------------------------------------------------
 Center     Atomic      Atomic             Coordinates (Angstroms)
 Number     Number       Type             X           Y           Z
 ---------------------------------------------------------------------
      1          6           0       -1.979807   -2.043761    0.060341
      2          6           0       -3.311018   -1.745005    0.205244
      3          6           0       -3.679333   -0.367103    0.330433
      4          6           0       -0.966989   -1.048958    0.025633
      5          6           0       -1.362811    0.341817    0.151526
      6          6           0       -2.725432    0.642304    0.292890
      7          6           0        0.409779   -1.451660   -0.133993
      8          6           0        1.362846   -0.341639   -0.151738
      9          6           0        0.967020    1.049134   -0.025841
     10          6           0       -0.409756    1.451837    0.133751
     11          6           0        2.725464   -0.642123   -0.293061
     12          6           0        1.979844    2.043929   -0.060502
     13          6           0        3.311064    1.745169   -0.205336
     14          8           0        0.770881   -2.665310   -0.247735
     15          8           0       -0.770856    2.665494    0.247442
     16          1           0       -1.648442   -3.072896   -0.028992
     17          1           0       -4.070402   -2.515190    0.247140
     18         16           0       -5.362089    0.050900    0.440223
     19          1           0        4.070465    2.515338   -0.247169
     20          1           0       -3.000122    1.686909    0.380872
     21          1           0        3.000136   -1.686733   -0.381063
     22          1           0        1.648477    3.073066    0.028809
     23          6           0        3.679387    0.367274   -0.330564
     24         16           0        5.362154   -0.050782   -0.440107
     25          8           0        5.595018   -1.398626   -0.972120
     26          8           0        6.168063    1.052201   -0.988629
     27          8           0        5.792898   -0.130327    1.202736
     28          6           0        7.168281   -0.422379    1.449832
     29          1           0        7.443176   -1.398549    1.036679
     30          1           0        7.278869   -0.441829    2.536257
     31          1           0        7.817049    0.352785    1.028173
     32          8           0       -5.594788    1.399038    0.971535
     33          8           0       -6.167748   -1.051787    0.989702
     34          8           0       -5.793296    0.129350   -1.202606
     35          6           0       -7.168726    0.421286   -1.449486
     36          1           0       -7.443511    1.397669   -1.036761
     37          1           0       -7.817398   -0.353653   -1.027262
     38          1           0       -7.279606    0.440187   -2.535893
 ---------------------------------------------------------------------

 SCF Done:  E(UB3LYP) =  -2015.63244587     A.U. after   19 cycles

 The electronic state is 1-A.
 Alpha  occ. eigenvalues --  -89.07874 -89.07874 -19.16185 -19.16185 -19.13044
 Alpha  occ. eigenvalues --  -19.13043 -19.12858 -19.12857 -19.04031 -19.04030
 Alpha  occ. eigenvalues --  -10.22202 -10.22202 -10.20679 -10.20678 -10.19984
 Alpha  occ. eigenvalues --  -10.19983 -10.18602 -10.18602 -10.17624 -10.17624
 Alpha  occ. eigenvalues --  -10.16771 -10.16771 -10.16424 -10.16424 -10.15822
 Alpha  occ. eigenvalues --  -10.15821  -8.13992  -8.13992  -6.10350  -6.10349
 Alpha  occ. eigenvalues --   -6.10214  -6.10214  -6.10027  -6.10027  -1.14062
 Alpha  occ. eigenvalues --   -1.14062  -1.03197  -1.03197  -1.01765  -1.01764
 Alpha  occ. eigenvalues --   -0.96627  -0.96296  -0.86272  -0.85959  -0.79715
 Alpha  occ. eigenvalues --   -0.77512  -0.75743  -0.74990  -0.72687  -0.71377
 Alpha  occ. eigenvalues --   -0.67052  -0.66972  -0.62798  -0.62760  -0.59143
 Alpha  occ. eigenvalues --   -0.58643  -0.55729  -0.55539  -0.53341  -0.53031
 Alpha  occ. eigenvalues --   -0.51747  -0.50806  -0.48675  -0.48375  -0.46929
 Alpha  occ. eigenvalues --   -0.46448  -0.46153  -0.45542  -0.45004  -0.44737
 Alpha  occ. eigenvalues --   -0.44678  -0.42982  -0.42713  -0.41948  -0.40454
 Alpha  occ. eigenvalues --   -0.40194  -0.40029  -0.39931  -0.39519  -0.38173
 Alpha  occ. eigenvalues --   -0.37057  -0.36111  -0.35643  -0.34808  -0.34500
 Alpha  occ. eigenvalues --   -0.34465  -0.34159  -0.34068  -0.33678  -0.32730
 Alpha  occ. eigenvalues --   -0.32648  -0.32646  -0.31992  -0.31827  -0.29376
 Alpha  occ. eigenvalues --   -0.29376  -0.26255  -0.25338  -0.24804  -0.24569
 Alpha  occ. eigenvalues --   -0.22187  -0.21477  -0.12755
 Alpha virt. eigenvalues --   -0.06943  -0.03304  -0.02120  -0.00480  -0.00097
 Alpha virt. eigenvalues --    0.00979   0.01317   0.01622   0.01801   0.02289
 Alpha virt. eigenvalues --    0.02804   0.03136   0.03528   0.03608   0.03905

  Beta  occ. eigenvalues --  -89.07874 -89.07874 -19.16185 -19.16185 -19.13044
  Beta  occ. eigenvalues --  -19.13043 -19.12858 -19.12857 -19.04031 -19.04030
  Beta  occ. eigenvalues --  -10.22202 -10.22202 -10.20679 -10.20678 -10.19984
  Beta  occ. eigenvalues --  -10.19983 -10.18602 -10.18602 -10.17624 -10.17624
  Beta  occ. eigenvalues --  -10.16771 -10.16771 -10.16424 -10.16424 -10.15822
  Beta  occ. eigenvalues --  -10.15821  -8.13992  -8.13992  -6.10350  -6.10349
  Beta  occ. eigenvalues --   -6.10214  -6.10214  -6.10027  -6.10027  -1.14062
  Beta  occ. eigenvalues --   -1.14062  -1.03197  -1.03197  -1.01765  -1.01764
  Beta  occ. eigenvalues --   -0.96627  -0.96296  -0.86272  -0.85959  -0.79715
  Beta  occ. eigenvalues --   -0.77512  -0.75743  -0.74990  -0.72687  -0.71377
  Beta  occ. eigenvalues --   -0.67052  -0.66972  -0.62798  -0.62760  -0.59143
  Beta  occ. eigenvalues --   -0.58643  -0.55729  -0.55539  -0.53341  -0.53031
  Beta  occ. eigenvalues --   -0.51747  -0.50806  -0.48675  -0.48375  -0.46929
  Beta  occ. eigenvalues --   -0.46448  -0.46153  -0.45542  -0.45004  -0.44737
  Beta  occ. eigenvalues --   -0.44678  -0.42982  -0.42713  -0.41948  -0.40454
  Beta  occ. eigenvalues --   -0.40194  -0.40029  -0.39931  -0.39519  -0.38173
  Beta  occ. eigenvalues --   -0.37057  -0.36111  -0.35643  -0.34808  -0.34500
  Beta  occ. eigenvalues --   -0.34465  -0.34159  -0.34068  -0.33678  -0.32730
  Beta  occ. eigenvalues --   -0.32648  -0.32646  -0.31992  -0.31827  -0.29376
  Beta  occ. eigenvalues --   -0.29376  -0.26255  -0.25338  -0.24804  -0.24569
  Beta  occ. eigenvalues --   -0.22187  -0.21477  -0.12755
  Beta virt. eigenvalues --   -0.06943  -0.03304  -0.02120  -0.00480  -0.00097
  Beta virt. eigenvalues --    0.00979   0.01317   0.01622   0.01801   0.02289
  Beta virt. eigenvalues --    0.02804   0.03136   0.03528   0.03608   0.03905

 Mulliken charges and spin densities:
               1          2
     1  C   -0.071494  -0.000000
     2  C   -0.410694   0.000000
     3  C   -0.895193   0.000000
     4  C    0.631964  -0.000000
     5  C    0.201586   0.000000
     6  C    0.071364  -0.000000
     7  C   -0.606728   0.000000
     8  C    0.201644   0.000000
     9  C    0.632086  -0.000000
    10  C   -0.606878   0.000000
    11  C    0.071117  -0.000000
    12  C   -0.071333  -0.000000
    13  C   -0.410565   0.000000
    14  O   -0.567611  -0.000000
    15  O   -0.567615  -0.000000
    16  H    0.157372   0.000000
    17  H    0.218883  -0.000000
    18  S    0.320141  -0.000000
    19  H    0.218883   0.000000
    20  H    0.213777  -0.000000
    21  H    0.213743   0.000000
    22  H    0.157376   0.000000
    23  C   -0.894895  -0.000000
    24  S    0.319985   0.000000
    25  O   -0.250243  -0.000000
    26  O   -0.270552  -0.000000
    27  O   -0.111010  -0.000000
    28  C   -0.140537  -0.000000
    29  H    0.165808  -0.000000
    30  H    0.178567  -0.000000
    31  H    0.164459  -0.000000
    32  O   -0.250140  -0.000000
    33  O   -0.270530  -0.000000
    34  O   -0.111003  -0.000000
    35  C   -0.140562  -0.000000
    36  H    0.165801   0.000000
    37  H    0.164455  -0.000000
    38  H    0.178573  -0.000000
 Sum of Mulliken charges =  -2.00000   0.00000

 Dipole moment (field-independent basis, Debye):
    X=             -0.0017    Y=             -0.0019    Z=              0.0006  Tot=              0.0026
 Quadrupole moment (field-independent basis, Debye-Ang):
   XX=           -276.4640   YY=           -221.3112   ZZ=           -179.3602
   XY=              9.5601   XZ=             44.0154   YZ=             -6.2278

 Normal termination of Gaussian 16 at Tue Jan 16 06:38:23 2024.
