 Gaussian 16, Revision A.03,
 Gaussian 16:  ES64L-G16RevA.03 25-Dec-2016

 ----------------------------------------------------------------------
 #P UB3LYP/6-311++G(d,p) nosym opt freq SCRF=(PCM,Solvent=n,n-DiMethylF
 ormamide)
 ----------------------------------------------------------------------

 -------
 Radical
 -------
 Symbolic Z-matrix:
 Charge = -1 Multiplicity = 2

 SCF Done:  E(UB3LYP) =  -914.856972893     A.U. after   20 cycles
 SCF Done:  E(UB3LYP) =  -914.857384582     A.U. after   15 cycles
 SCF Done:  E(UB3LYP) =  -914.857428746     A.U. after   14 cycles
 SCF Done:  E(UB3LYP) =  -914.857402894     A.U. after   14 cycles
 SCF Done:  E(UB3LYP) =  -914.857435126     A.U. after   11 cycles
 SCF Done:  E(UB3LYP) =  -914.857442223     A.U. after   13 cycles
 Optimization completed.
    -- Stationary point found.
 Normal termination of Gaussian 16 at Sat Feb 10 23:00:42 2024.

 ----------------------------------------------------------------------
 #P Geom=AllCheck Guess=TCheck SCRF=Check GenChk UB3LYP/6-311++G(d,p) F
 req
 ----------------------------------------------------------------------

 Structure from the checkpoint file:  "199-rad.chk"
 -------
 Radical
 -------
 Charge = -1 Multiplicity = 2

                          Input orientation:
 ---------------------------------------------------------------------
 Center     Atomic      Atomic             Coordinates (Angstroms)
 Number     Number       Type             X           Y           Z
 ---------------------------------------------------------------------
      1          8           0       -4.336853    0.952348   -1.541922
      2          6           0       -3.166479    0.557967   -0.951176
      3          6           0       -1.918617    0.976581   -1.381841
      4          6           0       -0.743918    0.541911   -0.738683
      5          6           0        0.559077    1.002114   -1.211802
      6          8           0        0.665366    1.792842   -2.189815
      7          6           0        1.733296    0.501780   -0.496632
      8          6           0        3.023605    0.902979   -0.908884
      9          6           0        4.157287    0.455256   -0.259432
     10          6           0        4.039578   -0.420716    0.841736
     11          6           0        2.791723   -0.829966    1.266342
     12          6           0        1.616417   -0.386753    0.615423
     13          6           0        0.318224   -0.831785    1.075187
     14          8           0        0.190556   -1.635974    2.075587
     15          6           0       -0.842877   -0.344920    0.371482
     16          6           0       -2.134497   -0.758544    0.792597
     17          8           0       -2.300443   -1.600442    1.842550
     18          6           0       -3.281191   -0.317192    0.146366
     19          8           0       -4.519211   -0.724780    0.565437
     20          1           0       -4.138710    1.545369   -2.276769
     21          1           0       -1.831885    1.649012   -2.227569
     22          1           0        3.099803    1.575415   -1.754705
     23          1           0        5.138255    0.775303   -0.593443
     24          1           0        4.930039   -0.770838    1.352394
     25          1           0        2.687344   -1.500925    2.110311
     26          1           0       -1.350080   -1.791460    2.155364
     27          1           0       -4.385808   -1.314583    1.321899
 ---------------------------------------------------------------------

 SCF Done:  E(UB3LYP) =  -914.857442223     A.U. after    1 cycles

 Alpha  occ. eigenvalues --  -19.16192 -19.15799 -19.13866 -19.09123 -19.07726
 Alpha  occ. eigenvalues --  -10.24263 -10.23717 -10.23285 -10.23199 -10.22744
 Alpha  occ. eigenvalues --  -10.17809 -10.17720 -10.17690 -10.17569 -10.17416
 Alpha  occ. eigenvalues --  -10.17365 -10.17294 -10.17182 -10.16928  -1.08303
 Alpha  occ. eigenvalues --   -1.06694  -1.04839  -1.00347  -1.00056  -0.86461
 Alpha  occ. eigenvalues --   -0.85067  -0.78806  -0.75470  -0.74580  -0.74188
 Alpha  occ. eigenvalues --   -0.67362  -0.66162  -0.63100  -0.61003  -0.57486
 Alpha  occ. eigenvalues --   -0.56772  -0.55228  -0.52914  -0.50598  -0.49823
 Alpha  occ. eigenvalues --   -0.48557  -0.46556  -0.45271  -0.44903  -0.43126
 Alpha  occ. eigenvalues --   -0.42639  -0.42218  -0.41928  -0.41879  -0.40707
 Alpha  occ. eigenvalues --   -0.40011  -0.38186  -0.38029  -0.37970  -0.36691
 Alpha  occ. eigenvalues --   -0.36392  -0.35526  -0.35101  -0.33882  -0.31262
 Alpha  occ. eigenvalues --   -0.26612  -0.26081  -0.25971  -0.24278  -0.23312
 Alpha  occ. eigenvalues --   -0.22244  -0.14492
 Alpha virt. eigenvalues --   -0.05151  -0.01617  -0.00879   0.00141   0.00240
 Alpha virt. eigenvalues --    0.00686   0.01908   0.02078   0.03963   0.04282
 Alpha virt. eigenvalues --    0.04328   0.04664   0.05523   0.06277   0.06502

  Beta  occ. eigenvalues --  -19.16175 -19.15778 -19.13836 -19.08640 -19.07200
  Beta  occ. eigenvalues --  -10.24243 -10.23674 -10.23152 -10.23014 -10.22578
  Beta  occ. eigenvalues --  -10.17764 -10.17719 -10.17629 -10.17468 -10.17375
  Beta  occ. eigenvalues --  -10.17304 -10.17269 -10.17188 -10.16865  -1.08248
  Beta  occ. eigenvalues --   -1.06634  -1.04725  -0.99521  -0.99132  -0.86188
  Beta  occ. eigenvalues --   -0.84953  -0.78437  -0.75184  -0.74383  -0.74045
  Beta  occ. eigenvalues --   -0.66680  -0.65995  -0.62869  -0.60843  -0.57382
  Beta  occ. eigenvalues --   -0.56591  -0.55165  -0.52692  -0.50457  -0.49640
  Beta  occ. eigenvalues --   -0.48455  -0.46384  -0.44889  -0.44726  -0.42999
  Beta  occ. eigenvalues --   -0.42576  -0.41974  -0.41631  -0.40863  -0.40411
  Beta  occ. eigenvalues --   -0.39450  -0.38105  -0.37948  -0.36746  -0.36296
  Beta  occ. eigenvalues --   -0.35729  -0.35388  -0.34314  -0.33747  -0.30196
  Beta  occ. eigenvalues --   -0.25676  -0.25275  -0.25031  -0.23793  -0.22719
  Beta  occ. eigenvalues --   -0.21496
  Beta virt. eigenvalues --   -0.08780  -0.04072  -0.00863  -0.00655   0.00148
  Beta virt. eigenvalues --    0.00632   0.00697   0.01909   0.02098   0.03976
  Beta virt. eigenvalues --    0.04308   0.04494   0.04665   0.06095   0.06287

 Mulliken charges and spin densities:
               1          2
     1  O   -0.299711   0.004499
     2  C   -0.399600   0.008242
     3  C    0.066340   0.063553
     4  C    0.810178   0.043529
     5  C   -0.569281   0.092823
     6  O   -0.459844   0.196514
     7  C   -0.050623   0.047000
     8  C    0.053001   0.018393
     9  C   -0.484500   0.056688
    10  C   -0.476162   0.027970
    11  C    0.051742   0.046880
    12  C    0.163994   0.011422
    13  C   -0.335388   0.158966
    14  O   -0.503912   0.175304
    15  C    0.660118  -0.030861
    16  C    0.003685   0.047494
    17  O   -0.462652   0.009876
    18  C   -0.309573   0.035227
    19  O   -0.327537   0.005438
    20  H    0.310061  -0.000337
    21  H    0.152350  -0.005305
    22  H    0.162798  -0.000829
    23  H    0.182282  -0.004305
    24  H    0.181918  -0.002623
    25  H    0.169712  -0.001477
    26  H    0.395945  -0.003860
    27  H    0.314662  -0.000219
 Sum of Mulliken charges =  -1.00000   1.00000

 Dipole moment (field-independent basis, Debye):
    X=              2.1747    Y=              0.1876    Z=             -0.1181  Tot=              2.1860
 Quadrupole moment (field-independent basis, Debye-Ang):
   XX=           -131.9806   YY=           -123.2199   ZZ=           -126.2878
   XY=             -6.1745   XZ=              6.4701   YZ=              9.1091

  Exact polarizability: 478.640   8.267 219.149  16.408-110.738 271.359
 Approx polarizability: 502.534   9.535 261.951  15.119-139.466 327.466

                      1                      2                      3
                      A                      A                      A
 Frequencies --     48.1708                81.2502               128.9014
 Red. masses --      7.7366                 6.7127                 7.2564
 Frc consts  --      0.0106                 0.0261                 0.0710
 IR Inten    --      7.0109                 0.6482                 2.4041

                      4                      5                      6
                      A                      A                      A
 Frequencies --    138.2887               163.9493               184.5073
 Red. masses --      6.1722                 9.2087                 5.9592
 Frc consts  --      0.0695                 0.1458                 0.1195
 IR Inten    --      0.2026                 1.4257                 2.1691

                      7                      8                      9
                      A                      A                      A
 Frequencies --    207.2594               278.8879               293.9225
 Red. masses --      6.5483                 6.5306                 5.1928
 Frc consts  --      0.1657                 0.2993                 0.2643
 IR Inten    --      0.3490                 7.2539                15.5421

                     10                     11                     12
                      A                      A                      A
 Frequencies --    294.4845               327.3967               332.1465
 Red. masses --      5.7964                 1.5705                 7.1918
 Frc consts  --      0.2962                 0.0992                 0.4675
 IR Inten    --     29.3055               137.7313                 6.0909

                     13                     14                     15
                      A                      A                      A
 Frequencies --    353.2616               358.6101               377.5105
 Red. masses --      6.8798                 1.4639                 8.2092
 Frc consts  --      0.5058                 0.1109                 0.6893
 IR Inten    --      1.7328                 2.8223                20.0569

                     16                     17                     18
                      A                      A                      A
 Frequencies --    393.9096               408.1274               440.4058
 Red. masses --      1.6965                 9.8052                 5.8384
 Frc consts  --      0.1551                 0.9623                 0.6672
 IR Inten    --    192.1942                80.3954                 1.0503

                     19                     20                     21
                      A                      A                      A
 Frequencies --    445.8703               487.8736               524.6351
 Red. masses --      3.5799                12.3900                 6.9721
 Frc consts  --      0.4193                 1.7375                 1.1306
 IR Inten    --      0.1321                 1.7358                37.2061

                     22                     23                     24
                      A                      A                      A
 Frequencies --    538.7955               552.2833               592.6664
 Red. masses --     10.3007                 5.2143                 5.3878
 Frc consts  --      1.7618                 0.9371                 1.1150
 IR Inten    --     25.8077                 0.0139                 2.1316

                     25                     26                     27
                      A                      A                      A
 Frequencies --    621.5036               655.8174               673.1566
 Red. masses --      8.2762                 6.7166                 6.5739
 Frc consts  --      1.8835                 1.7020                 1.7551
 IR Inten    --     22.2841                50.8546                10.2971

                     28                     29                     30
                      A                      A                      A
 Frequencies --    694.7083               699.2540               708.8548
 Red. masses --      6.6555                 4.8611                 3.0702
 Frc consts  --      1.8925                 1.4004                 0.9089
 IR Inten    --      3.9918                12.4789                96.0494

                     31                     32                     33
                      A                      A                      A
 Frequencies --    740.9696               773.9883               786.0300
 Red. masses --      7.4511                 4.6606                 1.7467
 Frc consts  --      2.4103                 1.6450                 0.6358
 IR Inten    --     22.5245                 8.1267                29.7605

                     34                     35                     36
                      A                      A                      A
 Frequencies --    801.4136               846.8636               882.4221
 Red. masses --      7.1751                 1.4633                 1.4251
 Frc consts  --      2.7152                 0.6183                 0.6538
 IR Inten    --     87.6721                35.6419                 0.1423

                     37                     38                     39
                      A                      A                      A
 Frequencies --    890.8911               918.8887               987.8209
 Red. masses --      6.8248                 1.0532                 1.3599
 Frc consts  --      3.1915                 0.5239                 0.7818
 IR Inten    --      2.5317               129.0948                 2.0634

                     40                     41                     42
                      A                      A                      A
 Frequencies --    992.9123              1000.6664              1033.9041
 Red. masses --      4.6061                 1.2844                 2.5552
 Frc consts  --      2.6755                 0.7578                 1.6093
 IR Inten    --    146.4129                 0.2416               134.9882

                     43                     44                     45
                      A                      A                      A
 Frequencies --   1056.5966              1098.9467              1131.5618
 Red. masses --      3.4177                 4.3842                 2.3518
 Frc consts  --      2.2480                 3.1195                 1.7742
 IR Inten    --    148.6546                 9.7188                62.4785

                     46                     47                     48
                      A                      A                      A
 Frequencies --   1154.5752              1174.4323              1198.0994
 Red. masses --      1.2824                 1.4529                 1.8106
 Frc consts  --      1.0072                 1.1807                 1.5313
 IR Inten    --      5.8869                98.4838               319.9955

                     49                     50                     51
                      A                      A                      A
 Frequencies --   1215.6340              1238.3716              1263.8842
 Red. masses --      1.9302                 2.5772                 3.4669
 Frc consts  --      1.6806                 2.3286                 3.2629
 IR Inten    --    218.0680               474.6982                17.4917

                     52                     53                     54
                      A                      A                      A
 Frequencies --   1294.3346              1319.7394              1346.7512
 Red. masses --      2.7750                 3.4176                 2.3773
 Frc consts  --      2.7391                 3.5071                 2.5405
 IR Inten    --    104.9949               682.1271               291.3925

                     55                     56                     57
                      A                      A                      A
 Frequencies --   1356.4860              1383.2161              1411.3688
 Red. masses --      9.3720                 3.4860                 4.1251
 Frc consts  --     10.1605                 3.9296                 4.8414
 IR Inten    --     29.2651               716.7671               627.6023

                     58                     59                     60
                      A                      A                      A
 Frequencies --   1448.1827              1468.9293              1480.6676
 Red. masses --      4.8580                 3.0685                 2.2780
 Frc consts  --      6.0028                 3.9011                 2.9425
 IR Inten    --    349.0293               193.6907               369.4631

                     61                     62                     63
                      A                      A                      A
 Frequencies --   1489.3174              1515.4453              1551.5373
 Red. masses --      5.4488                 4.8136                 3.8676
 Frc consts  --      7.1208                 6.5133                 5.4854
 IR Inten    --    332.6022               697.4871               114.1728

                     64                     65                     66
                      A                      A                      A
 Frequencies --   1591.5847              1620.1695              1623.2809
 Red. masses --      5.1158                 5.9835                 5.3254
 Frc consts  --      7.6353                 9.2539                 8.2678
 IR Inten    --     50.9990                60.9238                 3.4437

                     67                     68                     69
                      A                      A                      A
 Frequencies --   1655.8141              2759.7705              3160.6326
 Red. masses --      4.0135                 1.0758                 1.0860
 Frc consts  --      6.4834                 4.8277                 6.3920
 IR Inten    --    161.5122              1127.0384                12.7146

                     70                     71                     72
                      A                      A                      A
 Frequencies --   3174.2928              3177.9059              3189.7806
 Red. masses --      1.0901                 1.0901                 1.0922
 Frc consts  --      6.4715                 6.4861                 6.5474
 IR Inten    --     18.7291                19.8422                16.0016

                     73                     74                     75
                      A                      A                      A
 Frequencies --   3193.3633              3750.5691              3811.0327
 Red. masses --      1.0947                 1.0655                 1.0663
 Frc consts  --      6.5773                 8.8305                 9.1247
 IR Inten    --     41.6811               168.1148               150.7708

 - Thermochemistry -
 -------------------
 Temperature   298.150 Kelvin.  Pressure   1.00000 Atm.
 Atom     1 has atomic number  8 and mass  15.99491

 Molecular mass:   256.03717 amu.
 Principal axes and moments of inertia in atomic units:
                           1         2         3
     Eigenvalues --  2293.487626596.767348890.23112
           X            0.99871  -0.01606  -0.04811
           Y            0.02768  -0.62226   0.78232
           Z            0.04250   0.78264   0.62102
 This molecule is an asymmetric top.
 Rotational symmetry number  1.
 Warning -- assumption of classical behavior for rotation
           may cause significant error
 Rotational temperatures (Kelvin)      0.03777     0.01313     0.00974
 Rotational constants (GHZ):           0.78690     0.27358     0.20300
 Zero-point vibrational energy     496267.5 (Joules/Mol)
                                  118.61079 (Kcal/Mol)
 Warning -- explicit consideration of  24 degrees of freedom as
           vibrations may cause significant error
 Vibrational temperatures:     69.31   116.90   185.46   198.97   235.89
          (Kelvin)            265.46   298.20   401.26   422.89   423.70
                              471.05   477.88   508.26   515.96   543.15
                              566.75   587.20   633.65   641.51   701.94
                              754.83   775.21   794.61   852.71   894.21
                              943.57   968.52   999.53  1006.07  1019.88
                             1066.09  1113.60  1130.92  1153.06  1218.45
                             1269.61  1281.79  1322.08  1421.25  1428.58
                             1439.74  1487.56  1520.21  1581.14  1628.07
                             1661.18  1689.75  1723.80  1749.03  1781.74
                             1818.45  1862.26  1898.81  1937.67  1951.68
                             1990.14  2030.64  2083.61  2113.46  2130.35
                             2142.80  2180.39  2232.32  2289.94  2331.06
                             2335.54  2382.35  3970.69  4547.45  4567.10
                             4572.30  4589.38  4594.54  5396.23  5483.23

 Zero-point correction=                           0.189018 (Hartree/Particle)
 Thermal correction to Energy=                    0.203550
 Thermal correction to Enthalpy=                  0.204494
 Thermal correction to Gibbs Free Energy=         0.147553
 Sum of electronic and zero-point Energies=           -914.668424
 Sum of electronic and thermal Energies=              -914.653892
 Sum of electronic and thermal Enthalpies=            -914.652948
 Sum of electronic and thermal Free Energies=         -914.709889

                     E (Thermal)             CV                S
                      KCal/Mol        Cal/Mol-Kelvin    Cal/Mol-Kelvin
 Total                  127.730             58.876            119.842
 Electronic               0.000              0.000              1.377
 Translational            0.889              2.981             42.520
 Rotational               0.889              2.981             33.264
 Vibrational            125.952             52.914             42.680
 Vibration     1          0.595              1.978              4.891
 Vibration     2          0.600              1.962              3.860
 Vibration     3          0.611              1.924              2.962
 Vibration     4          0.614              1.915              2.827
 Vibration     5          0.623              1.887              2.504
 Vibration     6          0.631              1.861              2.282
 Vibration     7          0.641              1.830              2.068
 Vibration     8          0.679              1.713              1.540
 Vibration     9          0.689              1.685              1.451
 Vibration    10          0.689              1.684              1.448
 Vibration    11          0.711              1.621              1.273
 Vibration    12          0.714              1.611              1.250
 Vibration    13          0.729              1.569              1.152
 Vibration    14          0.733              1.558              1.128
 Vibration    15          0.748              1.518              1.049
 Vibration    16          0.761              1.483              0.985
 Vibration    17          0.773              1.453              0.933
 Vibration    18          0.800              1.382              0.825
 Vibration    19          0.805              1.370              0.808
 Vibration    20          0.844              1.277              0.689
 Vibration    21          0.880              1.195              0.599
 Vibration    22          0.894              1.164              0.568
 Vibration    23          0.908              1.135              0.539
 Vibration    24          0.950              1.047              0.462

 Optimization completed.
    -- Stationary point found.
 Normal termination of Gaussian 16 at Sun Feb 11 00:42:11 2024.
