 Q-Chem 5.4, Q-Chem, Inc., Pleasanton, CA (2021)
 Q-Chem 5.4.0 for Intel X86 EM64T Linux

User input:
--------------------------------------------------------------
$molecule
0 1
O                  2.3178330000      2.7701050000     -0.2108380000
C                  2.3781960000      1.4318670000     -0.1646290000
C                  3.6436330000      0.8381990000     -0.1447170000
C                  3.7567710000     -0.5419660000     -0.0946200000
C                  2.6232880000     -1.3580800000     -0.0670410000
C                  1.3547050000     -0.7915900000     -0.0876170000
C                  0.1421420000     -1.6861160000     -0.1032030000
C                 -1.1974380000     -1.0158420000      0.0610790000
C                 -2.3373050000     -1.7939420000      0.2219420000
C                 -3.5908850000     -1.1875630000      0.3334280000
C                 -3.7258680000      0.1906780000      0.2846430000
C                 -2.5937230000      0.9950090000      0.1250690000
O                 -2.7726280000      2.3228400000      0.0857520000
C                 -1.3069690000      0.3915530000      0.0146420000
C                 -0.1143640000      1.2269010000     -0.1126870000
O                 -0.2285180000      2.4808900000     -0.1808430000
C                  1.2118780000      0.6128650000     -0.1321120000
H                  1.3645430000      3.0208170000     -0.2186750000
H                  4.5143070000      1.4814880000     -0.1675950000
H                  4.7422830000     -0.9943160000     -0.0763330000
H                  2.7315980000     -2.4364160000     -0.0310110000
H                  0.2547570000     -2.4585290000      0.6647760000
H                  0.1341290000     -2.2284630000     -1.0585260000
H                 -2.2517000000     -2.8742770000      0.2592660000
H                 -4.4740110000     -1.8041020000      0.4605490000
H                 -4.6918340000      0.6725990000      0.3687820000
H                 -1.8848220000      2.7353890000     -0.0294780000
$end

$rem
BASIS  =  6-311++G(d,p)
GUI  =  2
JOB_TYPE  =  SP
METHOD  =  B3LYP
SCF_CONVERGENCE  = 8
SOLVENT_METHOD = sm12
$end

$smx
solvent dimethylformamide
charges CM5
$end

--------------------------------------------------------------

             Standard Nuclear Orientation (Angstroms)
    I     Atom           X                Y                Z
 ----------------------------------------------------------------
    1      O       2.3178330000     2.7701050000    -0.2108380000
    2      C       2.3781960000     1.4318670000    -0.1646290000
    3      C       3.6436330000     0.8381990000    -0.1447170000
    4      C       3.7567710000    -0.5419660000    -0.0946200000
    5      C       2.6232880000    -1.3580800000    -0.0670410000
    6      C       1.3547050000    -0.7915900000    -0.0876170000
    7      C       0.1421420000    -1.6861160000    -0.1032030000
    8      C      -1.1974380000    -1.0158420000     0.0610790000
    9      C      -2.3373050000    -1.7939420000     0.2219420000
   10      C      -3.5908850000    -1.1875630000     0.3334280000
   11      C      -3.7258680000     0.1906780000     0.2846430000
   12      C      -2.5937230000     0.9950090000     0.1250690000
   13      O      -2.7726280000     2.3228400000     0.0857520000
   14      C      -1.3069690000     0.3915530000     0.0146420000
   15      C      -0.1143640000     1.2269010000    -0.1126870000
   16      O      -0.2285180000     2.4808900000    -0.1808430000
   17      C       1.2118780000     0.6128650000    -0.1321120000
   18      H       1.3645430000     3.0208170000    -0.2186750000
   19      H       4.5143070000     1.4814880000    -0.1675950000
   20      H       4.7422830000    -0.9943160000    -0.0763330000
   21      H       2.7315980000    -2.4364160000    -0.0310110000
   22      H       0.2547570000    -2.4585290000     0.6647760000
   23      H       0.1341290000    -2.2284630000    -1.0585260000
   24      H      -2.2517000000    -2.8742770000     0.2592660000
   25      H      -4.4740110000    -1.8041020000     0.4605490000
   26      H      -4.6918340000     0.6725990000     0.3687820000
   27      H      -1.8848220000     2.7353890000    -0.0294780000
 ----------------------------------------------------------------

   14    -765.4295519101      7.85e-09  Convergence criterion met
 Total energy in the final basis set =     -765.4553096873

                    Orbital Energies (a.u.)
 --------------------------------------------------------------

 Alpha MOs
 -- Occupied --
-19.1557 -19.1557 -19.1398 -10.2886 -10.2600 -10.2600 -10.2103 -10.2103
-10.2012 -10.2012 -10.1951 -10.1951 -10.1949 -10.1810 -10.1810 -10.1796
-10.1796  -1.0911  -1.0776  -1.0522  -0.8927  -0.8689  -0.8144  -0.7842
 -0.7675  -0.7574  -0.7134  -0.6654  -0.6575  -0.6161  -0.6112  -0.5838
 -0.5477  -0.5408  -0.5389  -0.4969  -0.4882  -0.4845  -0.4705  -0.4607
 -0.4531  -0.4377  -0.4334  -0.4290  -0.4242  -0.4109  -0.4045  -0.3996
 -0.3874  -0.3826  -0.3599  -0.3571  -0.3534  -0.3421  -0.2883  -0.2835
 -0.2724  -0.2410  -0.2367

          Ground-State Mulliken Net Atomic Charges

     Atom                 Charge (a.u.)
  ----------------------------------------
      1 O                    -0.339290
      2 C                    -0.957711
      3 C                    -0.468436
      4 C                     0.068732
      5 C                     0.645162
      6 C                     0.341264
      7 C                     0.096582
      8 C                     0.335461
      9 C                     0.645042
     10 C                     0.070508
     11 C                    -0.466255
     12 C                    -0.961470
     13 O                    -0.339271
     14 C                    -0.300018
     15 C                    -0.517195
     16 O                    -0.431240
     17 C                    -0.301642
     18 H                     0.340596
     19 H                     0.183736
     20 H                     0.320196
     21 H                     0.283445
     22 H                     0.286759
     23 H                     0.336952
     24 H                     0.283231
     25 H                     0.320559
     26 H                     0.183854
     27 H                     0.340449
  ----------------------------------------
  Sum of atomic charges =     0.000000

                    Cartesian Multipole Moments
 -----------------------------------------------------------------
    Charge (ESU x 10^10)
                 0.0000
    Dipole Moment (Debye)
         X       0.5334      Y      -6.0429      Z       0.1003
       Tot       6.0672
    Quadrupole Moments (Debye-Ang)
        XX     -91.1689     XY       0.7183     YY     -99.1774
        XZ      -0.6361     YZ       0.0976     ZZ    -101.8832

 Total job time:  606.78s(wall), 4495.67s(cpu)
        *  Thank you very much for using Q-Chem.  Have a nice day.  *
