 Gaussian 16, Revision A.03,
 Gaussian 16:  ES64L-G16RevA.03 25-Dec-2016

 ----------------------------------------------------------------
 #P UB3LYP/6-311++G(d,p) SCRF=(PCM,Solvent=n,n-DiMethylFormamide)
 ----------------------------------------------------------------

 ------------------
 Radical PCM in DMF
 ------------------
 Symbolic Z-matrix:
 Charge = -1 Multiplicity = 2

                         Standard orientation:
 ---------------------------------------------------------------------
 Center     Atomic      Atomic             Coordinates (Angstroms)
 Number     Number       Type             X           Y           Z
 ---------------------------------------------------------------------
      1          6           0        3.496019   -1.180738    0.938330
      2          6           0        2.865940   -0.774601   -0.407617
      3          6           0        1.455438   -0.247107   -0.265217
      4          6           0        1.186944    1.113828   -0.155577
      5          6           0        2.290663    2.146451   -0.188697
      6          6           0       -0.163312    1.622914   -0.012321
      7          8           0       -0.417678    2.856805    0.081961
      8          6           0       -1.245168    0.627165    0.021360
      9          6           0       -2.582222    1.050212    0.161102
     10          6           0       -3.619967    0.135725    0.195462
     11          6           0       -3.345746   -1.242361    0.089778
     12          6           0       -2.039116   -1.676307   -0.047314
     13          6           0       -0.969662   -0.759622   -0.084451
     14          6           0        0.408981   -1.247667   -0.230379
     15          8           0        0.657788   -2.483031   -0.319825
     16          1           0        4.509902   -1.575439    0.798029
     17          1           0        2.890695   -1.956216    1.413242
     18          1           0        3.556296   -0.328307    1.622593
     19          1           0        3.504064   -0.033131   -0.897871
     20          1           0        2.832024   -1.661330   -1.046626
     21          1           0        1.862262    3.129070    0.010295
     22          1           0        3.069605    1.942032    0.554381
     23          1           0        2.785229    2.182386   -1.168089
     24          1           0       -2.762588    2.116220    0.239931
     25          1           0       -4.645191    0.478490    0.303619
     26          1           0       -4.159479   -1.961580    0.116546
     27          1           0       -1.796457   -2.729725   -0.129900
 ---------------------------------------------------------------------

 SCF Done:  E(UB3LYP) =  -653.384939913     A.U. after   18 cycles

 The electronic state is 2-A.
 Alpha  occ. eigenvalues --  -19.07039 -19.06972 -10.21489 -10.21405 -10.17060
 Alpha  occ. eigenvalues --  -10.17011 -10.16820 -10.16768 -10.16680 -10.16677
 Alpha  occ. eigenvalues --  -10.16528 -10.16152 -10.15678 -10.15257 -10.15057
 Alpha  occ. eigenvalues --   -0.99525  -0.99252  -0.85426  -0.81483  -0.76184
 Alpha  occ. eigenvalues --   -0.74654  -0.74048  -0.69013  -0.65467  -0.62814
 Alpha  occ. eigenvalues --   -0.59317  -0.57533  -0.54704  -0.51094  -0.48661
 Alpha  occ. eigenvalues --   -0.46195  -0.45082  -0.43325  -0.42290  -0.42061
 Alpha  occ. eigenvalues --   -0.41173  -0.40579  -0.40380  -0.39406  -0.37740
 Alpha  occ. eigenvalues --   -0.37623  -0.36628  -0.36028  -0.35415  -0.34485
 Alpha  occ. eigenvalues --   -0.33790  -0.32751  -0.32572  -0.26434  -0.25371
 Alpha  occ. eigenvalues --   -0.24152  -0.23735  -0.22954  -0.14662
 Alpha virt. eigenvalues --   -0.03004  -0.01264  -0.00354   0.00514   0.01262
 Alpha virt. eigenvalues --    0.01983   0.02483   0.02548   0.04150   0.04716
 Alpha virt. eigenvalues --    0.04824   0.05022   0.05231   0.05976   0.06363

  Beta  occ. eigenvalues --  -19.06421 -19.06370 -10.21314 -10.21234 -10.17025
  Beta  occ. eigenvalues --  -10.16976 -10.16766 -10.16721 -10.16673 -10.16666
  Beta  occ. eigenvalues --  -10.16393 -10.16019 -10.15688 -10.15243 -10.15069
  Beta  occ. eigenvalues --   -0.98456  -0.98165  -0.85221  -0.81093  -0.75978
  Beta  occ. eigenvalues --   -0.74474  -0.73860  -0.68713  -0.64843  -0.62626
  Beta  occ. eigenvalues --   -0.59201  -0.57246  -0.54437  -0.50888  -0.48430
  Beta  occ. eigenvalues --   -0.45923  -0.44984  -0.43006  -0.42223  -0.41548
  Beta  occ. eigenvalues --   -0.40879  -0.40218  -0.39954  -0.38714  -0.37558
  Beta  occ. eigenvalues --   -0.36949  -0.36505  -0.35353  -0.34243  -0.33808
  Beta  occ. eigenvalues --   -0.33215  -0.32536  -0.32365  -0.24720  -0.24252
  Beta  occ. eigenvalues --   -0.23586  -0.22747  -0.22379
  Beta virt. eigenvalues --   -0.08089  -0.02299  -0.00530  -0.00063   0.00565
  Beta virt. eigenvalues --    0.01301   0.02025   0.02495   0.02563   0.04188
  Beta virt. eigenvalues --    0.04761   0.04953   0.05037   0.05368   0.06368

 Mulliken charges and spin densities:
               1          2
     1  C   -0.664297   0.009218
     2  C   -0.349631   0.000658
     3  C    0.808629   0.095195
     4  C    0.623834   0.100107
     5  C   -0.478296  -0.000945
     6  C   -0.593685   0.106708
     7  O   -0.483579   0.226128
     8  C    0.198472   0.010266
     9  C    0.107210   0.030215
    10  C   -0.451914   0.025721
    11  C   -0.432573   0.026315
    12  C    0.048901   0.029696
    13  C    0.003379   0.008411
    14  C   -0.798138   0.105572
    15  O   -0.473623   0.222656
    16  H    0.131541   0.002522
    17  H    0.166111  -0.001031
    18  H    0.125320  -0.001162
    19  H    0.154871   0.001153
    20  H    0.171470   0.002266
    21  H    0.176408  -0.001361
    22  H    0.159180   0.004469
    23  H    0.166058   0.005805
    24  H    0.166377  -0.002092
    25  H    0.175126  -0.002192
    26  H    0.175624  -0.002223
    27  H    0.167224  -0.002076
 Sum of Mulliken charges =  -1.00000   1.00000

 Dipole moment (field-independent basis, Debye):
    X=              0.3933    Y=             -0.7229    Z=              0.4577  Tot=              0.9417
 Quadrupole moment (field-independent basis, Debye-Ang):
   XX=            -90.8965   YY=           -128.0749   ZZ=            -95.6381
   XY=              8.0351   XZ=             -0.3813   YZ=             -2.3926

 Normal termination of Gaussian 16 at Sun Jan 21 08:26:54 2024.
