 Q-Chem 5.4, Q-Chem, Inc., Pleasanton, CA (2021)
 Q-Chem 5.4.0 for Intel X86 EM64T Linux

User input:
--------------------------------------------------------------
$molecule
0 1
C                  5.0119440000     -2.4471410000      0.5524180000
C                  5.8279100000     -1.7421090000     -0.3241100000
C                  5.2624370000     -0.9051090000     -1.2904290000
C                  3.6215780000     -2.3218870000      0.4721100000
C                  3.0521900000     -1.4789960000     -0.5002690000
C                  3.8818690000     -0.7741570000     -1.3783040000
C                  2.7718990000     -3.0898090000      1.4259580000
C                  1.2899050000     -2.9234520000      1.3138130000
C                  0.7188980000     -2.0821230000      0.3443330000
C                  1.5758410000     -1.3191700000     -0.6181860000
C                  0.4667640000     -3.6236230000      2.1994550000
C                 -0.6702460000     -1.9437510000      0.2664470000
C                 -1.4933780000     -2.6389320000      1.1420540000
O                  3.2580200000     -3.8266160000      2.2657630000
O                  1.0750160000     -0.5965290000     -1.4622300000
H                  5.4291350000     -3.1009540000      1.3081760000
H                  6.9052090000     -1.8420310000     -0.2575470000
H                  5.9014710000     -0.3564070000     -1.9727290000
H                 -2.5703570000     -2.5357310000      1.1026910000
H                  3.4232680000     -0.1313090000     -2.1193270000
H                  0.9122990000     -4.2613350000      2.9523440000
H                 -1.0851140000     -1.2852800000     -0.4861990000
C                 -0.9078950000     -3.4727360000      2.0961120000
S                 -1.9704180000     -4.3716440000      3.2277110000
O                 -1.2561920000     -4.6525960000      4.4646310000
O                 -3.2807690000     -3.7368620000      3.2678830000
O                 -2.0760350000     -5.7553570000      2.3528010000
C                 -2.8211730000     -6.8380180000      2.9665990000
H                 -2.3525540000     -7.1337860000      3.9064120000
H                 -2.7703700000     -7.6519700000      2.2471630000
H                 -3.8589050000     -6.5406220000      3.1268150000
$end
$rem
MAX_SCF_CYCLES=200
BASIS  =  6-311++G(d,p)
GUI  =  2
JOB_TYPE  =  SP
METHOD  =  B3LYP
SOLVENT_METHOD = PCM
$end
$pcm
theory = CPCM
$end
$solvent
dielectric 37.219
opticaldielectric 1.43
$end

--------------------------------------------------------------

             Standard Nuclear Orientation (Angstroms)
    I     Atom           X                Y                Z
 ----------------------------------------------------------------
    1      C       5.0119440000    -2.4471410000     0.5524180000
    2      C       5.8279100000    -1.7421090000    -0.3241100000
    3      C       5.2624370000    -0.9051090000    -1.2904290000
    4      C       3.6215780000    -2.3218870000     0.4721100000
    5      C       3.0521900000    -1.4789960000    -0.5002690000
    6      C       3.8818690000    -0.7741570000    -1.3783040000
    7      C       2.7718990000    -3.0898090000     1.4259580000
    8      C       1.2899050000    -2.9234520000     1.3138130000
    9      C       0.7188980000    -2.0821230000     0.3443330000
   10      C       1.5758410000    -1.3191700000    -0.6181860000
   11      C       0.4667640000    -3.6236230000     2.1994550000
   12      C      -0.6702460000    -1.9437510000     0.2664470000
   13      C      -1.4933780000    -2.6389320000     1.1420540000
   14      O       3.2580200000    -3.8266160000     2.2657630000
   15      O       1.0750160000    -0.5965290000    -1.4622300000
   16      H       5.4291350000    -3.1009540000     1.3081760000
   17      H       6.9052090000    -1.8420310000    -0.2575470000
   18      H       5.9014710000    -0.3564070000    -1.9727290000
   19      H      -2.5703570000    -2.5357310000     1.1026910000
   20      H       3.4232680000    -0.1313090000    -2.1193270000
   21      H       0.9122990000    -4.2613350000     2.9523440000
   22      H      -1.0851140000    -1.2852800000    -0.4861990000
   23      C      -0.9078950000    -3.4727360000     2.0961120000
   24      S      -1.9704180000    -4.3716440000     3.2277110000
   25      O      -1.2561920000    -4.6525960000     4.4646310000
   26      O      -3.2807690000    -3.7368620000     3.2678830000
   27      O      -2.0760350000    -5.7553570000     2.3528010000
   28      C      -2.8211730000    -6.8380180000     2.9665990000
   29      H      -2.3525540000    -7.1337860000     3.9064120000
   30      H      -2.7703700000    -7.6519700000     2.2471630000
   31      H      -3.8589050000    -6.5406220000     3.1268150000
 ----------------------------------------------------------------

    9   -1352.1730675177      6.18e-06  Convergence criterion met
 Total energy in the final basis set =    -1352.1730675177

                    Orbital Energies (a.u.)
 --------------------------------------------------------------

 Alpha MOs
 -- Occupied --
-89.1030 -19.1890 -19.1514 -19.1510 -19.1403 -19.1394 -10.2921 -10.2918
-10.2459 -10.2339 -10.2256 -10.2245 -10.2223 -10.2215 -10.2134 -10.2129
-10.2122 -10.2003 -10.2002 -10.1998 -10.1994  -8.1639  -6.1275  -6.1259
 -6.1246  -1.1721  -1.0760  -1.0742  -1.0612  -1.0460  -0.9125  -0.8910
 -0.8335  -0.8019  -0.7869  -0.7818  -0.7519  -0.7024  -0.6875  -0.6626
 -0.6349  -0.6252  -0.5961  -0.5800  -0.5704  -0.5450  -0.5320  -0.5179
 -0.5065  -0.4968  -0.4941  -0.4721  -0.4690  -0.4673  -0.4667  -0.4637
 -0.4552  -0.4529  -0.4510  -0.4291  -0.4278  -0.4176  -0.4062  -0.3958
 -0.3850  -0.3793  -0.3713  -0.3685  -0.3645  -0.3533  -0.3488  -0.3168
 -0.3048  -0.2969  -0.2956  -0.2844  -0.2842  -0.2816

          Ground-State Mulliken Net Atomic Charges

     Atom                 Charge (a.u.)
  ----------------------------------------
      1 C                     0.113079
      2 C                    -0.416422
      3 C                    -0.476922
      4 C                     0.340585
      5 C                     0.314559
      6 C                     0.157541
      7 C                    -0.735769
      8 C                     0.487258
      9 C                     0.708206
     10 C                    -0.439794
     11 C                     0.077935
     12 C                     0.073250
     13 C                    -0.343698
     14 O                    -0.260271
     15 O                    -0.260552
     16 H                     0.198230
     17 H                     0.228972
     18 H                     0.227112
     19 H                     0.283273
     20 H                     0.200574
     21 H                     0.246602
     22 H                     0.210217
     23 C                    -1.187936
     24 S                     0.329216
     25 O                    -0.223940
     26 O                    -0.196615
     27 O                    -0.067946
     28 C                    -0.162785
     29 H                     0.186852
     30 H                     0.201906
     31 H                     0.187272
  ----------------------------------------
  Sum of atomic charges =    -0.000011

                    Cartesian Multipole Moments
 -----------------------------------------------------------------
    Charge (ESU x 10^10)
                -0.0001
    Dipole Moment (Debye)
         X       3.0217      Y      -0.4983      Z      -4.3204
       Tot       5.2957
    Quadrupole Moments (Debye-Ang)
        XX    -101.9330     XY      10.2015     YY    -113.3462
        XZ      -4.7618     YZ      12.2190     ZZ    -154.1921

 Total job time:  69.77s(wall), 507.82s(cpu)
        *  Thank you very much for using Q-Chem.  Have a nice day.  *
