 Gaussian 16, Revision A.03,
 Gaussian 16:  ES64L-G16RevA.03 25-Dec-2016

 ----------------------------------------------
 #P UB3LYP/6-311++G(d,p) nosym opt freq SCF=YQC
 ----------------------------------------------

 -------
 Reduced
 -------
 Symbolic Z-matrix:
 Charge = -2 Multiplicity = 1

 SCF Done:  E(UB3LYP) =  -885.711150088     a.u. after    9 cycles
 SCF Done:  E(UB3LYP) =  -885.736358940     A.U. after   33 cycles
 SCF Done:  E(UB3LYP) =  -885.743373227     a.u. after    4 cycles
 SCF Done:  E(UB3LYP) =  -885.771807839     a.u. after   29 cycles
 SCF Done:  E(UB3LYP) =  -885.772080304     A.U. after   25 cycles
 SCF Done:  E(UB3LYP) =  -885.780382126     a.u. after   36 cycles
 SCF Done:  E(UB3LYP) =  -885.780592886     A.U. after   25 cycles
 SCF Done:  E(UB3LYP) =  -885.783165919     a.u. after   27 cycles
 SCF Done:  E(UB3LYP) =  -885.783463823     A.U. after   24 cycles
 SCF Done:  E(UB3LYP) =  -885.783609898     a.u. after   10 cycles
 SCF Done:  E(UB3LYP) =  -885.790547707     a.u. after   28 cycles
 SCF Done:  E(UB3LYP) =  -885.790674979     A.U. after   24 cycles
 SCF Done:  E(UB3LYP) =  -885.790600700     a.u. after    9 cycles
 SCF Done:  E(UB3LYP) =  -885.790682578     A.U. after   24 cycles
 SCF Done:  E(UB3LYP) =  -885.790644303     a.u. after    1 cycles
 SCF Done:  E(UB3LYP) =  -885.790682817     A.U. after   19 cycles
 SCF Done:  E(UB3LYP) =  -885.790676562     a.u. after    1 cycles
 SCF Done:  E(UB3LYP) =  -885.790682861     A.U. after   19 cycles
 Optimization completed.
    -- Stationary point found.
 Normal termination of Gaussian 16 at Wed Dec 27 20:41:15 2023.

 ----------------------------------------------------------------------
 #P Geom=AllCheck Guess=TCheck SCRF=Check GenChk UB3LYP/6-311++G(d,p) F
 req
 ----------------------------------------------------------------------

 Structure from the checkpoint file:  "285-an.chk"
 -------
 Reduced
 -------
 Charge = -2 Multiplicity = 1

                          Input orientation:
 ---------------------------------------------------------------------
 Center     Atomic      Atomic             Coordinates (Angstroms)
 Number     Number       Type             X           Y           Z
 ---------------------------------------------------------------------
      1          6           0       -0.061810    3.891015    0.170034
      2          6           0       -0.470486    3.526105    1.437764
      3          6           0       -0.024582    2.304337    2.001894
      4          6           0        0.803256    3.068666   -0.596900
      5          6           0        1.259338    1.824695   -0.022553
      6          6           0        0.822604    1.484821    1.271402
      7          6           0        1.218254    3.457134   -1.911400
      8          6           0        2.089768    2.545433   -2.584721
      9          6           0        2.547661    1.335801   -2.070540
     10          6           0        2.154831    0.916850   -0.749816
     11          8           0        0.874775    4.544837   -2.534554
     12          8           0        2.553139   -0.182714   -0.239181
     13          1           0       -0.390915    4.821726   -0.281368
     14          1           0       -1.134397    4.176227    2.004436
     15          1           0       -0.344190    2.014083    3.000116
     16          1           0        1.182924    0.543824    1.675352
     17          8           0        2.446975    2.977873   -3.841822
     18          6           0        3.451980    0.437626   -2.876825
     19          6           0        4.955343    0.659548   -2.610848
     20          6           0        5.859497   -0.283506   -3.416489
     21          6           0        7.360629   -0.072696   -3.178675
     22          6           0        8.262817   -1.008874   -3.995587
     23          1           0        1.950161    3.832359   -3.873048
     24          1           0        3.259003    0.583898   -3.946210
     25          1           0        3.211837   -0.600375   -2.619347
     26          1           0        5.138132    0.520287   -1.539727
     27          1           0        5.209215    1.700071   -2.847948
     28          1           0        5.646372   -0.160047   -4.487986
     29          1           0        5.599657   -1.322983   -3.173341
     30          1           0        7.576960   -0.205025   -2.110141
     31          1           0        7.619018    0.969177   -3.412113
     32          1           0        8.047688   -0.876374   -5.064513
     33          1           0        8.005860   -2.051333   -3.764304
     34          6           0        9.764015   -0.799172   -3.757858
     35          6           0       10.658871   -1.734501   -4.577981
     36          1           0        9.980629   -0.933805   -2.690260
     37          1           0       10.022043    0.242828   -3.987272
     38          1           0       10.458350   -2.786903   -4.345879
     39          1           0       11.723269   -1.559323   -4.386380
     40          1           0       10.499129   -1.600389   -5.654190
 ---------------------------------------------------------------------

 SCF Done:  E(UB3LYP) =  -885.790682861     a.u. after    1 cycles
 SCF Done:  E(UB3LYP) =  -885.790682861     A.U. after    5 cycles

 Alpha  occ. eigenvalues --  -18.91139 -18.83192 -18.82181 -10.01038 -10.00411
 Alpha  occ. eigenvalues --  -10.00321  -9.99586  -9.98342  -9.98324  -9.97991
 Alpha  occ. eigenvalues --   -9.97220  -9.96268  -9.96086  -9.95651  -9.95256
 Alpha  occ. eigenvalues --   -9.95113  -9.94984  -9.94208  -9.93890  -9.92983
 Alpha  occ. eigenvalues --   -0.82544  -0.74045  -0.73297  -0.64372  -0.63024
 Alpha  occ. eigenvalues --   -0.60565  -0.57763  -0.55262  -0.52759  -0.51985
 Alpha  occ. eigenvalues --   -0.48485  -0.44812  -0.43017  -0.41616  -0.39630
 Alpha  occ. eigenvalues --   -0.38567  -0.36282  -0.33869  -0.31876  -0.30885
 Alpha  occ. eigenvalues --   -0.28186  -0.27796  -0.27149  -0.25400  -0.24826
 Alpha  occ. eigenvalues --   -0.24207  -0.23083  -0.22746  -0.21610  -0.20535
 Alpha  occ. eigenvalues --   -0.20150  -0.19753  -0.18573  -0.18291  -0.17371
 Alpha  occ. eigenvalues --   -0.17039  -0.16608  -0.16193  -0.15420  -0.15050
 Alpha  occ. eigenvalues --   -0.14769  -0.14057  -0.14031  -0.12594  -0.11530
 Alpha  occ. eigenvalues --   -0.10995  -0.10199  -0.09774  -0.03208  -0.02355
 Alpha  occ. eigenvalues --   -0.01372   0.00552   0.00790   0.10076
 Alpha virt. eigenvalues --    0.10953   0.13686   0.14151   0.14501   0.14561
 Alpha virt. eigenvalues --    0.16305   0.16475   0.17015   0.17569   0.17897
 Alpha virt. eigenvalues --    0.18533   0.19085   0.19237   0.19423   0.20424

  Beta  occ. eigenvalues --  -18.91139 -18.83192 -18.82181 -10.01038 -10.00411
  Beta  occ. eigenvalues --  -10.00321  -9.99586  -9.98342  -9.98324  -9.97991
  Beta  occ. eigenvalues --   -9.97220  -9.96268  -9.96086  -9.95651  -9.95256
  Beta  occ. eigenvalues --   -9.95113  -9.94984  -9.94208  -9.93890  -9.92983
  Beta  occ. eigenvalues --   -0.82544  -0.74045  -0.73297  -0.64372  -0.63024
  Beta  occ. eigenvalues --   -0.60565  -0.57763  -0.55262  -0.52759  -0.51985
  Beta  occ. eigenvalues --   -0.48485  -0.44812  -0.43017  -0.41616  -0.39630
  Beta  occ. eigenvalues --   -0.38567  -0.36282  -0.33869  -0.31876  -0.30885
  Beta  occ. eigenvalues --   -0.28186  -0.27796  -0.27149  -0.25400  -0.24826
  Beta  occ. eigenvalues --   -0.24207  -0.23083  -0.22746  -0.21610  -0.20535
  Beta  occ. eigenvalues --   -0.20150  -0.19753  -0.18573  -0.18291  -0.17371
  Beta  occ. eigenvalues --   -0.17039  -0.16608  -0.16193  -0.15420  -0.15050
  Beta  occ. eigenvalues --   -0.14769  -0.14057  -0.14031  -0.12594  -0.11530
  Beta  occ. eigenvalues --   -0.10995  -0.10199  -0.09774  -0.03208  -0.02355
  Beta  occ. eigenvalues --   -0.01372   0.00552   0.00790   0.10076
  Beta virt. eigenvalues --    0.10953   0.13686   0.14151   0.14501   0.14561
  Beta virt. eigenvalues --    0.16305   0.16475   0.17015   0.17569   0.17897
  Beta virt. eigenvalues --    0.18533   0.19085   0.19237   0.19423   0.20424

 Mulliken charges and spin densities:
               1          2
     1  C   -0.035086  -0.000000
     2  C   -0.289795  -0.000000
     3  C   -0.400630  -0.000000
     4  C    0.672865   0.000000
     5  C    0.042351   0.000000
     6  C    0.053559  -0.000000
     7  C   -1.343582  -0.000000
     8  C   -0.673211   0.000000
     9  C    2.317564   0.000000
    10  C   -0.995145   0.000000
    11  O   -0.546814  -0.000000
    12  O   -0.443175  -0.000000
    13  H    0.136272   0.000000
    14  H    0.088708  -0.000000
    15  H    0.085965  -0.000000
    16  H    0.141584   0.000000
    17  O   -0.284838  -0.000000
    18  C   -0.466359   0.000000
    19  C   -0.653185  -0.000000
    20  C    0.123416  -0.000000
    21  C   -0.177002   0.000000
    22  C    0.847796  -0.000000
    23  H    0.253131  -0.000000
    24  H    0.195863  -0.000000
    25  H    0.192269  -0.000000
    26  H    0.176852  -0.000000
    27  H    0.142345  -0.000000
    28  H    0.075376   0.000000
    29  H    0.093568   0.000000
    30  H    0.100666  -0.000000
    31  H    0.094070   0.000000
    32  H    0.147686  -0.000000
    33  H    0.137752  -0.000000
    34  C   -2.221623   0.000000
    35  C    2.055673  -0.000000
    36  H    0.086341   0.000000
    37  H    0.065305   0.000000
    38  H   -0.316957   0.000000
    39  H   -1.162833   0.000000
    40  H   -0.316745   0.000000
 Sum of Mulliken charges =  -2.00000  -0.00000

 Dipole moment (field-independent basis, Debye):
    X=            -39.8269    Y=            -11.3335    Z=             19.6572  Tot=             45.8371
 Quadrupole moment (field-independent basis, Debye-Ang):
   XX=           -514.1172   YY=           -216.6856   ZZ=           -229.2035
   XY=             44.1229   XZ=            155.4800   YZ=              4.5141

  Exact polarizability:2750.690-878.9411040.857-820.971 363.7311026.878
 Approx polarizability:****************6529.500********4844.7744893.671

                      1                      2                      3
                      A                      A                      A
 Frequencies --     15.0307                28.7437                36.6410
 Red. masses --      5.2493                 5.1432                 1.7589
 Frc consts  --      0.0007                 0.0025                 0.0014
 IR Inten    --      0.6689                 0.9468                 1.9819

                      4                      5                      6
                      A                      A                      A
 Frequencies --     58.1073                75.5263               100.8435
 Red. masses --      2.6915                 4.6849                 2.2731
 Frc consts  --      0.0054                 0.0157                 0.0136
 IR Inten    --      7.1365                10.4293                 0.6631

                      7                      8                      9
                      A                      A                      A
 Frequencies --    105.3508               127.2564               137.0141
 Red. masses --      3.8899                 4.4815                 2.0550
 Frc consts  --      0.0254                 0.0428                 0.0227
 IR Inten    --      0.4092                 0.2287                 0.2622

                     10                     11                     12
                      A                      A                      A
 Frequencies --    157.8165               159.8268               185.8163
 Red. masses --      1.9542                 6.0514                 7.4179
 Frc consts  --      0.0287                 0.0911                 0.1509
 IR Inten    --      0.2980                 1.0720                 2.8167

                     13                     14                     15
                      A                      A                      A
 Frequencies --    204.3571               251.4751               262.3501
 Red. masses --      3.7047                 4.5041                 1.1125
 Frc consts  --      0.0912                 0.1678                 0.0451
 IR Inten    --      2.8398                 3.3973                13.6211

                     16                     17                     18
                      A                      A                      A
 Frequencies --    276.3193               295.0692               337.9755
 Red. masses --      4.1875                 2.8420                 5.4750
 Frc consts  --      0.1884                 0.1458                 0.3685
 IR Inten    --      2.4264                 2.9593                 9.1472

                     19                     20                     21
                      A                      A                      A
 Frequencies --    353.3850               368.0897               395.3368
 Red. masses --      4.7373                 9.3259                 4.0953
 Frc consts  --      0.3486                 0.7445                 0.3771
 IR Inten    --      3.0195                 1.4923                51.8983

                     22                     23                     24
                      A                      A                      A
 Frequencies --    401.0347               432.5980               448.8696
 Red. masses --      5.7195                 8.9759                 3.4028
 Frc consts  --      0.5420                 0.9897                 0.4039
 IR Inten    --     11.9426               143.2644                13.1584

                     25                     26                     27
                      A                      A                      A
 Frequencies --    472.8202               483.9589               526.8797
 Red. masses --      3.7833                 5.0434                 6.2079
 Frc consts  --      0.4983                 0.6960                 1.0154
 IR Inten    --    240.0645               307.8725               156.1006

                     28                     29                     30
                      A                      A                      A
 Frequencies --    560.4183               641.0128               670.8427
 Red. masses --      5.7273                 6.1874                 5.5571
 Frc consts  --      1.0598                 1.4979                 1.4735
 IR Inten    --      7.1921                 3.3255                 6.0263

                     31                     32                     33
                      A                      A                      A
 Frequencies --    694.1972               695.5512               703.4223
 Red. masses --      2.1249                 3.3163                 4.1386
 Frc consts  --      0.6033                 0.9453                 1.2065
 IR Inten    --     53.5757                 8.3949                11.6908

                     34                     35                     36
                      A                      A                      A
 Frequencies --    726.1780               733.4888               740.7920
 Red. masses --      1.0661                 1.1943                 2.7633
 Frc consts  --      0.3312                 0.3786                 0.8934
 IR Inten    --      1.7353                 6.9686                29.2388

                     37                     38                     39
                      A                      A                      A
 Frequencies --    760.2773               771.0499               777.0643
 Red. masses --      1.3114                 3.2095                 1.1955
 Frc consts  --      0.4466                 1.1242                 0.4253
 IR Inten    --      4.2803                 7.0917                47.7506

                     40                     41                     42
                      A                      A                      A
 Frequencies --    809.9333               817.4491               876.7874
 Red. masses --      1.5069                 1.4485                 2.1100
 Frc consts  --      0.5824                 0.5703                 0.9557
 IR Inten    --      0.0407                 2.2668                41.6706

                     43                     44                     45
                      A                      A                      A
 Frequencies --    886.7725               930.8440               940.1769
 Red. masses --      1.9319                 1.6500                 4.8021
 Frc consts  --      0.8951                 0.8423                 2.5009
 IR Inten    --     23.5918                19.7985                80.1392

                     46                     47                     48
                      A                      A                      A
 Frequencies --    943.8763               959.1648               983.4211
 Red. masses --      1.2569                 1.3192                 4.7322
 Frc consts  --      0.6598                 0.7151                 2.6965
 IR Inten    --      1.0744                 1.6323                12.9076

                     49                     50                     51
                      A                      A                      A
 Frequencies --   1007.5876              1017.2875              1023.2826
 Red. masses --      1.4661                 2.7163                 2.2030
 Frc consts  --      0.8770                 1.6562                 1.3591
 IR Inten    --      6.3663               198.8848               145.5010

                     52                     53                     54
                      A                      A                      A
 Frequencies --   1034.2937              1052.1078              1053.1019
 Red. masses --      3.1091                 2.4889                 2.4407
 Frc consts  --      1.9596                 1.6232                 1.5948
 IR Inten    --     23.9649               125.9431                29.2024

                     55                     56                     57
                      A                      A                      A
 Frequencies --   1060.0503              1097.3717              1126.0438
 Red. masses --      2.3017                 2.0698                 2.2745
 Frc consts  --      1.5239                 1.4685                 1.6992
 IR Inten    --     22.2786                56.7026                25.9644

                     58                     59                     60
                      A                      A                      A
 Frequencies --   1129.5331              1134.9499              1183.0257
 Red. masses --      2.2359                 1.3289                 3.4660
 Frc consts  --      1.6807                 1.0085                 2.8580
 IR Inten    --     35.5718               131.6202               211.9374

                     61                     62                     63
                      A                      A                      A
 Frequencies --   1190.7697              1211.8841              1234.1145
 Red. masses --      2.0020                 1.7010                 1.2736
 Frc consts  --      1.6725                 1.4719                 1.1429
 IR Inten    --    253.5483                36.0654                 8.2415

                     64                     65                     66
                      A                      A                      A
 Frequencies --   1240.2562              1264.5194              1281.5250
 Red. masses --      2.5440                 1.4787                 1.7799
 Frc consts  --      2.3056                 1.3931                 1.7223
 IR Inten    --    124.3387                25.0487                23.0356

                     67                     68                     69
                      A                      A                      A
 Frequencies --   1290.9423              1308.2027              1318.6010
 Red. masses --      1.5453                 1.2699                 1.0388
 Frc consts  --      1.5173                 1.2805                 1.0642
 IR Inten    --      2.0919                80.1245                83.2957

                     70                     71                     72
                      A                      A                      A
 Frequencies --   1328.2839              1330.7420              1334.9624
 Red. masses --      1.1010                 1.2222                 1.7135
 Frc consts  --      1.1445                 1.2752                 1.7992
 IR Inten    --     17.0149               355.1225               155.1415

                     73                     74                     75
                      A                      A                      A
 Frequencies --   1339.7239              1358.4373              1367.4986
 Red. masses --      3.0350                 1.6702                 1.6788
 Frc consts  --      3.2095                 1.8160                 1.8498
 IR Inten    --    599.9094               572.2460               188.6721

                     76                     77                     78
                      A                      A                      A
 Frequencies --   1379.6289              1385.6480              1402.0509
 Red. masses --      1.5379                 1.5909                 1.2565
 Frc consts  --      1.7246                 1.7997                 1.4552
 IR Inten    --      7.3813               134.9444               620.9991

                     79                     80                     81
                      A                      A                      A
 Frequencies --   1425.0654              1437.7074              1445.9983
 Red. masses --      3.8008                 2.5203                 2.7220
 Frc consts  --      4.5477                 3.0693                 3.3534
 IR Inten    --   2741.1161              1084.4817                71.6989

                     82                     83                     84
                      A                      A                      A
 Frequencies --   1468.8089              1480.0054              1482.6465
 Red. masses --      1.4868                 1.0934                 1.0837
 Frc consts  --      1.8899                 1.4111                 1.4036
 IR Inten    --    650.2292                31.9962                24.1765

                     85                     86                     87
                      A                      A                      A
 Frequencies --   1483.9249              1484.1455              1489.6905
 Red. masses --      1.0814                 1.0467                 3.0998
 Frc consts  --      1.4030                 1.3584                 4.0530
 IR Inten    --    109.4078               428.6351               730.1709

                     88                     89                     90
                      A                      A                      A
 Frequencies --   1493.0572              1501.4305              1510.1306
 Red. masses --      1.0840                 1.0928                 1.0995
 Frc consts  --      1.4238                 1.4514                 1.4773
 IR Inten    --     75.6375                88.4678                17.4439

                     91                     92                     93
                      A                      A                      A
 Frequencies --   1513.9583              1546.7405              1592.5257
 Red. masses --      4.4988                 4.1604                 4.9678
 Frc consts  --      6.0754                 5.8643                 7.4232
 IR Inten    --    962.9565              1659.1978                37.8150

                     94                     95                     96
                      A                      A                      A
 Frequencies --   1606.4558              2976.2496              2983.3810
 Red. masses --      4.9971                 1.0585                 1.0540
 Frc consts  --      7.5981                 5.5244                 5.5274
 IR Inten    --   3284.9599                 8.8325                 1.9853

                     97                     98                     99
                      A                      A                      A
 Frequencies --   2986.6054              2990.0666              2995.0631
 Red. masses --      1.0547                 1.0450                 1.0896
 Frc consts  --      5.5429                 5.5045                 5.7587
 IR Inten    --     11.8449                12.1012                 5.7190

                    100                    101                    102
                      A                      A                      A
 Frequencies --   2996.7603              2998.1726              3002.1791
 Red. masses --      1.0606                 1.0615                 1.0975
 Frc consts  --      5.6118                 5.6216                 5.8280
 IR Inten    --     88.9179                26.1969                18.7653

                    103                    104                    105
                      A                      A                      A
 Frequencies --   3010.2518              3017.7028              3033.0352
 Red. masses --      1.0690                 1.0991                 1.1001
 Frc consts  --      5.7072                 5.8969                 5.9629
 IR Inten    --     67.6947                 6.8508                19.5634

                    106                    107                    108
                      A                      A                      A
 Frequencies --   3037.1813              3049.6161              3052.8806
 Red. masses --      1.1041                 1.1005                 1.1024
 Frc consts  --      6.0005                 6.0302                 6.0534
 IR Inten    --     15.7649                50.4037                 9.2396

                    109                    110                    111
                      A                      A                      A
 Frequencies --   3060.0658              3102.4885              3126.1340
 Red. masses --      1.1056                 1.0832                 1.0901
 Frc consts  --      6.0996                 6.1427                 6.2770
 IR Inten    --     49.9057                66.6417               276.2920

                    112                    113                    114
                      A                      A                      A
 Frequencies --   3160.5284              3163.2120              3370.8666
 Red. masses --      1.0906                 1.0920                 1.0636
 Frc consts  --      6.4183                 6.4376                 7.1206
 IR Inten    --     31.6255               262.7947                48.6464

 - Thermochemistry -
 -------------------
 Temperature   298.150 Kelvin.  Pressure   1.00000 Atm.
 Atom     1 has atomic number  6 and mass  12.00000

 Molecular mass:   272.14124 amu.
 Principal axes and moments of inertia in atomic units:
                           1         2         3
     Eigenvalues --  2354.80060********************
           X            0.83098   0.09547   0.54805
           Y           -0.39049  -0.60158   0.69687
           Z           -0.39623   0.79309   0.46262
 This molecule is an asymmetric top.
 Rotational symmetry number  1.
 Warning -- assumption of classical behavior for rotation
           may cause significant error
 Rotational temperatures (Kelvin)      0.03678     0.00549     0.00499
 Rotational constants (GHZ):           0.76641     0.11433     0.10397
 Zero-point vibrational energy     866589.0 (Joules/Mol)
                                  207.11975 (Kcal/Mol)
 Warning -- explicit consideration of  28 degrees of freedom as
           vibrations may cause significant error
 Vibrational temperatures:     21.63    41.36    52.72    83.60   108.67
          (Kelvin)            145.09   151.58   183.09   197.13   227.06
                              229.96   267.35   294.02   361.82   377.46
                              397.56   424.54   486.27   508.44   529.60
                              568.80   577.00   622.41   645.82   680.28
                              696.31   758.06   806.32   922.27   965.19
                              998.79  1000.74  1012.07  1044.81  1055.33
                             1065.83  1093.87  1109.37  1118.02  1165.31
                             1176.13  1261.50  1275.87  1339.28  1352.70
                             1358.03  1380.02  1414.92  1449.69  1463.65
                             1472.28  1488.12  1513.75  1515.18  1525.18
                             1578.87  1620.13  1625.15  1632.94  1702.11
                             1713.25  1743.63  1775.62  1784.45  1819.36
                             1843.83  1857.38  1882.21  1897.17  1911.10
                             1914.64  1920.71  1927.56  1954.49  1967.53
                             1984.98  1993.64  2017.24  2050.35  2068.54
                             2080.47  2113.29  2129.40  2133.20  2135.04
                             2135.35  2143.33  2148.18  2160.22  2172.74
                             2178.25  2225.41  2291.29  2311.33  4282.16
                             4292.42  4297.06  4302.04  4309.23  4311.67
                             4313.70  4319.47  4331.08  4341.80  4363.86
                             4369.83  4387.72  4392.41  4402.75  4463.79
                             4497.81  4547.30  4551.16  4849.93

 Zero-point correction=                           0.330066 (Hartree/Particle)
 Thermal correction to Energy=                    0.349564
 Thermal correction to Enthalpy=                  0.350509
 Thermal correction to Gibbs Free Energy=         0.279894
 Sum of electronic and zero-point Energies=           -885.460617
 Sum of electronic and thermal Energies=              -885.441118
 Sum of electronic and thermal Enthalpies=            -885.440174
 Sum of electronic and thermal Free Energies=         -885.510789

                     E (Thermal)             CV                S
                      KCal/Mol        Cal/Mol-Kelvin    Cal/Mol-Kelvin
 Total                  219.355             74.012            148.621
 Electronic               0.000              0.000              0.000
 Translational            0.889              2.981             42.702
 Rotational               0.889              2.981             34.822
 Vibrational            217.578             68.051             71.097
 Vibration     1          0.593              1.986              7.201
 Vibration     2          0.593              1.984              5.914
 Vibration     3          0.594              1.982              5.433
 Vibration     4          0.596              1.974              4.520
 Vibration     5          0.599              1.965              4.004
 Vibration     6          0.604              1.948              3.438
 Vibration     7          0.605              1.945              3.353
 Vibration     8          0.611              1.926              2.987
 Vibration     9          0.614              1.916              2.845
 Vibration    10          0.621              1.894              2.576
 Vibration    11          0.622              1.892              2.552
 Vibration    12          0.632              1.859              2.269
 Vibration    13          0.640              1.834              2.094
 Vibration    14          0.663              1.760              1.720
 Vibration    15          0.670              1.742              1.646
 Vibration    16          0.678              1.717              1.556
 Vibration    17          0.689              1.683              1.445
 Vibration    18          0.718              1.600              1.222
 Vibration    19          0.730              1.568              1.151
 Vibration    20          0.741              1.538              1.088
 Vibration    21          0.762              1.480              0.980
 Vibration    22          0.767              1.468              0.959
 Vibration    23          0.793              1.399              0.850
 Vibration    24          0.808              1.363              0.799
 Vibration    25          0.830              1.310              0.730
 Vibration    26          0.840              1.286              0.699
 Vibration    27          0.882              1.191              0.594
 Vibration    28          0.916              1.117              0.523

 Optimization completed.
    -- Stationary point found.
 Normal termination of Gaussian 16 at Wed Dec 27 21:55:27 2023.
