 Gaussian 16, Revision A.03,
 Gaussian 16:  ES64L-G16RevA.03 25-Dec-2016

 ----------------------------------------------
 #P UB3LYP/6-311++G(d,p) nosym opt freq SCF=YQC
 ----------------------------------------------

 -------
 Reduced
 -------
 Symbolic Z-matrix:
 Charge = -2 Multiplicity = 1

 SCF Done:  E(UB3LYP) =  -696.063790478     a.u. after    9 cycles
 SCF Done:  E(UB3LYP) =  -696.076706361     A.U. after   33 cycles
 SCF Done:  E(UB3LYP) =  -696.076706362     a.u. after    1 cycles
 SCF Done:  E(UB3LYP) =  -696.110965538     a.u. after   55 cycles
 SCF Done:  E(UB3LYP) =  -696.111346470     A.U. after   33 cycles
 SCF Done:  E(UB3LYP) =  -696.111346469     a.u. after    1 cycles
 SCF Done:  E(UB3LYP) =  -696.121679533     a.u. after   41 cycles
 SCF Done:  E(UB3LYP) =  -696.122205352     A.U. after   28 cycles
 SCF Done:  E(UB3LYP) =  -696.125703741     a.u. after   21 cycles
 SCF Done:  E(UB3LYP) =  -696.126011134     A.U. after   33 cycles
 SCF Done:  E(UB3LYP) =  -696.133240831     a.u. after    1 cycles
 SCF Done:  E(UB3LYP) =  -696.133257765     A.U. after   33 cycles
 SCF Done:  E(UB3LYP) =  -696.133257765     a.u. after    1 cycles
 SCF Done:  E(UB3LYP) =  -696.133254752     a.u. after    1 cycles
 SCF Done:  E(UB3LYP) =  -696.133258013     A.U. after   33 cycles
 SCF Done:  E(UB3LYP) =  -696.133258013     a.u. after    1 cycles
 SCF Done:  E(UB3LYP) =  -696.133257559     a.u. after    1 cycles
 SCF Done:  E(UB3LYP) =  -696.133258054     A.U. after   32 cycles
 Optimization completed.
    -- Stationary point found.
 Normal termination of Gaussian 16 at Tue Dec 19 08:31:08 2023.

 ----------------------------------------------------------------------
 #P Geom=AllCheck Guess=TCheck SCRF=Check GenChk UB3LYP/6-311++G(d,p) F
 req
 ----------------------------------------------------------------------

 Structure from the checkpoint file:  "046-an.chk"
 -------
 Reduced
 -------
 Charge = -2 Multiplicity = 1

                          Input orientation:
 ---------------------------------------------------------------------
 Center     Atomic      Atomic             Coordinates (Angstroms)
 Number     Number       Type             X           Y           Z
 ---------------------------------------------------------------------
      1          6           0        2.584949   -0.331685   -1.939314
      2          6           0        2.570751   -0.008004   -0.425000
      3          6           0        2.790033    1.514061   -0.230012
      4          6           0        3.773069   -0.729549    0.216838
      5          6           0        1.211958   -0.422469    0.185911
      6          6           0        1.149547   -1.365099    1.217121
      7          6           0       -0.063419   -1.808434    1.832391
      8          8           0       -0.094524   -2.685899    2.786347
      9          6           0       -1.239450   -1.199418    1.291574
     10          6           0       -1.235023   -0.252731    0.262192
     11          6           0        0.007380    0.187254   -0.337041
     12          8           0        0.039118    1.076020   -1.297326
     13          6           0       -2.558977    0.347987   -0.264944
     14          6           0       -2.711721    0.035832   -1.773972
     15          6           0       -3.807131   -0.203302    0.453564
     16          6           0       -2.553627    1.884897   -0.063268
     17          1           0        3.519951    0.011545   -2.407058
     18          1           0        2.504110   -1.414703   -2.092655
     19          1           0        1.733886    0.159773   -2.415392
     20          1           0        1.954842    2.056060   -0.676284
     21          1           0        3.736766    1.836406   -0.694106
     22          1           0        2.838844    1.751713    0.838873
     23          1           0        3.708307   -1.815147    0.094361
     24          1           0        3.847313   -0.518618    1.288685
     25          1           0        4.702016   -0.388789   -0.260228
     26          1           0        2.055071   -1.817126    1.611144
     27          1           0       -2.172466   -1.524010    1.742834
     28          1           0       -3.617561    0.506931   -2.184293
     29          1           0       -2.790911   -1.047306   -1.927343
     30          1           0       -1.832094    0.407135   -2.303971
     31          1           0       -3.784813    0.011581    1.526960
     32          1           0       -4.707986    0.264349    0.033558
     33          1           0       -3.900617   -1.286932    0.332338
     34          1           0       -3.474399    2.336595   -0.467929
     35          1           0       -2.501453    2.122331    1.005516
     36          1           0       -1.681734    2.308749   -0.563867
 ---------------------------------------------------------------------

 SCF Done:  E(UB3LYP) =  -696.133258054     a.u. after    1 cycles
 SCF Done:  E(UB3LYP) =  -696.133258054     A.U. after    6 cycles

 Alpha  occ. eigenvalues --  -18.76923 -18.76206  -9.94765  -9.94763  -9.93568
 Alpha  occ. eigenvalues --   -9.93565  -9.92710  -9.92057  -9.92056  -9.92005
 Alpha  occ. eigenvalues --   -9.92004  -9.91999  -9.89376  -9.89375  -9.87562
 Alpha  occ. eigenvalues --   -9.87561  -0.68328  -0.67064  -0.58158  -0.58085
 Alpha  occ. eigenvalues --   -0.52029  -0.45813  -0.45625  -0.45215  -0.44853
 Alpha  occ. eigenvalues --   -0.44817  -0.39874  -0.34586  -0.32750  -0.27328
 Alpha  occ. eigenvalues --   -0.27046  -0.21855  -0.21756  -0.21265  -0.20697
 Alpha  occ. eigenvalues --   -0.20626  -0.19692  -0.18081  -0.17486  -0.16648
 Alpha  occ. eigenvalues --   -0.15887  -0.15636  -0.14287  -0.13664  -0.13312
 Alpha  occ. eigenvalues --   -0.11734  -0.10506  -0.10231  -0.09830  -0.09775
 Alpha  occ. eigenvalues --   -0.08977  -0.08874  -0.08568  -0.06436  -0.06353
 Alpha  occ. eigenvalues --   -0.05090   0.02923   0.03360   0.05521   0.06325
 Alpha  occ. eigenvalues --    0.13592
 Alpha virt. eigenvalues --    0.15148   0.15170   0.17570   0.17647   0.17975
 Alpha virt. eigenvalues --    0.18351   0.18851   0.19638   0.20906   0.20969
 Alpha virt. eigenvalues --    0.21350   0.21472   0.21697   0.21943   0.24137

  Beta  occ. eigenvalues --  -18.76923 -18.76206  -9.94765  -9.94763  -9.93568
  Beta  occ. eigenvalues --   -9.93565  -9.92710  -9.92057  -9.92056  -9.92005
  Beta  occ. eigenvalues --   -9.92004  -9.91999  -9.89376  -9.89375  -9.87562
  Beta  occ. eigenvalues --   -9.87561  -0.68328  -0.67064  -0.58158  -0.58085
  Beta  occ. eigenvalues --   -0.52029  -0.45813  -0.45625  -0.45215  -0.44853
  Beta  occ. eigenvalues --   -0.44817  -0.39874  -0.34586  -0.32750  -0.27328
  Beta  occ. eigenvalues --   -0.27046  -0.21855  -0.21756  -0.21265  -0.20697
  Beta  occ. eigenvalues --   -0.20626  -0.19692  -0.18081  -0.17486  -0.16648
  Beta  occ. eigenvalues --   -0.15887  -0.15636  -0.14287  -0.13664  -0.13312
  Beta  occ. eigenvalues --   -0.11734  -0.10506  -0.10231  -0.09830  -0.09775
  Beta  occ. eigenvalues --   -0.08977  -0.08874  -0.08568  -0.06436  -0.06353
  Beta  occ. eigenvalues --   -0.05090   0.02923   0.03360   0.05521   0.06325
  Beta  occ. eigenvalues --    0.13592
  Beta virt. eigenvalues --    0.15148   0.15170   0.17570   0.17647   0.17975
  Beta virt. eigenvalues --    0.18351   0.18851   0.19638   0.20906   0.20969
  Beta virt. eigenvalues --    0.21350   0.21472   0.21697   0.21943   0.24137

 Mulliken charges and spin densities:
               1          2
     1  C   -0.649140  -0.000000
     2  C    0.327392   0.000000
     3  C   -0.435784  -0.000000
     4  C   -0.227186  -0.000000
     5  C    1.091840  -0.000000
     6  C   -0.162549   0.000000
     7  C   -1.259875  -0.000000
     8  O   -0.552788  -0.000000
     9  C   -0.162629  -0.000000
    10  C    1.092153  -0.000000
    11  C   -0.667581  -0.000000
    12  O   -0.487991   0.000000
    13  C    0.325512   0.000000
    14  C   -0.648971  -0.000000
    15  C   -0.226267  -0.000000
    16  C   -0.434686  -0.000000
    17  H    0.031411   0.000000
    18  H    0.085035  -0.000000
    19  H    0.174481   0.000000
    20  H    0.222134   0.000000
    21  H   -0.179265   0.000000
    22  H    0.083849  -0.000000
    23  H    0.071594   0.000000
    24  H    0.073718   0.000000
    25  H   -0.146060   0.000000
    26  H    0.123956  -0.000000
    27  H    0.124068   0.000000
    28  H    0.031018   0.000000
    29  H    0.085065   0.000000
    30  H    0.174384   0.000000
    31  H    0.073588  -0.000000
    32  H   -0.147500   0.000000
    33  H    0.071442  -0.000000
    34  H   -0.180147   0.000000
    35  H    0.084023   0.000000
    36  H    0.221757  -0.000000
 Sum of Mulliken charges =  -2.00000   0.00000

 Dipole moment (field-independent basis, Debye):
    X=              0.1352    Y=              4.5262    Z=             -4.6465  Tot=              6.4880
 Quadrupole moment (field-independent basis, Debye-Ang):
   XX=           -179.6127   YY=           -152.7879   ZZ=           -152.6003
   XY=              2.8985   XZ=              2.9918   YZ=             31.2970

  Exact polarizability:**************** 807.916-709.524-114.686 500.619
 Approx polarizability:4040.661-231.299 931.633-129.509-368.285 664.972

                      1                      2                      3
                      A                      A                      A
 Frequencies --     49.3309                68.1125                83.1169
 Red. masses --      3.5841                 2.7539                 4.3013
 Frc consts  --      0.0051                 0.0075                 0.0175
 IR Inten    --      5.7980                 3.3202                 4.2841

                      4                      5                      6
                      A                      A                      A
 Frequencies --    155.7834               159.1704               181.8163
 Red. masses --      3.4448                 3.2180                 7.3569
 Frc consts  --      0.0493                 0.0480                 0.1433
 IR Inten    --     11.0287                74.9454                14.7451

                      7                      8                      9
                      A                      A                      A
 Frequencies --    226.0002               246.0518               248.2533
 Red. masses --      2.2991                 1.1885                 1.0442
 Frc consts  --      0.0692                 0.0424                 0.0379
 IR Inten    --   4123.5440               425.6645                 6.4058

                     10                     11                     12
                      A                      A                      A
 Frequencies --    263.3043               272.7090               287.7713
 Red. masses --      2.6899                 1.9992                 1.2307
 Frc consts  --      0.1099                 0.0876                 0.0600
 IR Inten    --    660.5646                 4.0341              1405.6578

                     13                     14                     15
                      A                      A                      A
 Frequencies --    290.2914               296.1028               303.8795
 Red. masses --      1.5243                 3.7502                 2.5640
 Frc consts  --      0.0757                 0.1937                 0.1395
 IR Inten    --      2.1768                 8.9572               467.3683

                     16                     17                     18
                      A                      A                      A
 Frequencies --    311.5050               323.2912               324.2308
 Red. masses --      2.0954                 1.0527                 1.0831
 Frc consts  --      0.1198                 0.0648                 0.0671
 IR Inten    --     14.5402               117.7454               800.7494

                     19                     20                     21
                      A                      A                      A
 Frequencies --    349.4781               376.5924               395.8115
 Red. masses --      4.5573                 2.6335                 2.3404
 Frc consts  --      0.3279                 0.2201                 0.2160
 IR Inten    --   5605.7739                 1.3962               332.4018

                     22                     23                     24
                      A                      A                      A
 Frequencies --    399.6647               428.1251               438.8751
 Red. masses --      2.7005                 2.7180                 4.0689
 Frc consts  --      0.2541                 0.2935                 0.4617
 IR Inten    --     67.5821                45.2028              1172.4210

                     25                     26                     27
                      A                      A                      A
 Frequencies --    444.6064               453.7954               519.8300
 Red. masses --      7.2645                 3.8134                 3.2021
 Frc consts  --      0.8461                 0.4627                 0.5098
 IR Inten    --    271.6228                15.3582              2496.8038

                     28                     29                     30
                      A                      A                      A
 Frequencies --    555.8309               608.8201               631.3401
 Red. masses --      2.7761                 4.6950                 2.2046
 Frc consts  --      0.5053                 1.0253                 0.5177
 IR Inten    --     12.9695              4427.8969                10.2677

                     31                     32                     33
                      A                      A                      A
 Frequencies --    665.3016               753.2681               784.1088
 Red. masses --      4.8360                 4.6396                 7.1597
 Frc consts  --      1.2612                 1.5511                 2.5936
 IR Inten    --      0.0150                98.3817                12.8395

                     34                     35                     36
                      A                      A                      A
 Frequencies --    805.4198               811.8852               829.9892
 Red. masses --      3.2150                 5.5863                 1.3283
 Frc consts  --      1.2288                 2.1695                 0.5391
 IR Inten    --      5.3254                27.3425               869.7527

                     37                     38                     39
                      A                      A                      A
 Frequencies --    849.8072               886.5053               913.5495
 Red. masses --      2.0409                 2.6679                 1.8100
 Frc consts  --      0.8684                 1.2353                 0.8900
 IR Inten    --     16.6958               418.0048              2530.8915

                     40                     41                     42
                      A                      A                      A
 Frequencies --    914.4865               922.4800               922.7462
 Red. masses --      1.8051                 1.6959                 1.7455
 Frc consts  --      0.8894                 0.8503                 0.8757
 IR Inten    --    352.6855              6096.5945               900.2568

                     43                     44                     45
                      A                      A                      A
 Frequencies --    950.6988               951.4922               966.8630
 Red. masses --      1.2112                 1.2100                 3.5403
 Frc consts  --      0.6450                 0.6454                 1.9499
 IR Inten    --    291.3020               114.8464                44.6757

                     46                     47                     48
                      A                      A                      A
 Frequencies --   1030.6084              1033.4731              1044.1583
 Red. masses --      1.4418                 1.5299                 1.3770
 Frc consts  --      0.9023                 0.9627                 0.8846
 IR Inten    --   7608.9706                32.0676              1494.0399

                     49                     50                     51
                      A                      A                      A
 Frequencies --   1045.9173              1095.1180              1155.7894
 Red. masses --      1.3860                 2.2074                 4.3425
 Frc consts  --      0.8933                 1.5598                 3.4178
 IR Inten    --     16.1526                71.7139                 0.3027

                     52                     53                     54
                      A                      A                      A
 Frequencies --   1195.7587              1202.7626              1206.7541
 Red. masses --      2.2824                 2.4265                 2.6022
 Frc consts  --      1.9227                 2.0682                 2.2327
 IR Inten    --  16620.8046               438.0272               151.6038

                     55                     56                     57
                      A                      A                      A
 Frequencies --   1207.3366              1243.1655              1248.2688
 Red. masses --      2.6128                 2.3921                 1.8495
 Frc consts  --      2.2439                 2.1782                 1.6979
 IR Inten    --     12.3037               234.5449               526.7775

                     58                     59                     60
                      A                      A                      A
 Frequencies --   1256.6819              1287.0197              1315.0553
 Red. masses --      2.8340                 3.4612                 3.2441
 Frc consts  --      2.6369                 3.3779                 3.3055
 IR Inten    --    294.6299               103.5763               912.9102

                     61                     62                     63
                      A                      A                      A
 Frequencies --   1348.8690              1349.1293              1357.8826
 Red. masses --      1.2147                 1.2142                 1.2148
 Frc consts  --      1.3021                 1.3021                 1.3197
 IR Inten    --     62.7287               208.7883              1728.1158

                     64                     65                     66
                      A                      A                      A
 Frequencies --   1368.8256              1382.5198              1386.8847
 Red. masses --      1.3531                 1.2447                 1.6023
 Frc consts  --      1.4938                 1.4017                 1.8159
 IR Inten    --      4.8988             16821.5363               123.0454

                     67                     68                     69
                      A                      A                      A
 Frequencies --   1408.9041              1436.3227              1456.3681
 Red. masses --      5.7837                 2.7776                 1.0490
 Frc consts  --      6.7642                 3.3761                 1.3108
 IR Inten    --     45.9335               221.4127              1862.0579

                     70                     71                     72
                      A                      A                      A
 Frequencies --   1457.7428              1475.5012              1481.5792
 Red. masses --      1.0483                 1.5921                 1.3357
 Frc consts  --      1.3125                 2.0423                 1.7274
 IR Inten    --     27.8469                 1.3819              1986.8302

                     73                     74                     75
                      A                      A                      A
 Frequencies --   1483.9913              1484.6546              1488.9292
 Red. masses --      1.0501                 1.3288                 1.1746
 Frc consts  --      1.3626                 1.7257                 1.5342
 IR Inten    --     51.6837                70.8052                40.3279

                     76                     77                     78
                      A                      A                      A
 Frequencies --   1490.1768              1492.5831              1508.6641
 Red. masses --      1.0867                 1.0512                 1.0537
 Frc consts  --      1.4218                 1.3798                 1.4131
 IR Inten    --   3640.0719                16.2977               287.9307

                     79                     80                     81
                      A                      A                      A
 Frequencies --   1510.8759              1525.5631              1528.8588
 Red. masses --      1.0540                 1.0566                 1.0621
 Frc consts  --      1.4176                 1.4489                 1.4627
 IR Inten    --      3.3363              1125.9417                 5.9658

                     82                     83                     84
                      A                      A                      A
 Frequencies --   1568.4022              2937.1531              2938.5938
 Red. masses --      4.6970                 1.0533                 1.0528
 Frc consts  --      6.8075                 5.3535                 5.3562
 IR Inten    --   1240.9487             21459.7485                50.4852

                     85                     86                     87
                      A                      A                      A
 Frequencies --   2946.3813              2957.0488              2981.0236
 Red. masses --      1.0517                 1.0459                 1.0450
 Frc consts  --      5.3794                 5.3884                 5.4712
 IR Inten    --  55212.3028                92.6790             11477.2176

                     88                     89                     90
                      A                      A                      A
 Frequencies --   2983.7422              3017.7486              3023.7228
 Red. masses --      1.0431                 1.0824                 1.0895
 Frc consts  --      5.4713                 5.8078                 5.8691
 IR Inten    --     48.3819             23707.5001               126.1806

                     91                     92                     93
                      A                      A                      A
 Frequencies --   3028.1959              3028.6086              3038.8384
 Red. masses --      1.0831                 1.0839                 1.0879
 Frc consts  --      5.8518                 5.8575                 5.9192
 IR Inten    --     99.2040                16.0294             11587.9362

                     94                     95                     96
                      A                      A                      A
 Frequencies --   3042.5897              3068.2004              3068.2876
 Red. masses --      1.0897                 1.1008                 1.1009
 Frc consts  --      5.9436                 6.1058                 6.1062
 IR Inten    --     17.6623               131.4083                51.8091

                     97                     98                     99
                      A                      A                      A
 Frequencies --   3086.4204              3087.4573              3098.7787
 Red. masses --      1.0990                 1.0988                 1.0980
 Frc consts  --      6.1679                 6.1710                 6.2118
 IR Inten    --    779.7829                46.3241              1241.4367

                    100                    101                    102
                      A                      A                      A
 Frequencies --   3099.6196              3138.6628              3142.1343
 Red. masses --      1.0978                 1.0866                 1.0850
 Frc consts  --      6.2143                 6.3065                 6.3112
 IR Inten    --     26.6441              1613.4875               132.8140

 - Thermochemistry -
 -------------------
 Temperature   298.150 Kelvin.  Pressure   1.00000 Atm.
 Atom     1 has atomic number  6 and mass  12.00000

 Molecular mass:   220.14633 amu.
 Principal axes and moments of inertia in atomic units:
                           1         2         3
     Eigenvalues --  2436.826424414.221076054.23711
           X            0.99712  -0.02381   0.07205
           Y           -0.06921  -0.67469   0.73485
           Z           -0.03112   0.73771   0.67440
 This molecule is an asymmetric top.
 Rotational symmetry number  1.
 Warning -- assumption of classical behavior for rotation
           may cause significant error
 Rotational temperatures (Kelvin)      0.03554     0.01962     0.01431
 Rotational constants (GHZ):           0.74061     0.40885     0.29810
 Zero-point vibrational energy     794897.0 (Joules/Mol)
                                  189.98494 (Kcal/Mol)
 Warning -- explicit consideration of  29 degrees of freedom as
           vibrations may cause significant error
 Vibrational temperatures:     70.98    98.00   119.59   224.14   229.01
          (Kelvin)            261.59   325.16   354.01   357.18   378.84
                              392.37   414.04   417.66   426.03   437.21
                              448.19   465.14   466.50   502.82   541.83
                              569.48   575.03   615.98   631.44   639.69
                              652.91   747.92   799.72   875.96   908.36
                              957.22  1083.78  1128.16  1158.82  1168.12
                             1194.17  1222.68  1275.48  1314.39  1315.74
                             1327.24  1327.63  1367.84  1368.98  1391.10
                             1482.82  1486.94  1502.31  1504.84  1575.63
                             1662.92  1720.43  1730.51  1736.25  1737.09
                             1788.64  1795.98  1808.08  1851.73  1892.07
                             1940.72  1941.10  1953.69  1969.43  1989.14
                             1995.42  2027.10  2066.55  2095.39  2097.37
                             2122.92  2131.66  2135.13  2136.09  2142.24
                             2144.03  2147.49  2170.63  2173.81  2194.95
                             2199.69  2256.58  4225.91  4227.98  4239.19
                             4254.53  4289.03  4292.94  4341.87  4350.46
                             4356.90  4357.49  4372.21  4377.61  4414.46
                             4414.58  4440.67  4442.16  4458.45  4459.66
                             4515.84  4520.83

 Zero-point correction=                           0.302760 (Hartree/Particle)
 Thermal correction to Energy=                    0.319682
 Thermal correction to Enthalpy=                  0.320627
 Thermal correction to Gibbs Free Energy=         0.260571
 Sum of electronic and zero-point Energies=           -695.830498
 Sum of electronic and thermal Energies=              -695.813576
 Sum of electronic and thermal Enthalpies=            -695.812631
 Sum of electronic and thermal Free Energies=         -695.872687

                     E (Thermal)             CV                S
                      KCal/Mol        Cal/Mol-Kelvin    Cal/Mol-Kelvin
 Total                  200.604             67.779            126.397
 Electronic               0.000              0.000              0.000
 Translational            0.889              2.981             42.070
 Rotational               0.889              2.981             32.543
 Vibrational            198.826             61.818             51.783
 Vibration     1          0.595              1.978              4.844
 Vibration     2          0.598              1.969              4.207
 Vibration     3          0.600              1.961              3.816
 Vibration     4          0.620              1.896              2.600
 Vibration     5          0.621              1.892              2.560
 Vibration     6          0.630              1.864              2.310
 Vibration     7          0.650              1.801              1.910
 Vibration     8          0.661              1.769              1.759
 Vibration     9          0.662              1.766              1.743
 Vibration    10          0.670              1.740              1.640
 Vibration    11          0.676              1.724              1.579
 Vibration    12          0.685              1.696              1.487
 Vibration    13          0.686              1.692              1.472
 Vibration    14          0.690              1.681              1.439
 Vibration    15          0.695              1.666              1.395
 Vibration    16          0.700              1.652              1.354
 Vibration    17          0.708              1.629              1.293
 Vibration    18          0.709              1.627              1.289
 Vibration    19          0.727              1.576              1.169
 Vibration    20          0.747              1.520              1.053
 Vibration    21          0.763              1.479              0.978
 Vibration    22          0.766              1.471              0.964
 Vibration    23          0.790              1.409              0.865
 Vibration    24          0.799              1.385              0.830
 Vibration    25          0.804              1.373              0.812
 Vibration    26          0.812              1.352              0.784
 Vibration    27          0.875              1.206              0.610
 Vibration    28          0.911              1.127              0.532
 Vibration    29          0.968              1.013              0.435

 Optimization completed.
    -- Stationary point found.
 Normal termination of Gaussian 16 at Tue Dec 19 09:33:30 2023.
