 Q-Chem 5.4, Q-Chem, Inc., Pleasanton, CA (2021)
 Q-Chem 5.4.0 for Intel X86 EM64T Linux

User input:
--------------------------------------------------------------
$molecule
-1 2
C                  4.2457350000     -0.0072970000     -0.1586980000
S                  3.0293190000     -1.3583070000     -0.3064560000
C                  1.4796860000     -0.4843410000     -0.1286770000
C                  1.3604550000      0.8779040000      0.0680930000
C                  0.0941270000      1.5441030000      0.2064850000
O                  0.0040640000      2.7876840000      0.3856630000
C                 -1.0995050000      0.6816870000      0.1260630000
C                 -2.3823860000      1.2465110000      0.2504940000
C                 -3.5189900000      0.4599410000      0.1785960000
C                 -3.3980590000     -0.9294010000     -0.0221880000
C                 -2.1461210000     -1.5040210000     -0.1468590000
C                 -0.9767860000     -0.7191160000     -0.0763290000
C                  0.3349100000     -1.3658390000     -0.2133760000
O                  0.4631420000     -2.6057910000     -0.3931010000
H                  4.1259870000      0.7352760000     -0.9503080000
H                  5.2251440000     -0.4789950000     -0.2606060000
H                  4.1893110000      0.4855000000      0.8141230000
H                  2.2277870000      1.5240550000      0.1292120000
H                 -2.4422260000      2.3181780000      0.4041810000
H                 -4.5021830000      0.9110090000      0.2764900000
H                 -4.2887060000     -1.5486730000     -0.0789930000
H                 -2.0247060000     -2.5700690000     -0.3019450000
$end

$rem
BASIS  =  6-311++G(d,p)
GUI  =  2
JOB_TYPE  =  SP
METHOD  =  B3LYP
SCF_CONVERGENCE  = 8
SOLVENT_METHOD = sm12
$end

$smx
solvent dimethylformamide
charges CM5
$end

--------------------------------------------------------------

             Standard Nuclear Orientation (Angstroms)
    I     Atom           X                Y                Z
 ----------------------------------------------------------------
    1      C       4.2457350000    -0.0072970000    -0.1586980000
    2      S       3.0293190000    -1.3583070000    -0.3064560000
    3      C       1.4796860000    -0.4843410000    -0.1286770000
    4      C       1.3604550000     0.8779040000     0.0680930000
    5      C       0.0941270000     1.5441030000     0.2064850000
    6      O       0.0040640000     2.7876840000     0.3856630000
    7      C      -1.0995050000     0.6816870000     0.1260630000
    8      C      -2.3823860000     1.2465110000     0.2504940000
    9      C      -3.5189900000     0.4599410000     0.1785960000
   10      C      -3.3980590000    -0.9294010000    -0.0221880000
   11      C      -2.1461210000    -1.5040210000    -0.1468590000
   12      C      -0.9767860000    -0.7191160000    -0.0763290000
   13      C       0.3349100000    -1.3658390000    -0.2133760000
   14      O       0.4631420000    -2.6057910000    -0.3931010000
   15      H       4.1259870000     0.7352760000    -0.9503080000
   16      H       5.2251440000    -0.4789950000    -0.2606060000
   17      H       4.1893110000     0.4855000000     0.8141230000
   18      H       2.2277870000     1.5240550000     0.1292120000
   19      H      -2.4422260000     2.3181780000     0.4041810000
   20      H      -4.5021830000     0.9110090000     0.2764900000
   21      H      -4.2887060000    -1.5486730000    -0.0789930000
   22      H      -2.0247060000    -2.5700690000    -0.3019450000
 ----------------------------------------------------------------

   18    -972.8706451681      7.16e-09  Convergence criterion met
 Total energy in the final basis set =     -972.9575884860

                    Orbital Energies (a.u.)
 --------------------------------------------------------------

 Alpha MOs
 -- Occupied --
-88.8512 -19.0805 -19.0764 -10.2276 -10.2268 -10.2029 -10.1951 -10.1852
-10.1845 -10.1833 -10.1818 -10.1812 -10.1812 -10.1682  -7.9362  -5.9000
 -5.8961  -5.8908  -1.0058  -0.9997  -0.8673  -0.8298  -0.7827  -0.7602
 -0.7399  -0.6908  -0.6508  -0.6265  -0.5949  -0.5652  -0.5167  -0.5044
 -0.4750  -0.4643  -0.4384  -0.4365  -0.4332  -0.4204  -0.4180  -0.4065
 -0.3984  -0.3845  -0.3810  -0.3621  -0.3555  -0.3495  -0.3256  -0.2987
 -0.2694  -0.2664  -0.2476  -0.2391  -0.2245  -0.1542

 Beta MOs
 -- Occupied --
-88.8511 -19.0737 -19.0703 -10.2260 -10.2257 -10.2013 -10.1951 -10.1849
-10.1840 -10.1828 -10.1816 -10.1810 -10.1807 -10.1672  -7.9361  -5.9000
 -5.8960  -5.8902  -0.9942  -0.9891  -0.8652  -0.8260  -0.7804  -0.7584
 -0.7381  -0.6839  -0.6476  -0.6249  -0.5923  -0.5627  -0.5147  -0.5016
 -0.4723  -0.4635  -0.4376  -0.4361  -0.4302  -0.4142  -0.4093  -0.4023
 -0.3948  -0.3834  -0.3572  -0.3540  -0.3527  -0.3483  -0.3243  -0.2828
 -0.2600  -0.2527  -0.2415  -0.2334  -0.2156

          Ground-State Mulliken Net Atomic Charges

     Atom                 Charge (a.u.)    Spin (a.u.)
  --------------------------------------------------------
      1 C                     0.192280       0.002701
      2 S                    -0.366400       0.033503
      3 C                     1.788028       0.108312
      4 C                     0.746216       0.078145
      5 C                    -1.524313       0.053974
      6 O                    -0.359990       0.221119
      7 C                    -0.913354       0.063537
      8 C                     0.033020       0.012875
      9 C                     0.845044       0.043302
     10 C                     0.992125       0.015195
     11 C                     0.109557       0.046519
     12 C                    -1.230981      -0.002949
     13 C                    -2.952446       0.086364
     14 O                    -0.259338       0.254468
     15 H                     0.165583      -0.000126
     16 H                     0.368409      -0.000110
     17 H                     0.165559      -0.000106
     18 H                     0.168374      -0.007393
     19 H                     0.143278      -0.001602
     20 H                     0.366945      -0.003127
     21 H                     0.370023      -0.001392
     22 H                     0.152382      -0.003210
  --------------------------------------------------------
  Sum of atomic charges =    -1.000000

                    Cartesian Multipole Moments
 -----------------------------------------------------------------
    Charge (ESU x 10^10)
                -4.8032
    Dipole Moment (Debye)
         X      -0.0696      Y       0.5186      Z       0.1141
       Tot       0.5356
    Quadrupole Moments (Debye-Ang)
        XX     -88.3847     XY       7.2438     YY    -128.1180
        XZ       0.7480     YZ      -4.7648     ZZ     -96.8994

 Total job time:  471.71s(wall), 2853.49s(cpu)
        *  Thank you very much for using Q-Chem.  Have a nice day.  *
