 Q-Chem 5.4, Q-Chem, Inc., Pleasanton, CA (2021)
 Q-Chem 5.4.0 for Intel X86 EM64T Linux

User input:
--------------------------------------------------------------
$molecule
-1 2
C                  3.0001140000     -1.1071070000     -0.1393680000
C                  1.6832440000     -0.3880580000     -0.0107770000
C                  1.6061340000      0.9275740000      0.3646370000
C                  0.3604640000      1.6463660000      0.4973760000
O                  0.3324690000      2.8648510000      0.8475820000
C                 -0.8529510000      0.8892570000      0.2057430000
C                 -0.7938760000     -0.4368610000     -0.1739140000
C                 -2.0480440000     -1.2207770000     -0.4760220000
C                  0.4752000000     -1.1451490000     -0.3020650000
O                  0.5376530000     -2.3636290000     -0.6502080000
C                 -2.1692960000      1.6149330000      0.3360880000
H                  3.1385640000     -1.4960770000     -1.1541820000
H                  3.8347640000     -0.4420810000      0.1020720000
H                  3.0385520000     -1.9792240000      0.5226510000
H                  2.5080590000      1.4954390000      0.5827660000
H                 -2.7205840000     -1.2618080000      0.3906660000
H                 -1.7775210000     -2.2392890000     -0.7568560000
H                 -2.6215850000     -0.7699860000     -1.2963130000
H                 -2.8261130000      1.1391440000      1.0760110000
H                 -1.9819260000      2.6439620000      0.6457500000
H                 -2.7233210000      1.6285180000     -0.6116370000
$end
$rem
MAX_SCF_CYCLES=200
BASIS  =  6-311++G(d,p)
GUI  =  2
JOB_TYPE  =  SP
METHOD  =  B3LYP
SOLVENT_METHOD = PCM
$end
$pcm
theory = CPCM
$end
$solvent
dielectric 37.219
opticaldielectric 1.43
$end

--------------------------------------------------------------

             Standard Nuclear Orientation (Angstroms)
    I     Atom           X                Y                Z
 ----------------------------------------------------------------
    1      C       3.0001140000    -1.1071070000    -0.1393680000
    2      C       1.6832440000    -0.3880580000    -0.0107770000
    3      C       1.6061340000     0.9275740000     0.3646370000
    4      C       0.3604640000     1.6463660000     0.4973760000
    5      O       0.3324690000     2.8648510000     0.8475820000
    6      C      -0.8529510000     0.8892570000     0.2057430000
    7      C      -0.7938760000    -0.4368610000    -0.1739140000
    8      C      -2.0480440000    -1.2207770000    -0.4760220000
    9      C       0.4752000000    -1.1451490000    -0.3020650000
   10      O       0.5376530000    -2.3636290000    -0.6502080000
   11      C      -2.1692960000     1.6149330000     0.3360880000
   12      H       3.1385640000    -1.4960770000    -1.1541820000
   13      H       3.8347640000    -0.4420810000     0.1020720000
   14      H       3.0385520000    -1.9792240000     0.5226510000
   15      H       2.5080590000     1.4954390000     0.5827660000
   16      H      -2.7205840000    -1.2618080000     0.3906660000
   17      H      -1.7775210000    -2.2392890000    -0.7568560000
   18      H      -2.6215850000    -0.7699860000    -1.2963130000
   19      H      -2.8261130000     1.1391440000     1.0760110000
   20      H      -1.9819260000     2.6439620000     0.6457500000
   21      H      -2.7233210000     1.6285180000    -0.6116370000
 ----------------------------------------------------------------

    9    -499.7077635592      6.07e-06  Convergence criterion met
 Total energy in the final basis set =     -499.7077635592

                    Orbital Energies (a.u.)
 --------------------------------------------------------------

 Alpha MOs
 -- Occupied --
-19.0723 -19.0722 -10.2125 -10.2114 -10.1659 -10.1624 -10.1615 -10.1534
-10.1511 -10.1491 -10.1489  -0.9939  -0.9914  -0.8243  -0.7801  -0.7189
 -0.7031  -0.6567  -0.6310  -0.5577  -0.5367  -0.4890  -0.4496  -0.4321
 -0.4207  -0.4085  -0.4037  -0.3913  -0.3903  -0.3833  -0.3793  -0.3719
 -0.3645  -0.3579  -0.3428  -0.3345  -0.2698  -0.2422  -0.2325  -0.2313
 -0.1553

 Beta MOs
 -- Occupied --
-19.0657 -19.0656 -10.2108 -10.2095 -10.1646 -10.1616 -10.1604 -10.1535
-10.1502 -10.1492 -10.1490  -0.9823  -0.9795  -0.8188  -0.7780  -0.7157
 -0.7007  -0.6522  -0.6257  -0.5541  -0.5325  -0.4870  -0.4455  -0.4248
 -0.4157  -0.4053  -0.4021  -0.3876  -0.3860  -0.3820  -0.3786  -0.3635
 -0.3557  -0.3403  -0.3330  -0.3325  -0.2404  -0.2361  -0.2255  -0.2244

          Ground-State Mulliken Net Atomic Charges

     Atom                 Charge (a.u.)    Spin (a.u.)
  --------------------------------------------------------
      1 C                    -0.330418       0.008494
      2 C                     0.903964       0.091155
      3 C                    -0.518898       0.033884
      4 C                    -0.835606       0.109204
      5 O                    -0.536502       0.231556
      6 C                     0.878572       0.110817
      7 C                     0.248841       0.036594
      8 C                    -0.594613      -0.007809
      9 C                    -0.818262       0.127902
     10 O                    -0.522847       0.240623
     11 C                    -0.499342       0.006174
     12 H                     0.166114       0.004872
     13 H                     0.158115      -0.000160
     14 H                     0.166094       0.004915
     15 H                     0.157935      -0.007586
     16 H                     0.155251       0.002850
     17 H                     0.178871      -0.001824
     18 H                     0.155253       0.002823
     19 H                     0.157025       0.003670
     20 H                     0.173331      -0.001838
     21 H                     0.157122       0.003685
  --------------------------------------------------------
  Sum of atomic charges =    -1.000000

                    Cartesian Multipole Moments
 -----------------------------------------------------------------
    Charge (ESU x 10^10)
                -4.8032
    Dipole Moment (Debye)
         X      -2.4027      Y      -1.7149      Z      -0.6450
       Tot       3.0216
    Quadrupole Moments (Debye-Ang)
        XX     -66.9270     XY       0.2093     YY    -109.2218
        XZ       0.2287     YZ     -11.3803     ZZ     -73.0807

 Total job time:  31.42s(wall), 173.12s(cpu)
        *  Thank you very much for using Q-Chem.  Have a nice day.  *
