 Q-Chem 5.4, Q-Chem, Inc., Pleasanton, CA (2021)
 Q-Chem 5.4.0 for Intel X86 EM64T Linux

User input:
--------------------------------------------------------------
$molecule
-2 1
C                 -1.0484710000     -2.2477170000      1.2618910000
C                 -1.8151780000     -2.1123770000      0.0373080000
C                 -1.9173410000     -0.9488050000     -0.6658460000
C                 -1.2309380000      0.2759020000     -0.2988440000
C                 -0.3840690000      0.1679090000      0.8663780000
C                 -0.4165300000     -1.0309670000      1.7165940000
O                 -1.0484310000     -3.3826800000      1.8661540000
O                 -1.3677000000      1.3082260000     -1.0530850000
H                 -2.5163250000     -0.8931520000     -1.5744980000
C                  0.4149390000     -2.0991810000      3.8650880000
C                 -0.1140900000      0.2463100000      3.8726220000
C                  0.7339980000     -2.0202250000      5.2180200000
C                  0.6375530000     -0.8156160000      5.9237720000
C                  0.2019860000      0.3169240000      5.2231750000
H                 -2.3404980000     -3.0109110000     -0.2854990000
H                  0.4567800000     -3.0452790000      3.3450940000
H                 -0.4598650000      1.1392500000      3.3673790000
H                  1.0643980000     -2.9212400000      5.7333690000
H                  0.8895320000     -0.7596340000      6.9799580000
H                  0.1027050000      1.2696370000      5.7402320000
C                  0.6615540000      1.1816230000      1.0392890000
C                  0.5108090000      2.5303310000      0.6084840000
C                  1.9361030000      0.8569960000      1.5830440000
C                  1.5388380000      3.4612830000      0.7307130000
C                  2.9585040000      1.7898830000      1.6983380000
C                  2.7792220000      3.1144340000      1.2780760000
H                 -0.4268620000      2.8047240000      0.1472570000
H                  2.1155240000     -0.1606070000      1.9062760000
H                  1.3673400000      4.4813040000      0.3890690000
H                  3.9132090000      1.4786250000      2.1184860000
H                  3.5779210000      3.8461010000      1.3724260000
C                 -0.0174570000     -0.9615220000      3.1261020000
$end
$rem
MAX_SCF_CYCLES=200
BASIS  =  6-311++G(d,p)
GUI  =  2
JOB_TYPE  =  SP
METHOD  =  B3LYP
SOLVENT_METHOD = PCM
$end
$pcm
theory = CPCM
$end
$solvent
dielectric 37.219
opticaldielectric 1.43
$end

--------------------------------------------------------------

             Standard Nuclear Orientation (Angstroms)
    I     Atom           X                Y                Z
 ----------------------------------------------------------------
    1      C      -1.0484710000    -2.2477170000     1.2618910000
    2      C      -1.8151780000    -2.1123770000     0.0373080000
    3      C      -1.9173410000    -0.9488050000    -0.6658460000
    4      C      -1.2309380000     0.2759020000    -0.2988440000
    5      C      -0.3840690000     0.1679090000     0.8663780000
    6      C      -0.4165300000    -1.0309670000     1.7165940000
    7      O      -1.0484310000    -3.3826800000     1.8661540000
    8      O      -1.3677000000     1.3082260000    -1.0530850000
    9      H      -2.5163250000    -0.8931520000    -1.5744980000
   10      C       0.4149390000    -2.0991810000     3.8650880000
   11      C      -0.1140900000     0.2463100000     3.8726220000
   12      C       0.7339980000    -2.0202250000     5.2180200000
   13      C       0.6375530000    -0.8156160000     5.9237720000
   14      C       0.2019860000     0.3169240000     5.2231750000
   15      H      -2.3404980000    -3.0109110000    -0.2854990000
   16      H       0.4567800000    -3.0452790000     3.3450940000
   17      H      -0.4598650000     1.1392500000     3.3673790000
   18      H       1.0643980000    -2.9212400000     5.7333690000
   19      H       0.8895320000    -0.7596340000     6.9799580000
   20      H       0.1027050000     1.2696370000     5.7402320000
   21      C       0.6615540000     1.1816230000     1.0392890000
   22      C       0.5108090000     2.5303310000     0.6084840000
   23      C       1.9361030000     0.8569960000     1.5830440000
   24      C       1.5388380000     3.4612830000     0.7307130000
   25      C       2.9585040000     1.7898830000     1.6983380000
   26      C       2.7792220000     3.1144340000     1.2780760000
   27      H      -0.4268620000     2.8047240000     0.1472570000
   28      H       2.1155240000    -0.1606070000     1.9062760000
   29      H       1.3673400000     4.4813040000     0.3890690000
   30      H       3.9132090000     1.4786250000     2.1184860000
   31      H       3.5779210000     3.8461010000     1.3724260000
   32      C      -0.0174570000    -0.9615220000     3.1261020000
 ----------------------------------------------------------------

    9    -844.0431727240      2.98e-06  Convergence criterion met
 Total energy in the final basis set =     -844.0431727240

                    Orbital Energies (a.u.)
 --------------------------------------------------------------

 Alpha MOs
 -- Occupied --
-19.0247 -19.0247 -10.1809 -10.1809 -10.1628 -10.1628 -10.1574 -10.1574
-10.1568 -10.1568 -10.1546 -10.1545 -10.1501 -10.1501 -10.1445 -10.1445
-10.1343 -10.1340 -10.1332 -10.1325  -0.9453  -0.9424  -0.8400  -0.8325
 -0.7869  -0.7488  -0.7352  -0.7261  -0.7244  -0.6808  -0.6492  -0.6022
 -0.5885  -0.5790  -0.5790  -0.5456  -0.5266  -0.4903  -0.4842  -0.4513
 -0.4459  -0.4446  -0.4289  -0.4203  -0.4110  -0.4035  -0.3999  -0.3978
 -0.3868  -0.3663  -0.3652  -0.3608  -0.3480  -0.3454  -0.3434  -0.3290
 -0.3221  -0.3189  -0.3182  -0.3107  -0.2579  -0.2517  -0.2388  -0.2381
 -0.2321  -0.1995  -0.1973  -0.1791  -0.1254

          Ground-State Mulliken Net Atomic Charges

     Atom                 Charge (a.u.)
  ----------------------------------------
      1 C                    -0.321939
      2 C                    -0.310182
      3 C                    -0.308797
      4 C                    -0.311573
      5 C                     0.327314
      6 C                     0.327738
      7 O                    -0.653594
      8 O                    -0.654031
      9 H                     0.160773
     10 C                    -0.233568
     11 C                    -0.354924
     12 C                    -0.143536
     13 C                    -0.459668
     14 C                    -0.348843
     15 H                     0.160602
     16 H                     0.208318
     17 H                     0.218069
     18 H                     0.189925
     19 H                     0.166979
     20 H                     0.188765
     21 C                     0.362942
     22 C                    -0.231555
     23 C                    -0.356663
     24 C                    -0.147212
     25 C                    -0.349161
     26 C                    -0.460210
     27 H                     0.207708
     28 H                     0.216972
     29 H                     0.190009
     30 H                     0.188684
     31 H                     0.167257
     32 C                     0.363402
  ----------------------------------------
  Sum of atomic charges =    -2.000000

                    Cartesian Multipole Moments
 -----------------------------------------------------------------
    Charge (ESU x 10^10)
                -9.6064
    Dipole Moment (Debye)
         X       7.0982      Y       6.5818      Z      -8.8529
       Tot      13.1179
    Quadrupole Moments (Debye-Ang)
        XX    -141.0276     XY     -11.6272     YY    -173.0240
        XZ       2.3606     YZ      28.0423     ZZ    -164.8201

 Total job time:  75.30s(wall), 504.94s(cpu)
        *  Thank you very much for using Q-Chem.  Have a nice day.  *
