 Q-Chem 5.4, Q-Chem, Inc., Pleasanton, CA (2021)
 Q-Chem 5.4.0 for Intel X86 EM64T Linux

User input:
--------------------------------------------------------------
$molecule
-1 2
F                 -2.6856650000      0.5458980000     -0.0153840000
C                 -1.3599900000      0.2741120000     -0.0077710000
C                 -0.4668710000      1.3064420000     -0.0174240000
F                 -0.9263630000      2.5790000000     -0.0343900000
C                  0.9714350000      1.1226160000     -0.0105060000
O                  1.7905830000      2.0693880000     -0.0193490000
C                  1.3599400000     -0.2742210000      0.0077710000
C                  0.4669050000     -1.3063810000      0.0174210000
F                  0.9263040000     -2.5789410000      0.0343960000
C                 -0.9713420000     -1.1225500000      0.0104930000
O                 -1.7906080000     -2.0694490000      0.0193520000
F                  2.6856720000     -0.5459130000      0.0153910000
$end
$rem
MAX_SCF_CYCLES=200
BASIS  =  6-311++G(d,p)
GUI  =  2
JOB_TYPE  =  SP
METHOD  =  B3LYP
SOLVENT_METHOD = PCM
$end
$pcm
theory = CPCM
$end
$solvent
dielectric 37.219
opticaldielectric 1.43
$end

--------------------------------------------------------------

             Standard Nuclear Orientation (Angstroms)
    I     Atom           X                Y                Z
 ----------------------------------------------------------------
    1      F      -2.6856650000     0.5458980000    -0.0153840000
    2      C      -1.3599900000     0.2741120000    -0.0077710000
    3      C      -0.4668710000     1.3064420000    -0.0174240000
    4      F      -0.9263630000     2.5790000000    -0.0343900000
    5      C       0.9714350000     1.1226160000    -0.0105060000
    6      O       1.7905830000     2.0693880000    -0.0193490000
    7      C       1.3599400000    -0.2742210000     0.0077710000
    8      C       0.4669050000    -1.3063810000     0.0174210000
    9      F       0.9263040000    -2.5789410000     0.0343960000
   10      C      -0.9713420000    -1.1225500000     0.0104930000
   11      O      -1.7906080000    -2.0694490000     0.0193520000
   12      F       2.6856720000    -0.5459130000     0.0153910000
 ----------------------------------------------------------------

    8    -778.7877234276      8.61e-06  Convergence criterion met
 Total energy in the final basis set =     -778.7877234276

                    Orbital Energies (a.u.)
 --------------------------------------------------------------

 Alpha MOs
 -- Occupied --
-24.7082 -24.7082 -24.7082 -24.7082 -19.1077 -19.1075 -10.2725 -10.2725
-10.2719 -10.2719 -10.2591 -10.2591  -1.2525  -1.2517  -1.2386  -1.2381
 -1.0332  -1.0312  -0.8646  -0.7727  -0.7280  -0.6492  -0.6398  -0.5789
 -0.5660  -0.5658  -0.5397  -0.5142  -0.5069  -0.4950  -0.4751  -0.4672
 -0.4634  -0.4467  -0.4389  -0.4169  -0.4082  -0.4042  -0.4001  -0.3975
 -0.3013  -0.2785  -0.2768  -0.2616  -0.1886

 Beta MOs
 -- Occupied --
-24.7080 -24.7080 -24.7079 -24.7079 -19.1007 -19.1005 -10.2715 -10.2715
-10.2708 -10.2708 -10.2575 -10.2575  -1.2518  -1.2511  -1.2379  -1.2374
 -1.0211  -1.0188  -0.8586  -0.7706  -0.7173  -0.6461  -0.6364  -0.5774
 -0.5643  -0.5638  -0.5389  -0.5079  -0.5054  -0.4922  -0.4704  -0.4648
 -0.4582  -0.4436  -0.4336  -0.4158  -0.4029  -0.3969  -0.3885  -0.3689
 -0.2715  -0.2707  -0.2705  -0.2546

          Ground-State Mulliken Net Atomic Charges

     Atom                 Charge (a.u.)    Spin (a.u.)
  --------------------------------------------------------
      1 F                    -0.231851       0.002763
      2 C                     0.162024       0.084818
      3 C                     0.157132       0.085012
      4 F                    -0.231563       0.002766
      5 C                     0.142686       0.064903
      6 O                    -0.498835       0.259705
      7 C                     0.163033       0.084851
      8 C                     0.156261       0.084881
      9 F                    -0.231558       0.002760
     10 C                     0.143340       0.064901
     11 O                    -0.498789       0.259880
     12 F                    -0.231882       0.002761
  --------------------------------------------------------
  Sum of atomic charges =    -1.000000

                    Cartesian Multipole Moments
 -----------------------------------------------------------------
    Charge (ESU x 10^10)
                -4.8032
    Dipole Moment (Debye)
         X      -0.0000      Y      -0.0003      Z      -0.0000
       Tot       0.0003
    Quadrupole Moments (Debye-Ang)
        XX     -93.0006     XY     -12.7740     YY     -96.6874
        XZ       0.0608     YZ       0.3573     ZZ     -63.9089

 Total job time:  18.26s(wall), 84.61s(cpu)
        *  Thank you very much for using Q-Chem.  Have a nice day.  *
