 Gaussian 16, Revision A.03,
 Gaussian 16:  ES64L-G16RevA.03 25-Dec-2016

 --------------------------------------
 #P UB3LYP/6-311++G(d,p) nosym opt freq
 --------------------------------------

 -------
 Radical
 -------
 Symbolic Z-matrix:
 Charge = -1 Multiplicity = 2

 SCF Done:  E(UB3LYP) =  -916.967380108     A.U. after   23 cycles
 Optimization completed.
    -- Stationary point found.
 Normal termination of Gaussian 16 at Wed Dec 27 19:55:25 2023.

 ----------------------------------------------------------------------
 #P Geom=AllCheck Guess=TCheck SCRF=Check GenChk UB3LYP/6-311++G(d,p) F
 req
 ----------------------------------------------------------------------

 Structure from the checkpoint file:  "144-rad.chk"
 -------
 Radical
 -------
 Charge = -1 Multiplicity = 2

                          Input orientation:
 ---------------------------------------------------------------------
 Center     Atomic      Atomic             Coordinates (Angstroms)
 Number     Number       Type             X           Y           Z
 ---------------------------------------------------------------------
      1          6           0       -2.969699    3.721494    0.179942
      2          6           0       -4.231195    3.164188    0.235965
      3          6           0       -4.385207    1.761277    0.178524
      4          6           0       -1.816353    2.913551    0.065537
      5          6           0       -1.971937    1.497716    0.007528
      6          6           0       -3.272804    0.951432    0.066537
      7          6           0       -0.500554    3.552611    0.009718
      8          6           0        0.644169    2.650199   -0.106175
      9          6           0        0.491707    1.234328   -0.164879
     10          6           0       -0.823805    0.594971   -0.112082
     11          6           0        1.943503    3.201529   -0.170183
     12          6           0        3.034377    2.379184   -0.284006
     13          6           0        2.909237    0.979185   -0.346457
     14          6           0        1.645869    0.429455   -0.283960
     15          8           0       -0.360038    4.800846    0.057129
     16          8           0       -0.959739   -0.651791   -0.167912
     17          1           0       -3.360616   -0.128007    0.020433
     18          1           0        1.502069   -0.643803   -0.326558
     19          1           0       -2.822197    4.794534    0.222121
     20          1           0        2.049752    4.278844   -0.136814
     21          1           0        3.791099    0.356188   -0.432964
     22          1           0       -5.377482    1.322147    0.222854
     23          8           0        4.303547    2.988735   -0.448697
     24          6           0        5.283888    2.794232    0.462466
     25          6           0        6.517658    3.570366    0.058422
     26          8           0        5.191785    2.111794    1.450684
     27          1           0       -5.105505    3.802413    0.324289
     28          1           0        6.291954    4.639587    0.051065
     29          1           0        6.822562    3.293609   -0.953217
     30          1           0        7.322056    3.367065    0.762922
 ---------------------------------------------------------------------

 SCF Done:  E(UB3LYP) =  -916.967380108     A.U. after    1 cycles

 Alpha  occ. eigenvalues --  -19.08410 -19.02941 -18.95099 -18.95047 -10.22383
 Alpha  occ. eigenvalues --  -10.12721 -10.10829 -10.10144 -10.10014 -10.06820
 Alpha  occ. eigenvalues --  -10.06220 -10.06166 -10.06163 -10.06101 -10.05886
 Alpha  occ. eigenvalues --  -10.05571 -10.05524 -10.05510 -10.05445 -10.05399
 Alpha  occ. eigenvalues --   -1.02425  -0.94327  -0.87797  -0.87506  -0.75107
 Alpha  occ. eigenvalues --   -0.73871  -0.69115  -0.66587  -0.64321  -0.63437
 Alpha  occ. eigenvalues --   -0.62623  -0.56186  -0.54023  -0.51993  -0.48453
 Alpha  occ. eigenvalues --   -0.47633  -0.44071  -0.42228  -0.41496  -0.40356
 Alpha  occ. eigenvalues --   -0.39427  -0.38617  -0.35844  -0.35564  -0.34469
 Alpha  occ. eigenvalues --   -0.34171  -0.32486  -0.31810  -0.30910  -0.30823
 Alpha  occ. eigenvalues --   -0.30050  -0.29499  -0.28868  -0.28640  -0.27429
 Alpha  occ. eigenvalues --   -0.25484  -0.25446  -0.24464  -0.23838  -0.22942
 Alpha  occ. eigenvalues --   -0.21879  -0.21582  -0.19959  -0.14801  -0.14476
 Alpha  occ. eigenvalues --   -0.13878  -0.13266  -0.12066  -0.11236  -0.02016
 Alpha virt. eigenvalues --    0.05979   0.06166   0.07759   0.08105   0.08969
 Alpha virt. eigenvalues --    0.09617   0.09830   0.10083   0.10443   0.11047
 Alpha virt. eigenvalues --    0.11624   0.11830   0.13468   0.13589   0.14732

  Beta  occ. eigenvalues --  -19.08409 -19.02942 -18.94513 -18.94431 -10.22376
  Beta  occ. eigenvalues --  -10.12667 -10.10829 -10.10020 -10.09875 -10.06762
  Beta  occ. eigenvalues --  -10.06184 -10.06174 -10.06114 -10.06106 -10.05780
  Beta  occ. eigenvalues --  -10.05536 -10.05511 -10.05474 -10.05366 -10.05310
  Beta  occ. eigenvalues --   -1.02412  -0.94320  -0.86786  -0.86443  -0.74896
  Beta  occ. eigenvalues --   -0.73722  -0.68994  -0.66266  -0.64156  -0.63264
  Beta  occ. eigenvalues --   -0.62442  -0.55754  -0.53671  -0.51762  -0.48308
  Beta  occ. eigenvalues --   -0.47507  -0.43851  -0.42078  -0.41455  -0.40277
  Beta  occ. eigenvalues --   -0.39389  -0.38488  -0.35713  -0.35387  -0.34320
  Beta  occ. eigenvalues --   -0.34149  -0.32405  -0.31770  -0.30840  -0.30762
  Beta  occ. eigenvalues --   -0.29441  -0.28900  -0.28492  -0.28310  -0.27021
  Beta  occ. eigenvalues --   -0.25242  -0.24281  -0.23709  -0.23135  -0.22739
  Beta  occ. eigenvalues --   -0.21562  -0.20692  -0.19941  -0.14182  -0.13003
  Beta  occ. eigenvalues --   -0.12666  -0.12354  -0.11508  -0.10673
  Beta virt. eigenvalues --    0.03956   0.05982   0.06896   0.07924   0.08097
  Beta virt. eigenvalues --    0.09220   0.09817   0.10075   0.10250   0.10596
  Beta virt. eigenvalues --    0.11227   0.11625   0.11838   0.13464   0.13591

 Mulliken charges and spin densities:
               1          2
     1  C    0.044036   0.021776
     2  C   -0.392130   0.034077
     3  C   -0.396036   0.043033
     4  C    0.353596   0.041248
     5  C    0.237171   0.041835
     6  C    0.082868   0.014209
     7  C   -0.820519   0.073567
     8  C    0.472124   0.073422
     9  C    0.229146   0.052258
    10  C   -0.693631   0.064156
    11  C    0.069011   0.011988
    12  C   -0.650239   0.032696
    13  C    0.194125   0.051580
    14  C    0.167814   0.009796
    15  O   -0.363116   0.230282
    16  O   -0.362938   0.218415
    17  H    0.158999  -0.000957
    18  H    0.168717  -0.000745
    19  H    0.155211  -0.001506
    20  H    0.179549  -0.001549
    21  H    0.162844  -0.003917
    22  H    0.124229  -0.003567
    23  O   -0.025957   0.000574
    24  C    0.075075   0.000171
    25  C   -0.539485   0.000583
    26  O   -0.245440  -0.000673
    27  H    0.125298  -0.003007
    28  H    0.168719   0.000163
    29  H    0.163300   0.000144
    30  H    0.157658  -0.000052
 Sum of Mulliken charges =  -1.00000   1.00000

 Dipole moment (field-independent basis, Debye):
    X=              1.6606    Y=             -9.3479    Z=             -1.4273  Tot=              9.6009
 Quadrupole moment (field-independent basis, Debye-Ang):
   XX=           -133.8325   YY=           -163.2718   ZZ=           -126.4422
   XY=              5.8710   XZ=             -9.2804   YZ=             -2.3308

  Exact polarizability: 383.486  -0.256 233.965  -8.828   3.486 118.130
 Approx polarizability: 522.560  -2.347 447.086 -17.568   4.069 192.435

                      1                      2                      3
                      A                      A                      A
 Frequencies --     22.3572                36.5918                44.3530
 Red. masses --      7.7180                 1.8484                 2.8789
 Frc consts  --      0.0023                 0.0015                 0.0033
 IR Inten    --      0.7089                 3.0646                 2.2955

                      4                      5                      6
                      A                      A                      A
 Frequencies --     72.9964                75.7256               122.7915
 Red. masses --      4.1603                 2.5721                 4.2572
 Frc consts  --      0.0131                 0.0087                 0.0378
 IR Inten    --      1.4419                 2.4952                 0.5308

                      7                      8                      9
                      A                      A                      A
 Frequencies --    148.9304               163.5562               198.6181
 Red. masses --      5.7445                 8.9880                 6.8859
 Frc consts  --      0.0751                 0.1417                 0.1600
 IR Inten    --      1.8348                 5.2368                 2.6848

                     10                     11                     12
                      A                      A                      A
 Frequencies --    214.2675               255.5351               287.0468
 Red. masses --      6.1479                 5.0581                 6.7508
 Frc consts  --      0.1663                 0.1946                 0.3277
 IR Inten    --      0.5129                 2.3749                 1.0436

                     13                     14                     15
                      A                      A                      A
 Frequencies --    323.1804               378.4285               396.1185
 Red. masses --      5.8477                10.5559                 5.9935
 Frc consts  --      0.3599                 0.8907                 0.5541
 IR Inten    --      1.8325                 4.4655                 2.8330

                     16                     17                     18
                      A                      A                      A
 Frequencies --    401.5135               420.3069               443.0704
 Red. masses --      5.6943                 3.8865                 5.1519
 Frc consts  --      0.5409                 0.4045                 0.5959
 IR Inten    --      6.3396                 1.2265                 1.9203

                     19                     20                     21
                      A                      A                      A
 Frequencies --    453.3988               468.9501               491.9464
 Red. masses --      5.8534                 3.1730                10.9965
 Frc consts  --      0.7089                 0.4111                 1.5680
 IR Inten    --      2.7026                 0.0618                 1.2341

                     22                     23                     24
                      A                      A                      A
 Frequencies --    538.6205               563.4752               602.2003
 Red. masses --      4.6791                 5.2029                 2.8696
 Frc consts  --      0.7998                 0.9733                 0.6131
 IR Inten    --      7.1833                11.8682                 4.5328

                     25                     26                     27
                      A                      A                      A
 Frequencies --    637.0688               645.3155               655.8913
 Red. masses --      5.7734                 5.2355                 5.2295
 Frc consts  --      1.3806                 1.2845                 1.3255
 IR Inten    --      4.7496                 3.8270                 9.6357

                     28                     29                     30
                      A                      A                      A
 Frequencies --    689.8998               698.8937               708.1733
 Red. masses --      4.5365                 6.2121                 2.8223
 Frc consts  --      1.2722                 1.7878                 0.8339
 IR Inten    --     16.2959                 1.5881                48.4645

                     31                     32                     33
                      A                      A                      A
 Frequencies --    727.2987               763.8214               781.2371
 Red. masses --      4.6847                 3.3313                 2.1099
 Frc consts  --      1.4600                 1.1451                 0.7587
 IR Inten    --      0.5475                 7.7816                11.4917

                     34                     35                     36
                      A                      A                      A
 Frequencies --    794.4714               820.7846               851.2402
 Red. masses --      2.4904                 2.3053                 5.3080
 Frc consts  --      0.9261                 0.9150                 2.2661
 IR Inten    --      8.7366                11.5208                27.3047

                     37                     38                     39
                      A                      A                      A
 Frequencies --    870.9735               911.0272               936.2543
 Red. masses --      1.5258                 2.5936                 4.7337
 Frc consts  --      0.6820                 1.2683                 2.4448
 IR Inten    --      0.1455                11.2495                33.9363

                     40                     41                     42
                      A                      A                      A
 Frequencies --    942.0950               979.7327               984.3295
 Red. masses --      2.6879                 1.3207                 1.3655
 Frc consts  --      1.4055                 0.7469                 0.7795
 IR Inten    --     17.9804                 1.2969                 5.1600

                     43                     44                     45
                      A                      A                      A
 Frequencies --    985.1417               991.6800              1023.8810
 Red. masses --      1.2709                 3.2604                 1.7285
 Frc consts  --      0.7267                 1.8891                 1.0676
 IR Inten    --      0.2228                 5.4138               112.3231

                     46                     47                     48
                      A                      A                      A
 Frequencies --   1037.6321              1060.3390              1106.0442
 Red. masses --      1.9879                 1.7814                 2.4369
 Frc consts  --      1.2610                 1.1801                 1.7564
 IR Inten    --     33.4021                 5.6649                 8.8317

                     49                     50                     51
                      A                      A                      A
 Frequencies --   1112.5214              1131.4401              1149.8444
 Red. masses --      1.7843                 1.8583                 1.3756
 Frc consts  --      1.3012                 1.4016                 1.0716
 IR Inten    --      3.5983               128.2101                 4.5323

                     52                     53                     54
                      A                      A                      A
 Frequencies --   1191.1972              1204.1906              1218.3841
 Red. masses --      2.1615                 4.3908                 1.6734
 Frc consts  --      1.8071                 3.7513                 1.4636
 IR Inten    --      9.5238               109.8491                 8.9051

                     55                     56                     57
                      A                      A                      A
 Frequencies --   1225.3023              1243.8318              1256.7405
 Red. masses --      3.3005                 3.7846                 1.8966
 Frc consts  --      2.9195                 3.4498                 1.7649
 IR Inten    --     11.9772               708.3349                99.9224

                     58                     59                     60
                      A                      A                      A
 Frequencies --   1329.5375              1358.8160              1366.5181
 Red. masses --      2.4038                10.8459                 9.3627
 Frc consts  --      2.5035                11.7988                10.3011
 IR Inten    --     22.3616                14.5285                19.7919

                     61                     62                     63
                      A                      A                      A
 Frequencies --   1392.1041              1411.6059              1461.4985
 Red. masses --      1.3292                 3.2177                 2.7738
 Frc consts  --      1.5177                 3.7777                 3.4907
 IR Inten    --     86.1263               290.7229               120.4012

                     64                     65                     66
                      A                      A                      A
 Frequencies --   1473.4075              1476.9128              1478.9846
 Red. masses --      1.0513                 1.0655                 2.9942
 Frc consts  --      1.3447                 1.3693                 3.8589
 IR Inten    --     16.5610                10.0402                28.2028

                     67                     68                     69
                      A                      A                      A
 Frequencies --   1491.7211              1525.8843              1538.8352
 Red. masses --      3.0760                 5.4719                 8.8610
 Frc consts  --      4.0328                 7.5064                12.3628
 IR Inten    --     18.4158               553.3733                 7.0755

                     70                     71                     72
                      A                      A                      A
 Frequencies --   1559.9309              1615.5098              1623.5878
 Red. masses --      6.1304                 8.3035                 6.1126
 Frc consts  --      8.7893                12.7683                 9.4935
 IR Inten    --     65.5012                13.1826                16.2452

                     73                     74                     75
                      A                      A                      A
 Frequencies --   1634.9340              1796.0454              3045.4633
 Red. masses --      7.4244                11.4419                 1.0358
 Frc consts  --     11.6926                21.7461                 5.6603
 IR Inten    --     40.8545               293.5478                 9.1189

                     76                     77                     78
                      A                      A                      A
 Frequencies --   3105.9484              3134.7975              3146.6767
 Red. masses --      1.0999                 1.0847                 1.1033
 Frc consts  --      6.2515                 6.2803                 6.4364
 IR Inten    --      7.8834                17.8190                16.4202

                     79                     80                     81
                      A                      A                      A
 Frequencies --   3153.7667              3177.1282              3182.3261
 Red. masses --      1.0911                 1.0867                 1.0914
 Frc consts  --      6.3940                 6.4630                 6.5119
 IR Inten    --     51.0534                 1.4986                 9.7129

                     82                     83                     84
                      A                      A                      A
 Frequencies --   3184.8135              3192.7642              3196.1994
 Red. masses --      1.0930                 1.0944                 1.0907
 Frc consts  --      6.5317                 6.5732                 6.5647
 IR Inten    --     34.9967                14.6131                11.1310

 - Thermochemistry -
 -------------------
 Temperature   298.150 Kelvin.  Pressure   1.00000 Atm.
 Atom     1 has atomic number  6 and mass  12.00000

 Molecular mass:   266.05791 amu.
 Principal axes and moments of inertia in atomic units:
                           1         2         3
     Eigenvalues --  1985.84132********************
           X            0.99732  -0.07171  -0.01425
           Y            0.07096   0.99634  -0.04767
           Z            0.01761   0.04653   0.99876
 This molecule is an asymmetric top.
 Rotational symmetry number  1.
 Warning -- assumption of classical behavior for rotation
           may cause significant error
 Rotational temperatures (Kelvin)      0.04362     0.00852     0.00732
 Rotational constants (GHZ):           0.90880     0.17748     0.15257
 Zero-point vibrational energy     571314.8 (Joules/Mol)
                                  136.54751 (Kcal/Mol)
 Warning -- explicit consideration of  24 degrees of freedom as
           vibrations may cause significant error
 Vibrational temperatures:     32.17    52.65    63.81   105.03   108.95
          (Kelvin)            176.67   214.28   235.32   285.77   308.28
                              367.66   413.00   464.98   544.47   569.93
                              577.69   604.73   637.48   652.34   674.71
                              707.80   774.95   810.72   866.43   916.60
                              928.47   943.68   992.61  1005.55  1018.90
                             1046.42  1098.97  1124.03  1143.07  1180.93
                             1224.74  1253.14  1310.76  1347.06  1355.46
                             1409.62  1416.23  1417.40  1426.81  1473.14
                             1492.92  1525.59  1591.35  1600.67  1627.89
                             1654.37  1713.87  1732.56  1752.98  1762.94
                             1789.60  1808.17  1912.91  1955.03  1966.11
                             2002.93  2030.99  2102.77  2119.90  2124.95
                             2127.93  2146.25  2195.41  2214.04  2244.39
                             2324.36  2335.98  2352.31  2584.11  4381.74
                             4468.77  4510.27  4527.37  4537.57  4571.18
                             4578.66  4582.24  4593.68  4598.62

 Zero-point correction=                           0.217602 (Hartree/Particle)
 Thermal correction to Energy=                    0.233734
 Thermal correction to Enthalpy=                  0.234679
 Thermal correction to Gibbs Free Energy=         0.171332
 Sum of electronic and zero-point Energies=           -916.749778
 Sum of electronic and thermal Energies=              -916.733646
 Sum of electronic and thermal Enthalpies=            -916.732701
 Sum of electronic and thermal Free Energies=         -916.796048

                     E (Thermal)             CV                S
                      KCal/Mol        Cal/Mol-Kelvin    Cal/Mol-Kelvin
 Total                  146.671             62.172            133.323
 Electronic               0.000              0.000              1.377
 Translational            0.889              2.981             42.635
 Rotational               0.889              2.981             33.834
 Vibrational            144.893             56.211             55.477
 Vibration     1          0.593              1.985              6.413
 Vibration     2          0.594              1.982              5.436
 Vibration     3          0.595              1.980              5.055
 Vibration     4          0.599              1.967              4.071
 Vibration     5          0.599              1.965              3.999
 Vibration     6          0.610              1.930              3.056
 Vibration     7          0.618              1.904              2.686
 Vibration     8          0.623              1.887              2.508
 Vibration     9          0.637              1.842              2.146
 Vibration    10          0.644              1.819              2.007
 Vibration    11          0.666              1.753              1.692
 Vibration    12          0.684              1.698              1.491
 Vibration    13          0.708              1.629              1.294
 Vibration    14          0.749              1.516              1.045
 Vibration    15          0.763              1.478              0.977
 Vibration    16          0.767              1.467              0.957
 Vibration    17          0.783              1.426              0.891
 Vibration    18          0.803              1.376              0.817
 Vibration    19          0.812              1.353              0.786
 Vibration    20          0.826              1.319              0.740
 Vibration    21          0.848              1.268              0.679
 Vibration    22          0.894              1.165              0.568
 Vibration    23          0.919              1.110              0.517
 Vibration    24          0.961              1.027              0.446

                           ! Non-Optimized Parameters !
 Normal termination of Gaussian 16 at Wed Dec 27 21:31:24 2023.
