 Q-Chem 5.4, Q-Chem, Inc., Pleasanton, CA (2021)
 Q-Chem 5.4.0 for Intel X86 EM64T Linux

User input:
--------------------------------------------------------------
$molecule
-1 2
C                 -2.9696990000      3.7214940000      0.1799420000
C                 -4.2311950000      3.1641880000      0.2359650000
C                 -4.3852070000      1.7612770000      0.1785240000
C                 -1.8163530000      2.9135510000      0.0655370000
C                 -1.9719370000      1.4977160000      0.0075280000
C                 -3.2728040000      0.9514320000      0.0665370000
C                 -0.5005540000      3.5526110000      0.0097180000
C                  0.6441690000      2.6501990000     -0.1061750000
C                  0.4917070000      1.2343280000     -0.1648790000
C                 -0.8238050000      0.5949710000     -0.1120820000
C                  1.9435030000      3.2015290000     -0.1701830000
C                  3.0343770000      2.3791840000     -0.2840060000
C                  2.9092370000      0.9791850000     -0.3464570000
C                  1.6458690000      0.4294550000     -0.2839600000
O                 -0.3600380000      4.8008460000      0.0571290000
O                 -0.9597390000     -0.6517910000     -0.1679120000
H                 -3.3606160000     -0.1280070000      0.0204330000
H                  1.5020690000     -0.6438030000     -0.3265580000
H                 -2.8221970000      4.7945340000      0.2221210000
H                  2.0497520000      4.2788440000     -0.1368140000
H                  3.7910990000      0.3561880000     -0.4329640000
H                 -5.3774820000      1.3221470000      0.2228540000
O                  4.3035470000      2.9887350000     -0.4486970000
C                  5.2838880000      2.7942320000      0.4624660000
C                  6.5176580000      3.5703660000      0.0584220000
O                  5.1917850000      2.1117940000      1.4506840000
H                 -5.1055050000      3.8024130000      0.3242890000
H                  6.2919540000      4.6395870000      0.0510650000
H                  6.8225620000      3.2936090000     -0.9532170000
H                  7.3220560000      3.3670650000      0.7629220000
$end

$rem
BASIS  =  6-311++G(d,p)
GUI  =  2
JOB_TYPE  =  SP
METHOD  =  B3LYP
SCF_CONVERGENCE  = 8
SOLVENT_METHOD = sm12
$end

$smx
solvent dimethylformamide
charges CM5
$end

--------------------------------------------------------------

             Standard Nuclear Orientation (Angstroms)
    I     Atom           X                Y                Z
 ----------------------------------------------------------------
    1      C      -2.9696990000     3.7214940000     0.1799420000
    2      C      -4.2311950000     3.1641880000     0.2359650000
    3      C      -4.3852070000     1.7612770000     0.1785240000
    4      C      -1.8163530000     2.9135510000     0.0655370000
    5      C      -1.9719370000     1.4977160000     0.0075280000
    6      C      -3.2728040000     0.9514320000     0.0665370000
    7      C      -0.5005540000     3.5526110000     0.0097180000
    8      C       0.6441690000     2.6501990000    -0.1061750000
    9      C       0.4917070000     1.2343280000    -0.1648790000
   10      C      -0.8238050000     0.5949710000    -0.1120820000
   11      C       1.9435030000     3.2015290000    -0.1701830000
   12      C       3.0343770000     2.3791840000    -0.2840060000
   13      C       2.9092370000     0.9791850000    -0.3464570000
   14      C       1.6458690000     0.4294550000    -0.2839600000
   15      O      -0.3600380000     4.8008460000     0.0571290000
   16      O      -0.9597390000    -0.6517910000    -0.1679120000
   17      H      -3.3606160000    -0.1280070000     0.0204330000
   18      H       1.5020690000    -0.6438030000    -0.3265580000
   19      H      -2.8221970000     4.7945340000     0.2221210000
   20      H       2.0497520000     4.2788440000    -0.1368140000
   21      H       3.7910990000     0.3561880000    -0.4329640000
   22      H      -5.3774820000     1.3221470000     0.2228540000
   23      O       4.3035470000     2.9887350000    -0.4486970000
   24      C       5.2838880000     2.7942320000     0.4624660000
   25      C       6.5176580000     3.5703660000     0.0584220000
   26      O       5.1917850000     2.1117940000     1.4506840000
   27      H      -5.1055050000     3.8024130000     0.3242890000
   28      H       6.2919540000     4.6395870000     0.0510650000
   29      H       6.8225620000     3.2936090000    -0.9532170000
   30      H       7.3220560000     3.3670650000     0.7629220000
 ----------------------------------------------------------------

   16    -916.9622100193      9.69e-09  Convergence criterion met
 Total energy in the final basis set =     -917.0521880785

                    Orbital Energies (a.u.)
 --------------------------------------------------------------

 Alpha MOs
 -- Occupied --
-19.1841 -19.1209 -19.0794 -19.0788 -10.3140 -10.2446 -10.2292 -10.2276
-10.1872 -10.1843 -10.1839 -10.1830 -10.1824 -10.1818 -10.1811 -10.1810
-10.1806 -10.1793 -10.1791 -10.1776  -1.1220  -1.0378  -1.0062  -1.0037
 -0.8720  -0.8619  -0.7991  -0.7735  -0.7594  -0.7580  -0.7376  -0.6791
 -0.6563  -0.6391  -0.6043  -0.5941  -0.5651  -0.5421  -0.5194  -0.4980
 -0.4937  -0.4896  -0.4778  -0.4678  -0.4603  -0.4415  -0.4337  -0.4304
 -0.4276  -0.4197  -0.4141  -0.4132  -0.4056  -0.3913  -0.3859  -0.3834
 -0.3731  -0.3631  -0.3592  -0.3463  -0.3423  -0.3275  -0.2920  -0.2729
 -0.2675  -0.2634  -0.2551  -0.2489  -0.2403  -0.1470

 Beta MOs
 -- Occupied --
-19.1841 -19.1209 -19.0736 -19.0727 -10.3140 -10.2441 -10.2279 -10.2261
-10.1867 -10.1840 -10.1833 -10.1825 -10.1819 -10.1818 -10.1803 -10.1801
-10.1798 -10.1793 -10.1790 -10.1776  -1.1219  -1.0378  -0.9962  -0.9932
 -0.8696  -0.8605  -0.7956  -0.7720  -0.7571  -0.7566  -0.7363  -0.6728
 -0.6546  -0.6369  -0.6033  -0.5925  -0.5627  -0.5404  -0.5178  -0.4976
 -0.4932  -0.4888  -0.4753  -0.4665  -0.4599  -0.4411  -0.4331  -0.4278
 -0.4190  -0.4177  -0.4112  -0.4089  -0.4025  -0.3898  -0.3853  -0.3705
 -0.3621  -0.3599  -0.3579  -0.3428  -0.3360  -0.3234  -0.2917  -0.2644
 -0.2541  -0.2514  -0.2481  -0.2435  -0.2348

          Ground-State Mulliken Net Atomic Charges

     Atom                 Charge (a.u.)    Spin (a.u.)
  --------------------------------------------------------
      1 C                    -0.032508       0.031238
      2 C                     0.925424       0.032304
      3 C                     0.920524       0.042917
      4 C                    -0.790950       0.035994
      5 C                    -0.989961       0.038496
      6 C                     0.063422       0.021668
      7 C                    -1.823923       0.079664
      8 C                    -0.982229       0.062091
      9 C                    -1.145131       0.039111
     10 C                    -1.941312       0.067943
     11 C                     0.258746       0.024704
     12 C                     1.088111       0.030412
     13 C                     1.534973       0.044816
     14 C                     0.336019       0.019708
     15 O                    -0.305568       0.229316
     16 O                    -0.300240       0.215351
     17 H                     0.161390      -0.001199
     18 H                     0.194243      -0.001103
     19 H                     0.154856      -0.001892
     20 H                     0.187299      -0.002140
     21 H                     0.318158      -0.003286
     22 H                     0.357774      -0.003316
     23 O                     0.090876       0.000805
     24 C                    -0.154794      -0.000471
     25 C                     0.130693       0.000143
     26 O                    -0.326223      -0.000665
     27 H                     0.356327      -0.002683
     28 H                     0.231888       0.000030
     29 H                     0.246368       0.000080
     30 H                     0.235746      -0.000036
  --------------------------------------------------------
  Sum of atomic charges =    -1.000000

                    Cartesian Multipole Moments
 -----------------------------------------------------------------
    Charge (ESU x 10^10)
                -4.8032
    Dipole Moment (Debye)
         X       2.7309      Y      -9.0093      Z      -1.4885
       Tot       9.5311
    Quadrupole Moments (Debye-Ang)
        XX    -117.6233     XY       9.7520     YY    -161.9217
        XZ     -10.2707     YZ      -2.4110     ZZ    -126.7676

 Total job time:  812.71s(wall), 6028.03s(cpu)
        *  Thank you very much for using Q-Chem.  Have a nice day.  *
