 Gaussian 16, Revision A.03,
 Gaussian 16:  ES64L-G16RevA.03 25-Dec-2016

 ----------------------------------------------------------------
 #P UB3LYP/6-311++G(d,p) SCRF=(PCM,Solvent=n,n-DiMethylFormamide)
 ----------------------------------------------------------------

 -------
 Reduced
 -------
 Symbolic Z-matrix:
 Charge = -2 Multiplicity = 1

                         Standard orientation:
 ---------------------------------------------------------------------
 Center     Atomic      Atomic             Coordinates (Angstroms)
 Number     Number       Type             X           Y           Z
 ---------------------------------------------------------------------
      1          6           0        3.145910   -1.925461    0.003510
      2          6           0        4.509347   -1.701736   -0.004057
      3          6           0        5.005821   -0.373615   -0.010551
      4          6           0        2.209366   -0.862524    0.003560
      5          6           0        2.715525    0.479056   -0.004249
      6          6           0        4.114849    0.682775   -0.010102
      7          6           0        0.782117   -1.184729    0.015161
      8          6           0       -0.113749   -0.058126    0.005419
      9          6           0        0.412250    1.300496    0.001333
     10          6           0        1.821307    1.627043   -0.003596
     11          6           0       -1.568190   -0.224457   -0.001055
     12          6           0       -2.430349    0.927522    0.010238
     13          6           0       -0.490534    2.391260    0.006976
     14          6           0       -1.850546    2.237192    0.015765
     15          8           0        0.418710   -2.418718    0.030431
     16          8           0        2.269157    2.825052   -0.007591
     17          1           0        2.733749   -2.929086    0.010127
     18          1           0        5.201360   -2.542227   -0.004842
     19          1           0        6.078656   -0.189796   -0.015507
     20          1           0       -2.510970    3.102321    0.032790
     21          1           0        4.454588    1.713750   -0.014779
     22          1           0       -0.037815    3.378068    0.008086
     23          6           0       -3.834542    0.762484   -0.005087
     24          6           0       -4.411756   -0.498414   -0.015219
     25          6           0       -3.597725   -1.628702   -0.012734
     26          6           0       -2.209284   -1.490732   -0.015483
     27          8           0       -5.799252   -0.673417   -0.028874
     28          1           0       -4.466120    1.650134   -0.036553
     29          1           0       -4.056006   -2.613282   -0.005585
     30          1           0       -1.562000   -2.357609   -0.021740
     31          1           0       -6.203265    0.168409    0.217305
 ---------------------------------------------------------------------

 SCF Done:  E(UB3LYP) =  -918.121030486     A.U. after   18 cycles

 The electronic state is 1-A.
 Alpha  occ. eigenvalues --  -19.14548 -19.02379 -19.01824 -10.21837 -10.17871
 Alpha  occ. eigenvalues --  -10.17503 -10.16704 -10.16025 -10.15583 -10.15336
 Alpha  occ. eigenvalues --  -10.15271 -10.15206 -10.14848 -10.14649 -10.14649
 Alpha  occ. eigenvalues --  -10.14494 -10.14376 -10.14026 -10.13921 -10.13741
 Alpha  occ. eigenvalues --  -10.13174  -1.04682  -0.94532  -0.93891  -0.84724
 Alpha  occ. eigenvalues --   -0.82797  -0.79636  -0.75686  -0.73432  -0.72435
 Alpha  occ. eigenvalues --   -0.72048  -0.69173  -0.64199  -0.61137  -0.61020
 Alpha  occ. eigenvalues --   -0.58535  -0.56885  -0.53851  -0.52739  -0.50924
 Alpha  occ. eigenvalues --   -0.49008  -0.47571  -0.45108  -0.43925  -0.43329
 Alpha  occ. eigenvalues --   -0.42802  -0.41215  -0.40422  -0.40359  -0.39568
 Alpha  occ. eigenvalues --   -0.38464  -0.37850  -0.37646  -0.36976  -0.36544
 Alpha  occ. eigenvalues --   -0.35185  -0.34775  -0.33605  -0.32949  -0.31696
 Alpha  occ. eigenvalues --   -0.31610  -0.31415  -0.30150  -0.28530  -0.25056
 Alpha  occ. eigenvalues --   -0.23187  -0.22543  -0.21952  -0.20295  -0.19252
 Alpha  occ. eigenvalues --   -0.19111  -0.10927
 Alpha virt. eigenvalues --   -0.03002  -0.01340  -0.00145   0.00359   0.00959
 Alpha virt. eigenvalues --    0.01230   0.01623   0.02259   0.02303   0.03327
 Alpha virt. eigenvalues --    0.03873   0.04612   0.05133   0.05615   0.05966

  Beta  occ. eigenvalues --  -19.14548 -19.02379 -19.01824 -10.21837 -10.17871
  Beta  occ. eigenvalues --  -10.17503 -10.16704 -10.16025 -10.15583 -10.15336
  Beta  occ. eigenvalues --  -10.15271 -10.15206 -10.14848 -10.14649 -10.14649
  Beta  occ. eigenvalues --  -10.14494 -10.14376 -10.14026 -10.13921 -10.13741
  Beta  occ. eigenvalues --  -10.13174  -1.04682  -0.94532  -0.93891  -0.84724
  Beta  occ. eigenvalues --   -0.82797  -0.79636  -0.75686  -0.73432  -0.72435
  Beta  occ. eigenvalues --   -0.72048  -0.69173  -0.64199  -0.61137  -0.61020
  Beta  occ. eigenvalues --   -0.58535  -0.56885  -0.53851  -0.52739  -0.50924
  Beta  occ. eigenvalues --   -0.49008  -0.47571  -0.45108  -0.43925  -0.43329
  Beta  occ. eigenvalues --   -0.42802  -0.41215  -0.40422  -0.40359  -0.39568
  Beta  occ. eigenvalues --   -0.38464  -0.37850  -0.37646  -0.36976  -0.36544
  Beta  occ. eigenvalues --   -0.35185  -0.34775  -0.33605  -0.32949  -0.31696
  Beta  occ. eigenvalues --   -0.31610  -0.31415  -0.30150  -0.28530  -0.25056
  Beta  occ. eigenvalues --   -0.23187  -0.22543  -0.21952  -0.20295  -0.19252
  Beta  occ. eigenvalues --   -0.19111  -0.10927
  Beta virt. eigenvalues --   -0.03002  -0.01340  -0.00145   0.00359   0.00959
  Beta virt. eigenvalues --    0.01230   0.01623   0.02259   0.02303   0.03327
  Beta virt. eigenvalues --    0.03873   0.04612   0.05133   0.05615   0.05966

 Mulliken charges and spin densities:
               1          2
     1  C   -0.039224  -0.000000
     2  C   -0.515930   0.000000
     3  C   -0.506355  -0.000000
     4  C    0.243846   0.000000
     5  C    0.224855   0.000000
     6  C   -0.088330   0.000000
     7  C   -0.556075   0.000000
     8  C    0.518108  -0.000000
     9  C    0.609446  -0.000000
    10  C   -0.779861   0.000000
    11  C    0.776789  -0.000000
    12  C    0.437757  -0.000000
    13  C   -0.250983   0.000000
    14  C   -0.494641   0.000000
    15  O   -0.601433  -0.000000
    16  O   -0.620798  -0.000000
    17  H    0.144186   0.000000
    18  H    0.161086   0.000000
    19  H    0.160283  -0.000000
    20  H    0.140430   0.000000
    21  H    0.144831   0.000000
    22  H    0.144769  -0.000000
    23  C   -0.311807   0.000000
    24  C   -0.478168  -0.000000
    25  C   -0.415407  -0.000000
    26  C   -0.502974   0.000000
    27  O   -0.321498  -0.000000
    28  H    0.130030   0.000000
    29  H    0.190357  -0.000000
    30  H    0.161918   0.000000
    31  H    0.294795  -0.000000
 Sum of Mulliken charges =  -2.00000  -0.00000

 Dipole moment (field-independent basis, Debye):
    X=             -8.2552    Y=              0.1417    Z=              0.3952  Tot=              8.2659
 Quadrupole moment (field-independent basis, Debye-Ang):
   XX=           -174.2758   YY=           -175.2258   ZZ=           -135.6524
   XY=            -26.9738   XZ=             -3.0199   YZ=              0.4340

 Normal termination of Gaussian 16 at Tue Jan 16 06:29:17 2024.
