 Gaussian 16, Revision A.03,
 Gaussian 16:  ES64L-G16RevA.03 25-Dec-2016

 ----------------------------------------------------------------
 #P UB3LYP/6-311++G(d,p) SCRF=(PCM,Solvent=n,n-DiMethylFormamide)
 ----------------------------------------------------------------

 -------
 Reduced
 -------
 Symbolic Z-matrix:
 Charge = -2 Multiplicity = 1

                         Standard orientation:
 ---------------------------------------------------------------------
 Center     Atomic      Atomic             Coordinates (Angstroms)
 Number     Number       Type             X           Y           Z
 ---------------------------------------------------------------------
      1         17           0        1.588311    2.314587   -0.158801
      2          6           0        0.691857    0.763869    0.109838
      3          6           0        1.383847   -0.456942   -0.012942
      4         17           0        3.155564   -0.488068    0.330876
      5          6           0        0.766522   -1.727146   -0.216512
      6          8           0        1.386098   -2.816309   -0.275989
      7          6           0       -0.766606   -1.727146   -0.216343
      8          8           0       -1.386176   -2.816301   -0.275768
      9          6           0       -1.383843   -0.456915   -0.012851
     10          6           0       -0.691826    0.763888    0.109860
     11         17           0       -1.588253    2.314601   -0.158984
     12         17           0       -3.155567   -0.487989    0.330895
 ---------------------------------------------------------------------

 SCF Done:  E(UB3LYP) =  -2220.33032017     A.U. after   17 cycles

 The electronic state is 1-A.
 Alpha  occ. eigenvalues -- -101.54179-101.54179-101.53125-101.53124 -19.04492
 Alpha  occ. eigenvalues --  -19.04491 -10.21731 -10.21674 -10.20458 -10.20436
 Alpha  occ. eigenvalues --  -10.19534 -10.19533  -9.45588  -9.45586  -9.44538
 Alpha  occ. eigenvalues --   -9.44537  -7.22036  -7.22036  -7.21089  -7.21089
 Alpha  occ. eigenvalues --   -7.21046  -7.21046  -7.20952  -7.20952  -7.20061
 Alpha  occ. eigenvalues --   -7.20061  -7.20014  -7.20014  -0.98576  -0.95731
 Alpha  occ. eigenvalues --   -0.88511  -0.84586  -0.82581  -0.81308  -0.77049
 Alpha  occ. eigenvalues --   -0.67658  -0.66606  -0.55289  -0.55264  -0.48578
 Alpha  occ. eigenvalues --   -0.45914  -0.42348  -0.41327  -0.40165  -0.39294
 Alpha  occ. eigenvalues --   -0.37785  -0.37196  -0.36022  -0.35477  -0.32532
 Alpha  occ. eigenvalues --   -0.32154  -0.31384  -0.30875  -0.29751  -0.29620
 Alpha  occ. eigenvalues --   -0.28338  -0.26883  -0.23411  -0.20573  -0.19614
 Alpha  occ. eigenvalues --   -0.14994
 Alpha virt. eigenvalues --   -0.03424   0.00509   0.01652   0.02449   0.02832
 Alpha virt. eigenvalues --    0.03187   0.03900   0.04437   0.04914   0.05445
 Alpha virt. eigenvalues --    0.06570   0.07032   0.07404   0.07889   0.08789

  Beta  occ. eigenvalues -- -101.54179-101.54179-101.53125-101.53124 -19.04492
  Beta  occ. eigenvalues --  -19.04491 -10.21731 -10.21674 -10.20458 -10.20436
  Beta  occ. eigenvalues --  -10.19534 -10.19533  -9.45588  -9.45586  -9.44538
  Beta  occ. eigenvalues --   -9.44537  -7.22036  -7.22036  -7.21089  -7.21089
  Beta  occ. eigenvalues --   -7.21046  -7.21046  -7.20952  -7.20952  -7.20061
  Beta  occ. eigenvalues --   -7.20061  -7.20014  -7.20014  -0.98576  -0.95731
  Beta  occ. eigenvalues --   -0.88511  -0.84586  -0.82581  -0.81308  -0.77049
  Beta  occ. eigenvalues --   -0.67658  -0.66606  -0.55289  -0.55264  -0.48578
  Beta  occ. eigenvalues --   -0.45914  -0.42348  -0.41327  -0.40165  -0.39294
  Beta  occ. eigenvalues --   -0.37785  -0.37196  -0.36022  -0.35477  -0.32532
  Beta  occ. eigenvalues --   -0.32154  -0.31384  -0.30875  -0.29751  -0.29620
  Beta  occ. eigenvalues --   -0.28338  -0.26883  -0.23411  -0.20573  -0.19614
  Beta  occ. eigenvalues --   -0.14994
  Beta virt. eigenvalues --   -0.03424   0.00509   0.01652   0.02449   0.02832
  Beta virt. eigenvalues --    0.03187   0.03900   0.04437   0.04914   0.05445
  Beta virt. eigenvalues --    0.06570   0.07032   0.07404   0.07889   0.08789

 Mulliken charges and spin densities:
               1          2
     1  Cl   0.389252  -0.000000
     2  C   -0.494340   0.000000
     3  C    0.395449   0.000000
     4  Cl   0.141009  -0.000000
     5  C   -0.878559  -0.000000
     6  O   -0.552667   0.000000
     7  C   -0.878505   0.000000
     8  O   -0.552681  -0.000000
     9  C    0.395195  -0.000000
    10  C   -0.494336   0.000000
    11  Cl   0.389161   0.000000
    12  Cl   0.141021  -0.000000
 Sum of Mulliken charges =  -2.00000   0.00000

 Dipole moment (field-independent basis, Debye):
    X=              0.0003    Y=             12.5756    Z=              0.9754  Tot=             12.6134
 Quadrupole moment (field-independent basis, Debye-Ang):
   XX=           -141.0669   YY=           -160.7827   ZZ=           -103.7164
   XY=             -0.0005   XZ=              0.0011   YZ=             -4.3184

 Normal termination of Gaussian 16 at Sat Jan 13 19:16:37 2024.
