 Gaussian 16, Revision A.03,
 Gaussian 16:  ES64L-G16RevA.03 25-Dec-2016

 ----------------------------------------------------------------
 #P UB3LYP/6-311++G(d,p) SCRF=(PCM,Solvent=n,n-DiMethylFormamide)
 ----------------------------------------------------------------

 ------------------
 Radical PCM in DMF
 ------------------
 Symbolic Z-matrix:
 Charge = -1 Multiplicity = 2

                         Standard orientation:
 ---------------------------------------------------------------------
 Center     Atomic      Atomic             Coordinates (Angstroms)
 Number     Number       Type             X           Y           Z
 ---------------------------------------------------------------------
      1          6           0       -4.215054    0.112059    0.000424
      2          6           0       -2.729833   -0.168217    0.000049
      3          6           0       -2.256219   -1.501006   -0.000040
      4          6           0       -0.900972   -1.770632   -0.000192
      5          6           0        0.050606   -0.730863   -0.000179
      6          6           0        1.486832   -1.052394   -0.000135
      7          8           0        1.900798   -2.245339   -0.000188
      8          6           0        2.394410    0.074623    0.000068
      9          6           0        1.926150    1.374157   -0.000019
     10          6           0        0.535969    1.737781   -0.000166
     11          8           0        0.145097    2.937679   -0.000206
     12          6           0       -0.412995    0.610128   -0.000189
     13          6           0       -1.800180    0.858790   -0.000113
     14          6           0        3.869272   -0.229735    0.000479
     15          1           0       -4.706901   -0.319255   -0.879979
     16          1           0       -4.412106    1.186962   -0.000937
     17          1           0       -4.705926   -0.316769    0.882600
     18          1           0       -2.970326   -2.321614   -0.000073
     19          1           0       -0.528703   -2.789117   -0.000315
     20          1           0        2.629833    2.203656    0.000196
     21          1           0       -2.114676    1.897620   -0.000112
     22          1           0        4.146606   -0.830112   -0.873010
     23          1           0        4.146451   -0.828574    0.875092
     24          1           0        4.460681    0.690347   -0.000231
 ---------------------------------------------------------------------

 SCF Done:  E(UB3LYP) =  -614.066686374     A.U. after   19 cycles

 The electronic state is 2-A.
 Alpha  occ. eigenvalues --  -19.07304 -19.07272 -10.21748 -10.21602 -10.17969
 Alpha  occ. eigenvalues --  -10.16914 -10.16885 -10.16832 -10.16777 -10.16724
 Alpha  occ. eigenvalues --  -10.16385 -10.16321 -10.15609 -10.15529  -0.99682
 Alpha  occ. eigenvalues --   -0.99428  -0.85740  -0.81063  -0.76833  -0.74810
 Alpha  occ. eigenvalues --   -0.70409  -0.68937  -0.64324  -0.61384  -0.58023
 Alpha  occ. eigenvalues --   -0.54955  -0.50530  -0.48372  -0.46773  -0.43664
 Alpha  occ. eigenvalues --   -0.42656  -0.42460  -0.42185  -0.41614  -0.40931
 Alpha  occ. eigenvalues --   -0.39119  -0.38772  -0.38260  -0.37421  -0.36921
 Alpha  occ. eigenvalues --   -0.36576  -0.34243  -0.33695  -0.33196  -0.26835
 Alpha  occ. eigenvalues --   -0.25287  -0.24173  -0.23884  -0.23380  -0.14912
 Alpha virt. eigenvalues --   -0.02936  -0.01253  -0.00347   0.00451   0.01415
 Alpha virt. eigenvalues --    0.02280   0.02813   0.03268   0.04382   0.04388
 Alpha virt. eigenvalues --    0.04707   0.04956   0.05477   0.06527   0.06807

  Beta  occ. eigenvalues --  -19.06691 -19.06660 -10.21589 -10.21424 -10.17927
  Beta  occ. eigenvalues --  -10.16827 -10.16812 -10.16749 -10.16735 -10.16705
  Beta  occ. eigenvalues --  -10.16379 -10.16325 -10.15622 -10.15411  -0.98609
  Beta  occ. eigenvalues --   -0.98332  -0.85562  -0.80561  -0.76700  -0.74603
  Beta  occ. eigenvalues --   -0.70233  -0.68487  -0.63747  -0.61185  -0.57828
  Beta  occ. eigenvalues --   -0.54623  -0.50335  -0.48119  -0.46516  -0.43558
  Beta  occ. eigenvalues --   -0.42253  -0.42074  -0.41974  -0.41256  -0.40384
  Beta  occ. eigenvalues --   -0.38539  -0.38219  -0.38199  -0.37276  -0.36415
  Beta  occ. eigenvalues --   -0.34567  -0.34085  -0.33071  -0.32650  -0.24681
  Beta  occ. eigenvalues --   -0.24138  -0.23602  -0.23309  -0.22822
  Beta virt. eigenvalues --   -0.08275  -0.02188  -0.00332  -0.00212   0.00457
  Beta virt. eigenvalues --    0.01426   0.02293   0.02822   0.03399   0.04405
  Beta virt. eigenvalues --    0.04485   0.04712   0.05486   0.06288   0.06544

 Mulliken charges and spin densities:
               1          2
     1  C   -0.410008  -0.001916
     2  C    0.435917   0.029897
     3  C   -0.413315   0.015735
     4  C    0.061295   0.028824
     5  C   -0.146443  -0.016984
     6  C   -0.498194   0.126062
     7  O   -0.483358   0.227647
     8  C    0.702925   0.112521
     9  C   -0.414476   0.083340
    10  C   -0.774288   0.091913
    11  O   -0.498580   0.219525
    12  C    0.390753   0.062115
    13  C   -0.268717   0.014420
    14  C   -0.268096   0.006940
    15  H    0.160069   0.001867
    16  H    0.166612   0.000070
    17  H    0.160220   0.001870
    18  H    0.178358  -0.001670
    19  H    0.163275  -0.002500
    20  H    0.145398  -0.009276
    21  H    0.129156  -0.002691
    22  H    0.164194   0.006230
    23  H    0.164228   0.006248
    24  H    0.153072  -0.000187
 Sum of Mulliken charges =  -1.00000   1.00000

 Dipole moment (field-independent basis, Debye):
    X=             -4.8229    Y=             -1.9814    Z=              0.0017  Tot=              5.2140
 Quadrupole moment (field-independent basis, Debye-Ang):
   XX=            -86.9190   YY=           -120.8614   ZZ=            -87.9760
   XY=             10.7472   XZ=              0.0007   YZ=              0.0012

 Normal termination of Gaussian 16 at Sun Jan 21 08:19:28 2024.
