 Q-Chem 5.4, Q-Chem, Inc., Pleasanton, CA (2021)
 Q-Chem 5.4.0 for Intel X86 EM64T Linux

User input:
--------------------------------------------------------------
$molecule
-2 1
C                 -1.7295550000      4.5819700000      5.3847550000
C                 -3.0427970000      4.1653070000      5.4742140000
C                 -3.6014240000      3.3648020000      4.4491340000
C                 -0.9156230000      4.2202700000      4.2822780000
C                 -1.4792060000      3.4056260000      3.2412040000
C                 -2.8238550000      3.0048800000      3.3600030000
C                  0.4414480000      4.6686820000      4.1847020000
C                  1.1650010000      4.2155970000      3.0398340000
C                  0.6801330000      3.3724060000      2.0322150000
C                 -0.7099140000      2.9902720000      2.0580300000
O                  1.0553600000      5.4382890000      5.0259270000
O                 -1.2937020000      2.3421120000      1.1204690000
O                  2.4457050000      4.7036260000      2.9977220000
H                 -1.2794090000      5.2004270000      6.1543610000
H                 -3.6490380000      4.4528830000      6.3303210000
H                 -4.6351360000      3.0354010000      4.5163520000
H                 -3.2259060000      2.3974460000      2.5562850000
H                  2.4567710000      5.2370310000      3.8309360000
C                  2.9382850000      2.3551810000      1.2952600000
C                  3.0399110000      1.5793940000      2.4513640000
C                  4.0617510000      2.4556600000      0.4668560000
C                  5.2502780000      1.7981720000      0.7771330000
C                  5.3379800000      1.0217160000      1.9340030000
C                  4.2262010000      0.9182270000      2.7691830000
H                  2.1815770000      1.5125810000      3.1100050000
H                  3.9909230000      3.0542460000     -0.4360380000
H                  6.1099580000      1.8936730000      0.1196000000
H                  4.2832170000      0.3252090000      3.6771970000
H                  6.2632070000      0.5108630000      2.1839770000
C                  1.6420040000      3.0575840000      0.8754540000
H                  1.9679990000      4.0327780000      0.4869510000
N                  1.0660780000      2.3487340000     -0.3027040000
C                  0.9651370000      0.8875260000     -0.1856130000
C                  0.2332920000      0.3221810000     -1.4044240000
C                  0.1488380000     -1.2085710000     -1.4066580000
C                 -0.5547690000     -1.7840930000     -2.6423710000
C                 -0.6186330000     -3.3164500000     -2.6673990000
C                 -1.2957870000     -3.8897300000     -3.9187160000
C                 -1.3411610000     -5.4224320000     -3.9558820000
C                 -1.9986670000     -5.9942320000     -5.2181960000
C                 -2.0313840000     -7.5271990000     -5.2608030000
C                 -2.6776200000     -8.0979150000     -6.5292670000
C                 -2.7029210000     -9.6311720000     -6.5731580000
C                 -3.3447550000    -10.1991910000     -7.8423460000
H                  0.0949400000      2.6612910000     -0.3338000000
H                  0.4233030000      0.5844910000      0.7221610000
H                  1.9723430000      0.4601880000     -0.1402630000
H                  0.7445780000      0.6668550000     -2.3128050000
H                 -0.7787600000      0.7436690000     -1.4280780000
H                 -0.3757240000     -1.5436040000     -0.5029000000
H                  1.1624000000     -1.6286210000     -1.3447750000
H                 -0.0387750000     -1.4321380000     -3.5461270000
H                 -1.5732850000     -1.3782010000     -2.6984560000
H                 -1.1491380000     -3.6708460000     -1.7738230000
H                  0.4001910000     -3.7202100000     -2.5935650000
H                 -0.7700080000     -3.5243820000     -4.8111140000
H                 -2.3183890000     -3.4959760000     -3.9888430000
H                 -1.8771710000     -5.7899190000     -3.0708270000
H                 -0.3186650000     -5.8147070000     -3.8740160000
H                 -1.4655390000     -5.6211120000     -6.1027830000
H                 -3.0235710000     -5.6085850000     -5.2989080000
H                 -2.5704060000     -7.9019250000     -4.3805800000
H                 -1.0065210000     -7.9120630000     -5.1742850000
H                 -2.1409380000     -7.7224580000     -7.4104170000
H                 -3.7041230000     -7.7185360000     -6.6169100000
H                 -3.2407220000    -10.0081190000     -5.6938700000
H                 -1.6770170000    -10.0108730000     -6.4841420000
H                 -4.3861990000     -9.8734040000     -7.9446050000
H                 -3.3447440000    -11.2946100000     -7.8393780000
H                 -2.8072770000     -9.8761950000     -8.7412670000
$end

$rem
BASIS  =  6-311++G(d,p)
GUI  =  2
JOB_TYPE  =  SP
METHOD  =  B3LYP
SCF_CONVERGENCE  = 8
SOLVENT_METHOD = sm12
$end

$smx
solvent dimethylformamide
charges CM5
$end

--------------------------------------------------------------

             Standard Nuclear Orientation (Angstroms)
    I     Atom           X                Y                Z
 ----------------------------------------------------------------
    1      C      -1.7295550000     4.5819700000     5.3847550000
    2      C      -3.0427970000     4.1653070000     5.4742140000
    3      C      -3.6014240000     3.3648020000     4.4491340000
    4      C      -0.9156230000     4.2202700000     4.2822780000
    5      C      -1.4792060000     3.4056260000     3.2412040000
    6      C      -2.8238550000     3.0048800000     3.3600030000
    7      C       0.4414480000     4.6686820000     4.1847020000
    8      C       1.1650010000     4.2155970000     3.0398340000
    9      C       0.6801330000     3.3724060000     2.0322150000
   10      C      -0.7099140000     2.9902720000     2.0580300000
   11      O       1.0553600000     5.4382890000     5.0259270000
   12      O      -1.2937020000     2.3421120000     1.1204690000
   13      O       2.4457050000     4.7036260000     2.9977220000
   14      H      -1.2794090000     5.2004270000     6.1543610000
   15      H      -3.6490380000     4.4528830000     6.3303210000
   16      H      -4.6351360000     3.0354010000     4.5163520000
   17      H      -3.2259060000     2.3974460000     2.5562850000
   18      H       2.4567710000     5.2370310000     3.8309360000
   19      C       2.9382850000     2.3551810000     1.2952600000
   20      C       3.0399110000     1.5793940000     2.4513640000
   21      C       4.0617510000     2.4556600000     0.4668560000
   22      C       5.2502780000     1.7981720000     0.7771330000
   23      C       5.3379800000     1.0217160000     1.9340030000
   24      C       4.2262010000     0.9182270000     2.7691830000
   25      H       2.1815770000     1.5125810000     3.1100050000
   26      H       3.9909230000     3.0542460000    -0.4360380000
   27      H       6.1099580000     1.8936730000     0.1196000000
   28      H       4.2832170000     0.3252090000     3.6771970000
   29      H       6.2632070000     0.5108630000     2.1839770000
   30      C       1.6420040000     3.0575840000     0.8754540000
   31      H       1.9679990000     4.0327780000     0.4869510000
   32      N       1.0660780000     2.3487340000    -0.3027040000
   33      C       0.9651370000     0.8875260000    -0.1856130000
   34      C       0.2332920000     0.3221810000    -1.4044240000
   35      C       0.1488380000    -1.2085710000    -1.4066580000
   36      C      -0.5547690000    -1.7840930000    -2.6423710000
   37      C      -0.6186330000    -3.3164500000    -2.6673990000
   38      C      -1.2957870000    -3.8897300000    -3.9187160000
   39      C      -1.3411610000    -5.4224320000    -3.9558820000
   40      C      -1.9986670000    -5.9942320000    -5.2181960000
   41      C      -2.0313840000    -7.5271990000    -5.2608030000
   42      C      -2.6776200000    -8.0979150000    -6.5292670000
   43      C      -2.7029210000    -9.6311720000    -6.5731580000
   44      C      -3.3447550000   -10.1991910000    -7.8423460000
   45      H       0.0949400000     2.6612910000    -0.3338000000
   46      H       0.4233030000     0.5844910000     0.7221610000
   47      H       1.9723430000     0.4601880000    -0.1402630000
   48      H       0.7445780000     0.6668550000    -2.3128050000
   49      H      -0.7787600000     0.7436690000    -1.4280780000
   50      H      -0.3757240000    -1.5436040000    -0.5029000000
   51      H       1.1624000000    -1.6286210000    -1.3447750000
   52      H      -0.0387750000    -1.4321380000    -3.5461270000
   53      H      -1.5732850000    -1.3782010000    -2.6984560000
   54      H      -1.1491380000    -3.6708460000    -1.7738230000
   55      H       0.4001910000    -3.7202100000    -2.5935650000
   56      H      -0.7700080000    -3.5243820000    -4.8111140000
   57      H      -2.3183890000    -3.4959760000    -3.9888430000
   58      H      -1.8771710000    -5.7899190000    -3.0708270000
   59      H      -0.3186650000    -5.8147070000    -3.8740160000
   60      H      -1.4655390000    -5.6211120000    -6.1027830000
   61      H      -3.0235710000    -5.6085850000    -5.2989080000
   62      H      -2.5704060000    -7.9019250000    -4.3805800000
   63      H      -1.0065210000    -7.9120630000    -5.1742850000
   64      H      -2.1409380000    -7.7224580000    -7.4104170000
   65      H      -3.7041230000    -7.7185360000    -6.6169100000
   66      H      -3.2407220000   -10.0081190000    -5.6938700000
   67      H      -1.6770170000   -10.0108730000    -6.4841420000
   68      H      -4.3861990000    -9.8734040000    -7.9446050000
   69      H      -3.3447440000   -11.2946100000    -7.8393780000
   70      H      -2.8072770000    -9.8761950000    -8.7412670000
 ----------------------------------------------------------------

   17   -1408.1757606385      7.08e-09  Convergence criterion met
 Total energy in the final basis set =    -1408.4513409661

                    Orbital Energies (a.u.)
 --------------------------------------------------------------

 Alpha MOs
 -- Occupied --
-19.1149 -19.0265 -19.0215 -14.2828 -10.2010 -10.1871 -10.1853 -10.1841
-10.1836 -10.1829 -10.1823 -10.1780 -10.1778 -10.1758 -10.1697 -10.1684
-10.1642 -10.1639 -10.1635 -10.1630 -10.1621 -10.1617 -10.1616 -10.1612
-10.1611 -10.1609 -10.1608 -10.1606 -10.1580 -10.1571 -10.1469 -10.1443
-10.1384  -1.0310  -0.9473  -0.9338  -0.8957  -0.8603  -0.8395  -0.8146
 -0.8031  -0.7882  -0.7774  -0.7633  -0.7531  -0.7517  -0.7375  -0.7272
 -0.7161  -0.6873  -0.6629  -0.6422  -0.6347  -0.6148  -0.6086  -0.6022
 -0.5885  -0.5816  -0.5790  -0.5737  -0.5717  -0.5685  -0.5472  -0.5187
 -0.5143  -0.4946  -0.4871  -0.4783  -0.4703  -0.4660  -0.4610  -0.4547
 -0.4517  -0.4431  -0.4382  -0.4365  -0.4331  -0.4301  -0.4282  -0.4211
 -0.4192  -0.4171  -0.4064  -0.4034  -0.3957  -0.3909  -0.3901  -0.3823
 -0.3757  -0.3726  -0.3693  -0.3652  -0.3635  -0.3616  -0.3575  -0.3530
 -0.3482  -0.3478  -0.3443  -0.3377  -0.3341  -0.3295  -0.3279  -0.3266
 -0.3250  -0.3238  -0.3227  -0.3223  -0.3208  -0.3206  -0.3131  -0.3022
 -0.2963  -0.2628  -0.2537  -0.2446  -0.2343  -0.2297  -0.2134  -0.2013
 -0.1921  -0.1129

          Ground-State Mulliken Net Atomic Charges

     Atom                 Charge (a.u.)
  ----------------------------------------
      1 C                    -0.559113
      2 C                     0.754268
      3 C                     0.605306
      4 C                    -2.086288
      5 C                    -1.611135
      6 C                    -0.515371
      7 C                    -1.708382
      8 C                    -1.029573
      9 C                     0.822562
     10 C                    -2.022872
     11 O                    -0.451536
     12 O                    -0.225804
     13 O                    -0.043457
     14 H                     0.116269
     15 H                     0.364102
     16 H                     0.333808
     17 H                     0.123144
     18 H                     0.303207
     19 C                    -0.775912
     20 C                    -1.581824
     21 C                     0.372602
     22 C                     1.923466
     23 C                     1.503279
     24 C                     0.989929
     25 H                    -0.093032
     26 H                     0.295294
     27 H                     0.411481
     28 H                     0.338416
     29 H                     0.437602
     30 C                    -0.530186
     31 H                     0.011296
     32 N                    -0.007714
     33 C                    -1.604581
     34 C                    -0.379350
     35 C                     1.091425
     36 C                     0.995350
     37 C                     0.099416
     38 C                    -0.053466
     39 C                    -0.684061
     40 C                    -0.359789
     41 C                     0.009287
     42 C                     0.096616
     43 C                     0.004686
     44 C                    -0.340297
     45 H                     0.036541
     46 H                    -0.142784
     47 H                    -0.172055
     48 H                     0.095768
     49 H                     0.085973
     50 H                     0.137747
     51 H                     0.210143
     52 H                     0.151685
     53 H                     0.109699
     54 H                     0.107769
     55 H                     0.115963
     56 H                     0.119712
     57 H                     0.116662
     58 H                     0.119676
     59 H                     0.130011
     60 H                     0.126766
     61 H                     0.121732
     62 H                     0.120237
     63 H                     0.123120
     64 H                     0.111140
     65 H                     0.108114
     66 H                     0.120643
     67 H                     0.123485
     68 H                     0.140369
     69 H                     0.201129
     70 H                     0.141686
  ----------------------------------------
  Sum of atomic charges =    -2.000002

                    Cartesian Multipole Moments
 -----------------------------------------------------------------
    Charge (ESU x 10^10)
                -9.6064
    Dipole Moment (Debye)
         X       1.3208      Y     -35.3176      Z     -28.6890
       Tot      45.5208
    Quadrupole Moments (Debye-Ang)
        XX    -253.0467     XY      -0.8593     YY    -372.4399
        XZ       8.6686     YZ    -135.5049     ZZ    -349.8926

 Total job time:  6937.55s(wall), 37024.07s(cpu)
        *  Thank you very much for using Q-Chem.  Have a nice day.  *
