 Q-Chem 5.4, Q-Chem, Inc., Pleasanton, CA (2021)
 Q-Chem 5.4.0 for Intel X86 EM64T Linux

User input:
--------------------------------------------------------------
$molecule
-2 1
C                 -4.0732120000      3.5795140000      1.5405380000
C                 -4.5644640000      3.8061190000      0.2740470000
C                 -3.9640610000      3.1583250000     -0.8278580000
C                 -2.8806200000      2.3059540000     -0.6427420000
C                 -2.3514480000      2.0189640000      0.6518070000
C                 -2.9792930000      2.7105880000      1.7667610000
C                 -2.5195140000      2.5449990000      3.1444720000
C                 -1.4179130000      1.6588690000      3.2935900000
C                 -0.8043450000      0.9771390000      2.2422930000
C                 -1.2344850000      1.0926780000      0.8736080000
O                 -3.0680870000      3.1597150000      4.1351670000
O                 -0.6558480000      0.4156810000     -0.0456490000
H                 -4.5027530000      4.0521100000      2.4173510000
H                 -4.3511640000      3.3145890000     -1.8359870000
O                 -2.3216530000      1.7201860000     -1.7634550000
C                  0.3576470000      0.0543520000      2.5048440000
H                 -5.4074860000      4.4744220000      0.1096700000
H                 -1.0467970000      1.5201880000      4.3103390000
H                 -2.7418370000      2.1434750000     -2.5228100000
H                  0.6560080000      0.0892270000      3.5601580000
H                  1.2208260000      0.3171840000      1.8780680000
H                  0.1168380000     -0.9864060000      2.2426100000
$end

$rem
BASIS  =  6-311++G(d,p)
GUI  =  2
JOB_TYPE  =  SP
METHOD  =  B3LYP
SCF_CONVERGENCE  = 8
SOLVENT_METHOD = sm12
$end

$smx
solvent dimethylformamide
charges CM5
$end

--------------------------------------------------------------

             Standard Nuclear Orientation (Angstroms)
    I     Atom           X                Y                Z
 ----------------------------------------------------------------
    1      C      -4.0732120000     3.5795140000     1.5405380000
    2      C      -4.5644640000     3.8061190000     0.2740470000
    3      C      -3.9640610000     3.1583250000    -0.8278580000
    4      C      -2.8806200000     2.3059540000    -0.6427420000
    5      C      -2.3514480000     2.0189640000     0.6518070000
    6      C      -2.9792930000     2.7105880000     1.7667610000
    7      C      -2.5195140000     2.5449990000     3.1444720000
    8      C      -1.4179130000     1.6588690000     3.2935900000
    9      C      -0.8043450000     0.9771390000     2.2422930000
   10      C      -1.2344850000     1.0926780000     0.8736080000
   11      O      -3.0680870000     3.1597150000     4.1351670000
   12      O      -0.6558480000     0.4156810000    -0.0456490000
   13      H      -4.5027530000     4.0521100000     2.4173510000
   14      H      -4.3511640000     3.3145890000    -1.8359870000
   15      O      -2.3216530000     1.7201860000    -1.7634550000
   16      C       0.3576470000     0.0543520000     2.5048440000
   17      H      -5.4074860000     4.4744220000     0.1096700000
   18      H      -1.0467970000     1.5201880000     4.3103390000
   19      H      -2.7418370000     2.1434750000    -2.5228100000
   20      H       0.6560080000     0.0892270000     3.5601580000
   21      H       1.2208260000     0.3171840000     1.8780680000
   22      H       0.1168380000    -0.9864060000     2.2426100000
 ----------------------------------------------------------------

   20    -649.7793518054      6.67e-09  Convergence criterion met
 Total energy in the final basis set =     -650.0812622208

                    Orbital Energies (a.u.)
 --------------------------------------------------------------

 Alpha MOs
 -- Occupied --
-19.1462 -19.0225 -19.0193 -10.2337 -10.1849 -10.1821 -10.1736 -10.1687
-10.1673 -10.1603 -10.1597 -10.1546 -10.1436 -10.1388  -1.0544  -0.9413
 -0.9374  -0.8397  -0.7890  -0.7449  -0.7326  -0.6905  -0.6435  -0.6155
 -0.5854  -0.5565  -0.5099  -0.4976  -0.4654  -0.4517  -0.4400  -0.4192
 -0.4172  -0.4048  -0.3940  -0.3782  -0.3755  -0.3599  -0.3586  -0.3529
 -0.3332  -0.3261  -0.3223  -0.3120  -0.2359  -0.2297  -0.2217  -0.1998
 -0.1920  -0.1168

          Ground-State Mulliken Net Atomic Charges

     Atom                 Charge (a.u.)
  ----------------------------------------
      1 C                    -0.524497
      2 C                     1.888781
      3 C                     3.067194
      4 C                     0.781320
      5 C                    -0.588164
      6 C                    -2.510298
      7 C                    -2.220092
      8 C                    -1.525504
      9 C                    -0.268560
     10 C                    -2.299385
     11 O                    -0.376600
     12 O                    -0.261385
     13 H                     0.046523
     14 H                     0.419505
     15 O                    -0.024361
     16 C                     1.101617
     17 H                     0.409825
     18 H                    -0.109795
     19 H                     0.390081
     20 H                     0.276505
     21 H                     0.172061
     22 H                     0.155228
  ----------------------------------------
  Sum of atomic charges =    -2.000000

                    Cartesian Multipole Moments
 -----------------------------------------------------------------
    Charge (ESU x 10^10)
                -9.6064
    Dipole Moment (Debye)
         X      19.1127      Y     -18.0836      Z     -19.3018
       Tot      32.6324
    Quadrupole Moments (Debye-Ang)
        XX    -151.2135     XY      53.3963     YY    -147.1087
        XZ      52.5717     YZ     -54.4622     ZZ    -162.6320

 Total job time:  401.41s(wall), 3145.00s(cpu)
        *  Thank you very much for using Q-Chem.  Have a nice day.  *
