 Gaussian 16, Revision A.03,
 Gaussian 16:  ES64L-G16RevA.03 25-Dec-2016

 --------------------------------------
 #P UB3LYP/6-311++G(d,p) nosym opt freq
 --------------------------------------

 -------
 Reduced
 -------
 Symbolic Z-matrix:
 Charge = -2 Multiplicity = 1

 SCF Done:  E(UB3LYP) =  -496.121361009     A.U. after   25 cycles
 Optimization completed.
    -- Stationary point found.
 Normal termination of Gaussian 16 at Wed Jan 10 16:51:41 2024.

 ----------------------------------------------------------------------
 #P Geom=AllCheck Guess=TCheck SCRF=Check GenChk UB3LYP/6-311++G(d,p) F
 req
 ----------------------------------------------------------------------

 Structure from the checkpoint file:  "108-an.chk"
 -------
 Reduced
 -------
 Charge = -2 Multiplicity = 1

                          Input orientation:
 ---------------------------------------------------------------------
 Center     Atomic      Atomic             Coordinates (Angstroms)
 Number     Number       Type             X           Y           Z
 ---------------------------------------------------------------------
      1          6           0       -1.788443   -3.730097    1.287637
      2          6           0       -0.417363   -3.934837    1.066733
      3          6           0        0.435052   -2.903024    0.603795
      4          6           0       -0.016218   -1.582598    0.321291
      5          6           0       -1.432096   -1.364033    0.553132
      6          6           0       -2.239007   -2.402441    1.006260
      7          8           0       -2.700724   -4.599606    1.720834
      8          8           0        0.755869   -0.621813   -0.112375
      9          8           0       -3.605346   -2.251937    1.242247
     10          6           0       -1.996448    0.009422    0.299175
     11          1           0       -0.007751   -4.928314    1.262178
     12          1           0        1.494591   -3.107919    0.443279
     13          1           0       -1.284534    0.771773    0.639686
     14          1           0       -2.961343    0.141266    0.801117
     15          1           0       -2.148868    0.207614   -0.776829
     16          1           0       -3.787029   -3.184573    1.547971
 ---------------------------------------------------------------------

 SCF Done:  E(UB3LYP) =  -496.121361009     A.U. after    2 cycles

 Alpha  occ. eigenvalues --  -18.83306 -18.74237 -18.72701  -9.89835  -9.88614
 Alpha  occ. eigenvalues --   -9.88428  -9.88138  -9.85109  -9.84743  -9.83679
 Alpha  occ. eigenvalues --   -0.74048  -0.63371  -0.63125  -0.50061  -0.45300
 Alpha  occ. eigenvalues --   -0.38040  -0.35536  -0.26769  -0.26339  -0.18802
 Alpha  occ. eigenvalues --   -0.16931  -0.13669  -0.13383  -0.11830  -0.10226
 Alpha  occ. eigenvalues --   -0.09011  -0.08231  -0.06675  -0.03956  -0.03571
 Alpha  occ. eigenvalues --   -0.02655  -0.01091   0.06308   0.07090   0.08973
 Alpha  occ. eigenvalues --    0.09559   0.16551
 Alpha virt. eigenvalues --    0.19591   0.20601   0.22010   0.22427   0.22922
 Alpha virt. eigenvalues --    0.24505   0.28286   0.28899   0.29571   0.30747
 Alpha virt. eigenvalues --    0.31559   0.31828   0.32701   0.33343   0.33756

  Beta  occ. eigenvalues --  -18.83306 -18.74237 -18.72701  -9.89835  -9.88614
  Beta  occ. eigenvalues --   -9.88428  -9.88138  -9.85109  -9.84743  -9.83679
  Beta  occ. eigenvalues --   -0.74048  -0.63371  -0.63125  -0.50061  -0.45300
  Beta  occ. eigenvalues --   -0.38040  -0.35536  -0.26769  -0.26339  -0.18802
  Beta  occ. eigenvalues --   -0.16931  -0.13669  -0.13383  -0.11830  -0.10226
  Beta  occ. eigenvalues --   -0.09011  -0.08231  -0.06675  -0.03956  -0.03571
  Beta  occ. eigenvalues --   -0.02655  -0.01091   0.06308   0.07090   0.08973
  Beta  occ. eigenvalues --    0.09559   0.16551
  Beta virt. eigenvalues --    0.19591   0.20601   0.22010   0.22427   0.22922
  Beta virt. eigenvalues --    0.24505   0.28286   0.28899   0.29571   0.30747
  Beta virt. eigenvalues --    0.31559   0.31828   0.32701   0.33343   0.33756

 Mulliken charges and spin densities:
               1          2
     1  C   -0.617781   0.000000
     2  C    0.229678  -0.000000
     3  C    0.387303   0.000000
     4  C   -1.534475  -0.000000
     5  C    2.302883   0.000000
     6  C   -1.384688   0.000000
     7  O   -0.661115  -0.000000
     8  O   -0.586026   0.000000
     9  O   -0.336177  -0.000000
    10  C   -0.351619  -0.000000
    11  H    0.025866  -0.000000
    12  H    0.011299  -0.000000
    13  H    0.124609   0.000000
    14  H    0.125236   0.000000
    15  H    0.042980  -0.000000
    16  H    0.222028  -0.000000
 Sum of Mulliken charges =  -2.00000   0.00000

 Dipole moment (field-independent basis, Debye):
    X=             10.5280    Y=             23.1969    Z=             -7.3444  Tot=             26.5118
 Quadrupole moment (field-independent basis, Debye-Ang):
   XX=           -111.8001   YY=           -159.8664   ZZ=            -81.2985
   XY=            -43.3835   XZ=             19.2895   YZ=             31.5682

  Exact polarizability: 158.928  -7.961 175.959   3.466 -33.587 122.861
 Approx polarizability: 234.749  -1.337 238.376 -15.626 -40.440 144.118

                      1                      2                      3
                      A                      A                      A
 Frequencies --     49.7525               142.9465               156.6127
 Red. masses --      1.0295                 5.1328                 7.0516
 Frc consts  --      0.0015                 0.0618                 0.1019
 IR Inten    --      0.9494                 5.8507                 1.8559

                      4                      5                      6
                      A                      A                      A
 Frequencies --    246.9607               277.0098               331.0918
 Red. masses --      4.3418                 2.8915                 7.8962
 Frc consts  --      0.1560                 0.1307                 0.5100
 IR Inten    --      1.6108                 6.6396                 4.1598

                      7                      8                      9
                      A                      A                      A
 Frequencies --    332.3186               362.6830               448.3213
 Red. masses --      6.3872                10.6010                 3.8889
 Frc consts  --      0.4156                 0.8216                 0.4605
 IR Inten    --     12.8298                 3.3866                10.1024

                     10                     11                     12
                      A                      A                      A
 Frequencies --    480.2573               496.1217               611.7820
 Red. masses --     10.3237                 7.3172                 1.8060
 Frc consts  --      1.4029                 1.0611                 0.3983
 IR Inten    --      0.8989                 7.8698                14.2036

                     13                     14                     15
                      A                      A                      A
 Frequencies --    617.4924               670.5032               692.7751
 Red. masses --      4.0533                 6.2731                 4.9798
 Frc consts  --      0.9106                 1.6616                 1.4081
 IR Inten    --      0.4194                 9.7962                 2.0225

                     16                     17                     18
                      A                      A                      A
 Frequencies --    760.1669               761.1074               766.9522
 Red. masses --      3.8519                 4.4694                 1.2538
 Frc consts  --      1.3114                 1.5254                 0.4345
 IR Inten    --     37.8795                46.0854                 0.2145

                     19                     20                     21
                      A                      A                      A
 Frequencies --    822.4977               889.0577              1008.6859
 Red. masses --      1.1478                 2.2111                 3.0224
 Frc consts  --      0.4575                 1.0297                 1.8118
 IR Inten    --     77.2458                48.1078                42.6271

                     22                     23                     24
                      A                      A                      A
 Frequencies --   1036.2970              1071.1247              1135.0459
 Red. masses --      1.4146                 1.8668                 2.0507
 Frc consts  --      0.8950                 1.2619                 1.5566
 IR Inten    --     12.6576                97.4485                26.8474

                     25                     26                     27
                      A                      A                      A
 Frequencies --   1161.6160              1213.1728              1273.1094
 Red. masses --      3.4860                 5.7737                 2.2960
 Frc consts  --      2.7714                 5.0067                 2.1926
 IR Inten    --    188.4272                54.9323               300.9391

                     28                     29                     30
                      A                      A                      A
 Frequencies --   1318.9410              1366.6512              1388.5561
 Red. masses --      3.7624                 1.5866                 2.2577
 Frc consts  --      3.8563                 1.7459                 2.5648
 IR Inten    --     45.6965                12.1936               152.2877

                     31                     32                     33
                      A                      A                      A
 Frequencies --   1429.5672              1455.9136              1476.3416
 Red. masses --      3.2676                 1.0621                 3.1227
 Frc consts  --      3.9345                 1.3264                 4.0101
 IR Inten    --    465.1172                19.7294               173.6470

                     34                     35                     36
                      A                      A                      A
 Frequencies --   1489.9212              1552.1308              1634.3451
 Red. masses --      1.1529                 3.1166                 4.6789
 Frc consts  --      1.5078                 4.4238                 7.3634
 IR Inten    --     28.9759               163.7516                38.8419

                     37                     38                     39
                      A                      A                      A
 Frequencies --   2901.1002              2988.5695              3048.3091
 Red. masses --      1.0710                 1.0594                 1.0997
 Frc consts  --      5.3107                 5.5748                 6.0206
 IR Inten    --    577.6242               186.4819                37.0059

                     40                     41                     42
                      A                      A                      A
 Frequencies --   3056.0234              3088.1062              3204.6262
 Red. masses --      1.0831                 1.0905                 1.0641
 Frc consts  --      5.9597                 6.1271                 6.4386
 IR Inten    --     92.5682               155.5512               243.7253

 - Thermochemistry -
 -------------------
 Temperature   298.150 Kelvin.  Pressure   1.00000 Atm.
 Atom     1 has atomic number  6 and mass  12.00000

 Molecular mass:   138.03169 amu.
 Principal axes and moments of inertia in atomic units:
                           1         2         3
     Eigenvalues --   824.760721444.323172258.05145
           X            0.62054   0.75968   0.19448
           Y            0.71274  -0.64981   0.26411
           Z           -0.32701   0.02528   0.94468
 This molecule is an asymmetric top.
 Rotational symmetry number  1.
 Warning -- assumption of classical behavior for rotation
           may cause significant error
 Rotational temperatures (Kelvin)      0.10502     0.05997     0.03836
 Rotational constants (GHZ):           2.18820     1.24954     0.79925
 Zero-point vibrational energy     294368.5 (Joules/Mol)
                                   70.35575 (Kcal/Mol)
 Warning -- explicit consideration of  13 degrees of freedom as
           vibrations may cause significant error
 Vibrational temperatures:     71.58   205.67   225.33   355.32   398.56
          (Kelvin)            476.37   478.13   521.82   645.03   690.98
                              713.81   880.22   888.43   964.70   996.75
                             1093.71  1095.06  1103.47  1183.39  1279.16
                             1451.27  1491.00  1541.11  1633.08  1671.31
                             1745.49  1831.72  1897.66  1966.31  1997.82
                             2056.83  2094.73  2124.13  2143.66  2233.17
                             2351.46  4174.04  4299.88  4385.84  4396.94
                             4443.10  4610.74

 Zero-point correction=                           0.112119 (Hartree/Particle)
 Thermal correction to Energy=                    0.121022
 Thermal correction to Enthalpy=                  0.121967
 Thermal correction to Gibbs Free Energy=         0.078042
 Sum of electronic and zero-point Energies=           -496.009242
 Sum of electronic and thermal Energies=              -496.000339
 Sum of electronic and thermal Enthalpies=            -495.999394
 Sum of electronic and thermal Free Energies=         -496.043319

                     E (Thermal)             CV                S
                      KCal/Mol        Cal/Mol-Kelvin    Cal/Mol-Kelvin
 Total                   75.943             33.595             92.446
 Electronic               0.000              0.000              0.000
 Translational            0.889              2.981             40.679
 Rotational               0.889              2.981             29.377
 Vibrational             74.165             27.634             22.391
 Vibration     1          0.595              1.978              4.827
 Vibration     2          0.616              1.910              2.764
 Vibration     3          0.620              1.895              2.590
 Vibration     4          0.661              1.768              1.752
 Vibration     5          0.678              1.716              1.552
 Vibration     6          0.713              1.613              1.255
 Vibration     7          0.714              1.611              1.249
 Vibration     8          0.737              1.549              1.111
 Vibration     9          0.807              1.365              0.801
 Vibration    10          0.837              1.294              0.709
 Vibration    11          0.852              1.259              0.668
 Vibration    12          0.971              1.007              0.430
 Vibration    13          0.977              0.995              0.421

 Optimization completed.
    -- Stationary point found.
 Normal termination of Gaussian 16 at Wed Jan 10 17:01:59 2024.
