 Gaussian 16, Revision A.03,
 Gaussian 16:  ES64L-G16RevA.03 25-Dec-2016

 ----------------------------------------------------------------
 #P UB3LYP/6-311++G(d,p) SCRF=(PCM,Solvent=n,n-DiMethylFormamide)
 ----------------------------------------------------------------

 -------
 Reduced
 -------
 Symbolic Z-matrix:
 Charge = -2 Multiplicity = 1

                         Standard orientation:
 ---------------------------------------------------------------------
 Center     Atomic      Atomic             Coordinates (Angstroms)
 Number     Number       Type             X           Y           Z
 ---------------------------------------------------------------------
      1          6           0        1.475400   -0.549699    0.000939
      2          6           0        0.753348   -1.753527   -0.002909
      3          6           0       -0.662489   -1.784619   -0.003833
      4          6           0       -1.471185   -0.612888    0.002065
      5          6           0       -0.729617    0.634632    0.000641
      6          6           0        0.661295    0.625919    0.003726
      7          8           0        2.796038   -0.371167   -0.001264
      8          8           0       -2.777752   -0.624761    0.007866
      9          8           0        1.425769    1.792449    0.006728
     10          6           0       -1.502198    1.927812   -0.012445
     11          1           0        1.315224   -2.690154   -0.004812
     12          1           0       -1.182493   -2.743768   -0.004109
     13          1           0       -2.372541    1.833272   -0.673893
     14          1           0       -0.871390    2.763964   -0.333821
     15          1           0       -1.912896    2.180825    0.981340
     16          1           0        2.324336    1.357924   -0.000446
 ---------------------------------------------------------------------

 SCF Done:  E(UB3LYP) =  -496.413078922     A.U. after   16 cycles

 The electronic state is 1-A.
 Alpha  occ. eigenvalues --  -19.10420 -19.02358 -19.01023 -10.17292 -10.16403
 Alpha  occ. eigenvalues --  -10.15929 -10.13733 -10.12410 -10.12045 -10.11134
 Alpha  occ. eigenvalues --   -1.01327  -0.91755  -0.91333  -0.77541  -0.72024
 Alpha  occ. eigenvalues --   -0.65061  -0.62912  -0.54089  -0.53546  -0.46238
 Alpha  occ. eigenvalues --   -0.44057  -0.41023  -0.39588  -0.38641  -0.36525
 Alpha  occ. eigenvalues --   -0.36062  -0.35440  -0.34938  -0.31619  -0.31386
 Alpha  occ. eigenvalues --   -0.30015  -0.29232  -0.21976  -0.21117  -0.18988
 Alpha  occ. eigenvalues --   -0.18399  -0.11672
 Alpha virt. eigenvalues --    0.00216   0.01523   0.01872   0.03461   0.03844
 Alpha virt. eigenvalues --    0.04392   0.04727   0.06236   0.06796   0.07670
 Alpha virt. eigenvalues --    0.07955   0.08780   0.09276   0.10023   0.10946

  Beta  occ. eigenvalues --  -19.10420 -19.02358 -19.01023 -10.17292 -10.16403
  Beta  occ. eigenvalues --  -10.15929 -10.13733 -10.12410 -10.12045 -10.11134
  Beta  occ. eigenvalues --   -1.01327  -0.91755  -0.91333  -0.77541  -0.72024
  Beta  occ. eigenvalues --   -0.65061  -0.62912  -0.54089  -0.53546  -0.46238
  Beta  occ. eigenvalues --   -0.44057  -0.41023  -0.39588  -0.38641  -0.36525
  Beta  occ. eigenvalues --   -0.36062  -0.35440  -0.34938  -0.31619  -0.31386
  Beta  occ. eigenvalues --   -0.30015  -0.29232  -0.21976  -0.21117  -0.18988
  Beta  occ. eigenvalues --   -0.18399  -0.11672
  Beta virt. eigenvalues --    0.00216   0.01523   0.01872   0.03461   0.03844
  Beta virt. eigenvalues --    0.04392   0.04727   0.06236   0.06796   0.07670
  Beta virt. eigenvalues --    0.07955   0.08780   0.09276   0.10023   0.10946

 Mulliken charges and spin densities:
               1          2
     1  C   -0.235367  -0.000000
     2  C   -0.052742   0.000000
     3  C    0.066312   0.000000
     4  C   -1.007119  -0.000000
     5  C    1.763793   0.000000
     6  C   -1.293993  -0.000000
     7  O   -0.768655   0.000000
     8  O   -0.730350   0.000000
     9  O   -0.364254   0.000000
    10  C   -0.323577   0.000000
    11  H    0.129604  -0.000000
    12  H    0.115973  -0.000000
    13  H    0.140633  -0.000000
    14  H    0.148625  -0.000000
    15  H    0.138530   0.000000
    16  H    0.272587  -0.000000
 Sum of Mulliken charges =  -2.00000   0.00000

 Dipole moment (field-independent basis, Debye):
    X=              0.5744    Y=              3.3401    Z=             -0.0447  Tot=              3.3894
 Quadrupole moment (field-independent basis, Debye-Ang):
   XX=           -126.1161   YY=            -78.0464   ZZ=            -68.1234
   XY=             -4.5269   XZ=              0.0894   YZ=             -0.0549

 Normal termination of Gaussian 16 at Wed Jan 24 22:49:07 2024.
