 Q-Chem 5.4, Q-Chem, Inc., Pleasanton, CA (2021)
 Q-Chem 5.4.0 for Intel X86 EM64T Linux

User input:
--------------------------------------------------------------
$molecule
-1 2
C                 -2.4148510000      1.9082100000     -0.0230170000
C                 -1.2693790000      0.9257600000     -0.0049730000
C                 -1.5026880000     -0.4378880000      0.1365790000
C                 -2.9075580000     -0.9713080000      0.2757390000
C                 -0.4288740000     -1.4096950000      0.1583020000
O                 -0.6351190000     -2.6495640000      0.2866060000
C                  0.9368460000     -0.8812520000      0.0220760000
C                  2.0338300000     -1.7659010000      0.0343440000
C                  3.3297170000     -1.2977890000     -0.0918760000
C                  3.5660940000      0.0839430000     -0.2355160000
C                  2.5014800000      0.9675580000     -0.2497050000
C                  1.1747700000      0.5095400000     -0.1223820000
C                  0.0644350000      1.4737990000     -0.1410320000
O                  0.2820190000      2.7116750000     -0.2699160000
H                 -3.1137150000      1.7025470000     -0.8438920000
H                 -3.0001590000      1.8669010000      0.9045010000
H                 -2.0216320000      2.9179030000     -0.1433530000
H                 -2.8728310000     -2.0564120000      0.3753240000
H                 -3.5265430000     -0.7175700000     -0.5943590000
H                 -3.4157180000     -0.5534020000      1.1541990000
H                  1.8207130000     -2.8229310000      0.1462780000
H                  4.1643040000     -1.9932040000     -0.0804180000
H                  4.5828820000      0.4534750000     -0.3348210000
H                  2.6519770000      2.0356070000     -0.3586890000
$end
$rem
MAX_SCF_CYCLES=200
BASIS  =  6-311++G(d,p)
GUI  =  2
JOB_TYPE  =  SP
METHOD  =  B3LYP
SOLVENT_METHOD = PCM
$end
$pcm
theory = CPCM
$end
$solvent
dielectric 37.219
opticaldielectric 1.43
$end

--------------------------------------------------------------

             Standard Nuclear Orientation (Angstroms)
    I     Atom           X                Y                Z
 ----------------------------------------------------------------
    1      C      -2.4148510000     1.9082100000    -0.0230170000
    2      C      -1.2693790000     0.9257600000    -0.0049730000
    3      C      -1.5026880000    -0.4378880000     0.1365790000
    4      C      -2.9075580000    -0.9713080000     0.2757390000
    5      C      -0.4288740000    -1.4096950000     0.1583020000
    6      O      -0.6351190000    -2.6495640000     0.2866060000
    7      C       0.9368460000    -0.8812520000     0.0220760000
    8      C       2.0338300000    -1.7659010000     0.0343440000
    9      C       3.3297170000    -1.2977890000    -0.0918760000
   10      C       3.5660940000     0.0839430000    -0.2355160000
   11      C       2.5014800000     0.9675580000    -0.2497050000
   12      C       1.1747700000     0.5095400000    -0.1223820000
   13      C       0.0644350000     1.4737990000    -0.1410320000
   14      O       0.2820190000     2.7116750000    -0.2699160000
   15      H      -3.1137150000     1.7025470000    -0.8438920000
   16      H      -3.0001590000     1.8669010000     0.9045010000
   17      H      -2.0216320000     2.9179030000    -0.1433530000
   18      H      -2.8728310000    -2.0564120000     0.3753240000
   19      H      -3.5265430000    -0.7175700000    -0.5943590000
   20      H      -3.4157180000    -0.5534020000     1.1541990000
   21      H       1.8207130000    -2.8229310000     0.1462780000
   22      H       4.1643040000    -1.9932040000    -0.0804180000
   23      H       4.5828820000     0.4534750000    -0.3348210000
   24      H       2.6519770000     2.0356070000    -0.3586890000
 ----------------------------------------------------------------

    8    -614.0663159018      6.38e-06  Convergence criterion met
 Total energy in the final basis set =     -614.0663159018

                    Orbital Energies (a.u.)
 --------------------------------------------------------------

 Alpha MOs
 -- Occupied --
-19.0731 -19.0731 -10.2177 -10.2176 -10.1702 -10.1698 -10.1691 -10.1687
-10.1671 -10.1671 -10.1661 -10.1655 -10.1497 -10.1497  -0.9983  -0.9958
 -0.8550  -0.8137  -0.7548  -0.7472  -0.7211  -0.6707  -0.6509  -0.5970
 -0.5839  -0.5495  -0.5109  -0.4863  -0.4628  -0.4458  -0.4333  -0.4224
 -0.4156  -0.4118  -0.3945  -0.3934  -0.3823  -0.3813  -0.3742  -0.3659
 -0.3551  -0.3461  -0.3358  -0.3325  -0.2661  -0.2546  -0.2455  -0.2381
 -0.2333  -0.1491

 Beta MOs
 -- Occupied --
-19.0672 -19.0672 -10.2158 -10.2158 -10.1699 -10.1694 -10.1686 -10.1681
-10.1670 -10.1670 -10.1648 -10.1642 -10.1498 -10.1498  -0.9879  -0.9852
 -0.8529  -0.8095  -0.7528  -0.7453  -0.7177  -0.6688  -0.6442  -0.5961
 -0.5803  -0.5467  -0.5087  -0.4838  -0.4602  -0.4447  -0.4256  -0.4219
 -0.4131  -0.4060  -0.3874  -0.3868  -0.3812  -0.3801  -0.3729  -0.3542
 -0.3444  -0.3344  -0.3342  -0.3309  -0.2481  -0.2447  -0.2401  -0.2282
 -0.2281

          Ground-State Mulliken Net Atomic Charges

     Atom                 Charge (a.u.)    Spin (a.u.)
  --------------------------------------------------------
      1 C                    -0.472408       0.000368
      2 C                     0.869957       0.114444
      3 C                     0.867553       0.114414
      4 C                    -0.474677       0.000400
      5 C                    -1.183730       0.098743
      6 O                    -0.506535       0.217792
      7 C                     0.544263       0.012974
      8 C                    -0.120575       0.026624
      9 C                    -0.495236       0.025415
     10 C                    -0.496408       0.025343
     11 C                    -0.120712       0.026744
     12 C                     0.544579       0.012904
     13 C                    -1.182010       0.098891
     14 O                    -0.506907       0.217761
     15 H                     0.159548       0.004585
     16 H                     0.159906       0.004591
     17 H                     0.179023      -0.001249
     18 H                     0.179103      -0.001248
     19 H                     0.159808       0.004591
     20 H                     0.159945       0.004587
     21 H                     0.171484      -0.002081
     22 H                     0.196388      -0.002255
     23 H                     0.196426      -0.002252
     24 H                     0.171215      -0.002086
  --------------------------------------------------------
  Sum of atomic charges =    -1.000000

                    Cartesian Multipole Moments
 -----------------------------------------------------------------
    Charge (ESU x 10^10)
                -4.8032
    Dipole Moment (Debye)
         X      -0.1410      Y       0.0235      Z       0.0102
       Tot       0.1433
    Quadrupole Moments (Debye-Ang)
        XX     -81.3869     XY      -7.2729     YY    -122.4394
        XZ       0.2513     YZ       3.6601     ZZ     -88.3882

 Total job time:  54.62s(wall), 261.79s(cpu)
        *  Thank you very much for using Q-Chem.  Have a nice day.  *
