 Q-Chem 5.4, Q-Chem, Inc., Pleasanton, CA (2021)
 Q-Chem 5.4.0 for Intel X86 EM64T Linux

User input:
--------------------------------------------------------------
$molecule
-2 1
O                 -4.6071970000     -0.8522040000      1.1962630000
C                 -3.4070010000     -0.3438840000      0.6904710000
C                 -3.4120510000      0.8503160000     -0.0778320000
C                 -2.2173400000      1.3351540000     -0.5732450000
C                 -0.9787120000      0.7064820000     -0.3140570000
C                  0.2385320000      1.2970810000     -0.8473880000
O                  0.2378720000      2.3730470000     -1.5397960000
C                  1.4512370000      0.5644640000     -0.5384970000
C                  2.6949180000      1.0498310000     -1.0115040000
C                  3.8868840000      0.4037050000     -0.7502860000
C                  3.8794660000     -0.7920120000      0.0226570000
C                  2.6848600000     -1.2906200000      0.4994490000
C                  1.4417760000     -0.6538430000      0.2466040000
C                  0.2280830000     -1.2358890000      0.7842510000
O                  0.2300160000     -2.3109020000      1.4850050000
C                 -0.9835980000     -0.5074750000      0.4710540000
C                 -2.2315880000     -1.0057150000      0.9403470000
H                 -5.3287230000     -0.5362650000      0.6314380000
H                 -4.3483440000      1.3764080000     -0.2553720000
H                 -2.1877060000      2.2426200000     -1.1678940000
H                  2.6653640000      1.9643270000     -1.5962680000
H                  4.8250530000      0.8039860000     -1.1306120000
H                  4.8135470000     -1.3095780000      0.2354730000
H                  2.6473400000     -2.1996720000      1.0918850000
H                 -2.2226900000     -1.9293600000      1.5078540000
$end
$rem
MAX_SCF_CYCLES=200
BASIS  =  6-311++G(d,p)
GUI  =  2
JOB_TYPE  =  SP
METHOD  =  B3LYP
SOLVENT_METHOD = COSMO
$end
$solvent
dielectric 37.219
opticaldielectric 1.43
$end

--------------------------------------------------------------

             Standard Nuclear Orientation (Angstroms)
    I     Atom           X                Y                Z
 ----------------------------------------------------------------
    1      O       4.6302043255    -0.8872138102    -0.0319771029
    2      C       3.3612203034    -0.3007117307    -0.0124817086
    3      C       3.2350951888     1.1136856263    -0.0135835622
    4      C       1.9734565521     1.6754017110     0.0104849015
    5      C       0.7959631595     0.8943809123    -0.0005626162
    6      C      -0.4953719765     1.5632397800    -0.0042329682
    7      O      -0.6128848432     2.8373360193    -0.0055004030
    8      C      -1.6381968193     0.6706551711     0.0019984343
    9      C      -2.9451824256     1.2164094738     0.0017925610
   10      C      -4.0758564409     0.4239007776     0.0034760834
   11      C      -3.9367087033    -0.9930934285     0.0028605043
   12      C      -2.6775137286    -1.5565211929     0.0017586301
   13      C      -1.4948792061    -0.7716355326     0.0036185345
   14      C      -0.2066222434    -1.4359112777    -0.0013082702
   15      O      -0.0892184700    -2.7137566559    -0.0076642539
   16      C       0.9346678544    -0.5446723393    -0.0017873558
   17      C       2.2456511649    -1.0988980338     0.0089222924
   18      H       5.2590996470    -0.2546955106     0.3473061376
   19      H       4.1267540785     1.7371416219    -0.0480055318
   20      H       1.8429637018     2.7528666058     0.0150854225
   21      H      -3.0158355256     2.2999833233     0.0007151940
   22      H      -5.0657450609     0.8768391299     0.0045655368
   23      H      -4.8214008169    -1.6279099696     0.0034537312
   24      H      -2.5394933119    -2.6334208952     0.0007103004
   25      H       2.3345131136    -2.1791082296     0.0315705251
 ----------------------------------------------------------------

   14    -764.1737265314      2.58e-06  Convergence criterion met
 Total energy in the final basis set =     -764.1737265314
    6    -764.4527192295      3.32e-06  Convergence criterion met
 Total energy in the final basis set =     -764.4527192295

                    Orbital Energies (a.u.)
 --------------------------------------------------------------

 Alpha MOs
 -- Occupied --
-19.1400 -19.0294 -19.0242 -10.2128 -10.1809 -10.1748 -10.1549 -10.1543
-10.1501 -10.1488 -10.1477 -10.1464 -10.1440 -10.1420 -10.1393 -10.1384
-10.1376  -1.0409  -0.9502  -0.9434  -0.8306  -0.8227  -0.7528  -0.7303
 -0.7242  -0.7067  -0.6406  -0.6127  -0.5965  -0.5646  -0.5409  -0.5241
 -0.5030  -0.4766  -0.4491  -0.4423  -0.4305  -0.4123  -0.4046  -0.4002
 -0.3893  -0.3835  -0.3784  -0.3747  -0.3635  -0.3546  -0.3339  -0.3301
 -0.3242  -0.3196  -0.3039  -0.2947  -0.2373  -0.2298  -0.2272  -0.2106
 -0.2105  -0.2020  -0.1088

          Ground-State Mulliken Net Atomic Charges

     Atom                 Charge (a.u.)
  ----------------------------------------
      1 O                    -0.356323
      2 C                    -0.589661
      3 C                    -0.015185
      4 C                    -0.054787
      5 C                     0.001238
      6 C                    -0.358749
      7 O                    -0.686895
      8 C                     0.133055
      9 C                     0.034460
     10 C                    -0.519663
     11 C                    -0.509188
     12 C                    -0.037640
     13 C                     0.295354
     14 C                    -0.341624
     15 O                    -0.712502
     16 C                     0.460711
     17 C                    -0.251183
     18 H                     0.308991
     19 H                     0.199169
     20 H                     0.163588
     21 H                     0.156464
     22 H                     0.177588
     23 H                     0.179369
     24 H                     0.153259
     25 H                     0.170156
  ----------------------------------------
  Sum of atomic charges =    -2.000000

                    Cartesian Multipole Moments
 -----------------------------------------------------------------
    Charge (ESU x 10^10)
                -9.6064
    Dipole Moment (Debye)
         X       3.8062      Y       1.9496      Z       0.8136
       Tot       4.3532
    Quadrupole Moments (Debye-Ang)
        XX    -118.6763     XY      13.9275     YY    -162.5161
        XZ       4.2278     YZ      -0.2725     ZZ    -110.6371

 Total job time:  73.01s(wall), 565.32s(cpu)
        *  Thank you very much for using Q-Chem.  Have a nice day.  *
