 Gaussian 16, Revision A.03,
 Gaussian 16:  ES64L-G16RevA.03 25-Dec-2016

 ----------------------------------------------------------------
 #P UB3LYP/6-311++G(d,p) SCRF=(PCM,Solvent=n,n-DiMethylFormamide)
 ----------------------------------------------------------------

 -------
 Reduced
 -------
 Symbolic Z-matrix:
 Charge = -2 Multiplicity = 1

                         Standard orientation:
 ---------------------------------------------------------------------
 Center     Atomic      Atomic             Coordinates (Angstroms)
 Number     Number       Type             X           Y           Z
 ---------------------------------------------------------------------
      1          6           0       11.760101    1.139924    1.209511
      2          6           0       12.298210    2.250377    0.587851
      3          6           0       11.643801    2.822912   -0.527868
      4          6           0       10.555513    0.552943    0.752661
      5          6           0        9.889063    1.134384   -0.380147
      6          6           0       10.462328    2.264069   -0.990577
      7          6           0       10.003780   -0.603436    1.405398
      8          6           0        8.777852   -1.114383    0.857891
      9          6           0        8.109626   -0.585652   -0.235765
     10          6           0        8.633333    0.578722   -0.909079
     11          8           0       10.510557   -1.209635    2.423186
     12          8           0        8.046621    1.097659   -1.907639
     13          8           0        8.308154   -2.215216    1.528589
     14          6           0        6.831058   -1.199012   -0.746112
     15          6           0        5.559287   -0.521960   -0.197450
     16          6           0        4.266606   -1.125836   -0.759063
     17          6           0        2.986280   -0.474850   -0.221025
     18          6           0        1.697981   -1.081106   -0.791716
     19          6           0        0.412101   -0.440432   -0.254701
     20          6           0       -0.868196   -1.051803   -0.836689
     21          6           0       -2.159644   -0.420604   -0.301338
     22          6           0       -3.427293   -1.044131   -0.898344
     23          6           0       -4.705062   -0.419487   -0.358278
     24          1           0       12.244386    0.684061    2.066717
     25          1           0       13.224409    2.685061    0.956130
     26          1           0       12.065264    3.696548   -1.018067
     27          1           0        9.936854    2.681766   -1.843017
     28          1           0        9.006268   -2.318711    2.217878
     29          1           0        6.805464   -2.264135   -0.490388
     30          1           0        6.821883   -1.104698   -1.837854
     31          1           0        5.605265    0.544384   -0.442836
     32          1           0        5.555830   -0.601067    0.896606
     33          1           0        4.242358   -2.201943   -0.536099
     34          1           0        4.279234   -1.042257   -1.854290
     35          1           0        3.009045    0.600331   -0.441916
     36          1           0        2.971004   -0.558967    0.873857
     37          1           0        1.680252   -2.157888   -0.575772
     38          1           0        1.713618   -0.993149   -1.886283
     39          1           0        0.428284    0.636459   -0.468071
     40          1           0        0.392010   -0.531869    0.839335
     41          1           0       -0.881398   -2.129314   -0.626783
     42          1           0       -0.848310   -0.957021   -1.930200
     43          1           0       -2.147606    0.657042   -0.509945
     44          1           0       -2.182269   -0.518695    0.791820
     45          1           0       -3.448957   -2.119359   -0.689600
     46          1           0       -3.419085   -0.935886   -1.988472
     47          1           0       -4.734897    0.655700   -0.579952
     48          1           0       -4.765539   -0.541881    0.731371
     49          8           0       -5.812189   -1.072772   -0.980625
     50          6           0       -7.083496   -0.686111   -0.649688
     51          6           0       -7.397631    0.324309    0.262983
     52          6           0       -8.120544   -1.372305   -1.289137
     53          6           0       -8.735398    0.631362    0.524296
     54          1           0       -6.619854    0.874994    0.776051
     55          6           0       -9.444111   -1.045447   -1.020006
     56          1           0       -7.869036   -2.156083   -1.994749
     57          6           0       -9.786847   -0.037207   -0.108269
     58          1           0       -8.949797    1.418731    1.240067
     59          1           0      -10.234694   -1.587923   -1.530899
     60          6           0      -11.241185    0.298032    0.168794
     61          6           0      -11.672488   -0.067432    1.618333
     62          1           0      -10.844561    0.131169    2.306995
     63          1           0      -11.853616   -1.147686    1.664082
     64          6           0      -12.929026    0.700550    2.089097
     65          1           0      -12.632046    1.624308    2.599891
     66          1           0      -13.473161    0.107015    2.833874
     67          6           0      -13.843716    1.058255    0.914308
     68          1           0      -14.770987    1.522068    1.272022
     69          1           0      -14.149341    0.134343    0.407633
     70          6           0      -13.129957    1.995133   -0.084779
     71          1           0      -13.329466    3.039988    0.178636
     72          1           0      -13.554456    1.848863   -1.085419
     73          6           0      -11.600606    1.768290   -0.131382
     74          1           0      -11.206985    2.056746   -1.112213
     75          1           0      -11.103465    2.415322    0.600608
     76          1           0      -11.837363   -0.315053   -0.517090
 ---------------------------------------------------------------------

 SCF Done:  E(UB3LYP) =  -1545.08346948     A.U. after   17 cycles

 The electronic state is 1-A.
 Alpha  occ. eigenvalues --  -19.15406 -19.10872 -19.02100 -19.01324 -10.23583
 Alpha  occ. eigenvalues --  -10.22336 -10.17586 -10.17546 -10.17506 -10.17491
 Alpha  occ. eigenvalues --  -10.17344 -10.17227 -10.17064 -10.16760 -10.16724
 Alpha  occ. eigenvalues --  -10.16459 -10.16118 -10.16094 -10.16022 -10.15993
 Alpha  occ. eigenvalues --  -10.15985 -10.15941 -10.15750 -10.15633 -10.15583
 Alpha  occ. eigenvalues --  -10.15374 -10.15031 -10.14452 -10.14400 -10.14100
 Alpha  occ. eigenvalues --  -10.14057 -10.13968 -10.13796 -10.12976 -10.12610
 Alpha  occ. eigenvalues --  -10.11793  -1.06823  -1.02383  -0.93921  -0.93150
 Alpha  occ. eigenvalues --   -0.86338  -0.82808  -0.82054  -0.81141  -0.79611
 Alpha  occ. eigenvalues --   -0.77921  -0.76738  -0.75546  -0.75156  -0.73496
 Alpha  occ. eigenvalues --   -0.73442  -0.71747  -0.71605  -0.70058  -0.67770
 Alpha  occ. eigenvalues --   -0.64907  -0.62806  -0.62588  -0.61295  -0.60909
 Alpha  occ. eigenvalues --   -0.59718  -0.58369  -0.58090  -0.57709  -0.57149
 Alpha  occ. eigenvalues --   -0.56529  -0.54968  -0.53844  -0.53096  -0.52465
 Alpha  occ. eigenvalues --   -0.49914  -0.49544  -0.49505  -0.48250  -0.47609
 Alpha  occ. eigenvalues --   -0.46950  -0.46708  -0.45709  -0.45061  -0.44348
 Alpha  occ. eigenvalues --   -0.43411  -0.43121  -0.43044  -0.42642  -0.42315
 Alpha  occ. eigenvalues --   -0.42046  -0.41846  -0.41123  -0.40334  -0.40067
 Alpha  occ. eigenvalues --   -0.39731  -0.39345  -0.38857  -0.38504  -0.38217
 Alpha  occ. eigenvalues --   -0.37316  -0.37143  -0.37003  -0.36737  -0.36108
 Alpha  occ. eigenvalues --   -0.35907  -0.35813  -0.35312  -0.35098  -0.34813
 Alpha  occ. eigenvalues --   -0.34678  -0.34353  -0.34334  -0.33903  -0.33300
 Alpha  occ. eigenvalues --   -0.32859  -0.32596  -0.32254  -0.31929  -0.31767
 Alpha  occ. eigenvalues --   -0.31692  -0.31463  -0.30801  -0.30633  -0.30420
 Alpha  occ. eigenvalues --   -0.30012  -0.29789  -0.29534  -0.29481  -0.28931
 Alpha  occ. eigenvalues --   -0.26017  -0.22587  -0.22291  -0.22042  -0.20940
 Alpha  occ. eigenvalues --   -0.19126  -0.18769  -0.09963
 Alpha virt. eigenvalues --   -0.01892  -0.00660  -0.00237  -0.00220  -0.00094
 Alpha virt. eigenvalues --    0.00122   0.00448   0.00651   0.00976   0.01052
 Alpha virt. eigenvalues --    0.01321   0.01455   0.01691   0.01885   0.02113

  Beta  occ. eigenvalues --  -19.15406 -19.10872 -19.02100 -19.01324 -10.23583
  Beta  occ. eigenvalues --  -10.22336 -10.17586 -10.17546 -10.17506 -10.17491
  Beta  occ. eigenvalues --  -10.17344 -10.17227 -10.17064 -10.16760 -10.16724
  Beta  occ. eigenvalues --  -10.16459 -10.16118 -10.16094 -10.16022 -10.15993
  Beta  occ. eigenvalues --  -10.15985 -10.15941 -10.15750 -10.15633 -10.15583
  Beta  occ. eigenvalues --  -10.15374 -10.15031 -10.14452 -10.14400 -10.14100
  Beta  occ. eigenvalues --  -10.14057 -10.13968 -10.13796 -10.12976 -10.12610
  Beta  occ. eigenvalues --  -10.11793  -1.06823  -1.02383  -0.93921  -0.93150
  Beta  occ. eigenvalues --   -0.86338  -0.82808  -0.82054  -0.81141  -0.79611
  Beta  occ. eigenvalues --   -0.77921  -0.76738  -0.75546  -0.75156  -0.73496
  Beta  occ. eigenvalues --   -0.73442  -0.71747  -0.71605  -0.70058  -0.67770
  Beta  occ. eigenvalues --   -0.64907  -0.62806  -0.62588  -0.61295  -0.60909
  Beta  occ. eigenvalues --   -0.59718  -0.58369  -0.58090  -0.57709  -0.57149
  Beta  occ. eigenvalues --   -0.56529  -0.54968  -0.53844  -0.53096  -0.52465
  Beta  occ. eigenvalues --   -0.49914  -0.49544  -0.49505  -0.48250  -0.47609
  Beta  occ. eigenvalues --   -0.46950  -0.46708  -0.45709  -0.45061  -0.44348
  Beta  occ. eigenvalues --   -0.43411  -0.43121  -0.43044  -0.42642  -0.42315
  Beta  occ. eigenvalues --   -0.42046  -0.41846  -0.41123  -0.40334  -0.40067
  Beta  occ. eigenvalues --   -0.39731  -0.39345  -0.38857  -0.38504  -0.38217
  Beta  occ. eigenvalues --   -0.37316  -0.37143  -0.37003  -0.36737  -0.36108
  Beta  occ. eigenvalues --   -0.35907  -0.35813  -0.35312  -0.35098  -0.34813
  Beta  occ. eigenvalues --   -0.34678  -0.34353  -0.34334  -0.33903  -0.33300
  Beta  occ. eigenvalues --   -0.32859  -0.32596  -0.32254  -0.31929  -0.31767
  Beta  occ. eigenvalues --   -0.31692  -0.31463  -0.30801  -0.30633  -0.30420
  Beta  occ. eigenvalues --   -0.30012  -0.29789  -0.29534  -0.29481  -0.28931
  Beta  occ. eigenvalues --   -0.26017  -0.22587  -0.22291  -0.22042  -0.20940
  Beta  occ. eigenvalues --   -0.19126  -0.18769  -0.09963
  Beta virt. eigenvalues --   -0.01892  -0.00660  -0.00237  -0.00220  -0.00094
  Beta virt. eigenvalues --    0.00122   0.00448   0.00651   0.00976   0.01052
  Beta virt. eigenvalues --    0.01321   0.01455   0.01691   0.01885   0.02113

 Mulliken charges and spin densities:
               1          2
     1  C   -0.068923   0.000000
     2  C   -0.398374  -0.000000
     3  C   -0.492577  -0.000000
     4  C    0.440304  -0.000000
     5  C   -0.044061  -0.000000
     6  C    0.018537   0.000000
     7  C   -0.974897  -0.000000
     8  C   -0.649148   0.000000
     9  C    1.976388   0.000000
    10  C   -0.771823  -0.000000
    11  O   -0.725257   0.000000
    12  O   -0.634318   0.000000
    13  O   -0.337406  -0.000000
    14  C   -0.346040   0.000000
    15  C   -0.826097   0.000000
    16  C   -0.282599  -0.000000
    17  C   -0.069508   0.000000
    18  C   -0.018546  -0.000000
    19  C   -0.156332  -0.000000
    20  C   -0.189706  -0.000000
    21  C   -0.304996   0.000000
    22  C   -0.480308  -0.000000
    23  C   -0.701325  -0.000000
    24  H    0.140035  -0.000000
    25  H    0.152249   0.000000
    26  H    0.146504  -0.000000
    27  H    0.140214   0.000000
    28  H    0.276058  -0.000000
    29  H    0.203051  -0.000000
    30  H    0.171779  -0.000000
    31  H    0.177783  -0.000000
    32  H    0.152218  -0.000000
    33  H    0.102773  -0.000000
    34  H    0.110000  -0.000000
    35  H    0.122456  -0.000000
    36  H    0.123187  -0.000000
    37  H    0.131883   0.000000
    38  H    0.132467  -0.000000
    39  H    0.132096  -0.000000
    40  H    0.131695  -0.000000
    41  H    0.127606  -0.000000
    42  H    0.127144  -0.000000
    43  H    0.124550  -0.000000
    44  H    0.124218  -0.000000
    45  H    0.164529   0.000000
    46  H    0.166421   0.000000
    47  H    0.192320   0.000000
    48  H    0.192188   0.000000
    49  O   -0.100858  -0.000000
    50  C    0.087797   0.000000
    51  C   -0.059863  -0.000000
    52  C   -0.257492   0.000000
    53  C   -0.505849  -0.000000
    54  H    0.182120  -0.000000
    55  C   -0.281574   0.000000
    56  H    0.192495  -0.000000
    57  C    0.715979   0.000000
    58  H    0.211399  -0.000000
    59  H    0.181452   0.000000
    60  C    0.422386   0.000000
    61  C   -0.541461  -0.000000
    62  H    0.154413   0.000000
    63  H    0.162979  -0.000000
    64  C   -0.469338   0.000000
    65  H    0.132121   0.000000
    66  H    0.168447   0.000000
    67  C   -0.258637  -0.000000
    68  H    0.179950  -0.000000
    69  H    0.135997   0.000000
    70  C   -0.504931   0.000000
    71  H    0.156240  -0.000000
    72  H    0.145209   0.000000
    73  C   -0.477545   0.000000
    74  H    0.174518   0.000000
    75  H    0.140603   0.000000
    76  H    0.185035  -0.000000
 Sum of Mulliken charges =  -2.00000  -0.00000

 Dipole moment (field-independent basis, Debye):
    X=            -89.3292    Y=              0.5043    Z=             -1.1333  Tot=             89.3378
 Quadrupole moment (field-independent basis, Debye-Ang):
   XX=          -1098.1424   YY=           -250.6327   ZZ=           -264.4378
   XY=            -14.5060   XZ=            -44.6732   YZ=             18.2497

 Normal termination of Gaussian 16 at Fri Mar 15 03:29:38 2024.
