 Q-Chem 5.4, Q-Chem, Inc., Pleasanton, CA (2021)
 Q-Chem 5.4.0 for Intel X86 EM64T Linux

User input:
--------------------------------------------------------------
$molecule
0 1
C                 -1.4289270000      2.1403070000      0.0339070000
C                 -2.7495220000      1.4662560000      0.0316490000
C                 -2.9375390000      0.1340230000      0.0333700000
C                 -1.6935120000     -0.7086130000      0.0380140000
C                 -0.3729090000     -0.0345700000      0.0401420000
C                 -0.1848650000      1.2976610000      0.0385580000
O                 -1.3956090000      3.3625150000      0.0319580000
O                 -1.7268580000     -1.9308220000      0.0401490000
C                  1.1928510000      1.9643780000      0.0411430000
C                  1.3507990000      2.8395590000     -1.2275930000
C                  1.3438700000      2.8435810000      1.3079720000
C                  2.3226010000      0.9182100000      0.0459070000
C                 -4.3152230000     -0.5327760000      0.0309800000
C                 -5.4450700000      0.5133280000      0.0263550000
C                 -4.4729050000     -1.4078210000      1.2998470000
C                 -4.4663070000     -1.4120510000     -1.2357510000
H                 -3.5756440000      2.1659210000      0.0283970000
H                  0.4532030000     -0.7342510000      0.0433330000
H                  1.2466900000      2.2349100000     -2.1334530000
H                  2.3490650000      3.2867740000     -1.2375930000
H                  0.6146880000      3.6414610000     -1.2562390000
H                  0.6074930000      3.6454500000      1.3301610000
H                  2.3419600000      3.2911130000      1.3218600000
H                  1.2350990000      2.2417370000      2.2151360000
H                  3.2867970000      1.4323790000      0.0476590000
H                  2.2882220000      0.2807700000      0.9338370000
H                  2.2930340000      0.2778250000     -0.8400780000
H                 -5.4110300000      1.1506360000     -0.8616820000
H                 -5.4152450000      1.1538340000      0.9122400000
H                 -6.4092100000     -0.0009390000      0.0249630000
H                 -4.3688770000     -0.8029960000      2.2055920000
H                 -3.7366500000     -2.2095940000      1.3285930000
H                 -5.4710690000     -1.8552720000      1.3099640000
H                 -4.3575360000     -0.8102820000     -2.1429730000
H                 -5.4643900000     -1.8595860000     -1.2496100000
H                 -3.7299050000     -2.2139050000     -1.2579350000
$end
$rem
MAX_SCF_CYCLES=200
BASIS  =  6-311++G(d,p)
GUI  =  2
JOB_TYPE  =  SP
METHOD  =  B3LYP
SOLVENT_METHOD = COSMO
$end
$solvent
dielectric 37.219
opticaldielectric 1.43
$end

--------------------------------------------------------------

             Standard Nuclear Orientation (Angstroms)
    I     Atom           X                Y                Z
 ----------------------------------------------------------------
    1      C       0.7807622836    -1.1987797537     0.0000947492
    2      C      -0.7017905911    -1.2176999680     0.0000441581
    3      C      -1.4888982004    -0.1265264112     0.0000713855
    4      C      -0.7807865095     1.1987048912     0.0000844793
    5      C       0.7017695181     1.2176355605     0.0002651040
    6      C       1.4889002940     0.1264767237     0.0001009510
    7      O       1.3797242844    -2.2646835037     0.0000772732
    8      O      -1.3797734678     2.2645969819    -0.0000841151
    9      C       3.0185776979     0.1785021396    -0.0000142997
   10      C       3.5641883659    -0.5256989611     1.2676568721
   11      C       3.5637924778    -0.5256387813    -1.2679207537
   12      C       3.5307407831     1.6305745251    -0.0000770389
   13      C      -3.0185852011    -0.1784638358    -0.0000081417
   14      C      -3.5308637219    -1.6305244144    -0.0000845471
   15      C      -3.5638969410     0.5257412252    -1.2678098483
   16      C      -3.5638908927     0.5257107698     1.2678002643
   17      H      -1.1067501988    -2.2217054246    -0.0000318391
   18      H       1.1067127296     2.2216503499     0.0004021017
   19      H       3.1889574880    -0.0416541809     2.1742570462
   20      H       4.6558286411    -0.4562917852     1.2795066162
   21      H       3.2864698965    -1.5782934173     1.2930375317
   22      H       3.2859006794    -1.5781906973    -1.2933754875
   23      H       4.6554611062    -0.4565295857    -1.2799598860
   24      H       3.1885043010    -0.0413519685    -2.1743527263
   25      H       4.6234504944     1.6248971494    -0.0001804930
   26      H       3.2046603110     2.1809675328    -0.8870214661
   27      H       3.2048446506     2.1810248806     0.8869024946
   28      H      -3.2051448688    -2.1809588707     0.8869662181
   29      H      -3.2046830808    -2.1809618890    -0.8869636121
   30      H      -4.6235689985    -1.6247332624    -0.0003407807
   31      H      -3.1886559012     0.0415026664    -2.1742955297
   32      H      -3.2859907993     1.5782889066    -1.2932903489
   33      H      -4.6555567510     0.4565907067    -1.2797759295
   34      H      -3.1886377503     0.0414901612     2.1742903626
   35      H      -4.6555546811     0.4566075686     1.2798104200
   36      H      -3.2859699772     1.5782610758     1.2932500381
 ----------------------------------------------------------------

    9    -696.1601033561      1.91e-06  Convergence criterion met
 Total energy in the final basis set =     -696.1601033561
    4    -696.1705529172      5.38e-06  Convergence criterion met
 Total energy in the final basis set =     -696.1705529172

                    Orbital Energies (a.u.)
 --------------------------------------------------------------

 Alpha MOs
 -- Occupied --
-19.1386 -19.1385 -10.2843 -10.2843 -10.2138 -10.2137 -10.2012 -10.2012
-10.1991 -10.1991 -10.1589 -10.1589 -10.1574 -10.1574 -10.1574 -10.1574
 -1.0712  -1.0694  -0.8694  -0.8435  -0.8066  -0.7623  -0.7040  -0.6917
 -0.6875  -0.6875  -0.6851  -0.6410  -0.6067  -0.5655  -0.5449  -0.5235
 -0.4942  -0.4806  -0.4720  -0.4564  -0.4518  -0.4428  -0.4403  -0.4377
 -0.4371  -0.4259  -0.4258  -0.3957  -0.3869  -0.3855  -0.3841  -0.3792
 -0.3673  -0.3666  -0.3593  -0.3538  -0.3414  -0.3403  -0.3401  -0.3329
 -0.3010  -0.2824  -0.2823  -0.2704

          Ground-State Mulliken Net Atomic Charges

     Atom                 Charge (a.u.)
  ----------------------------------------
      1 C                    -0.929205
      2 C                    -0.428155
      3 C                     1.302000
      4 C                    -0.928894
      5 C                    -0.427777
      6 C                     1.302635
      7 O                    -0.264508
      8 O                    -0.264441
      9 C                     0.507429
     10 C                    -0.713073
     11 C                    -0.712872
     12 C                    -0.538384
     13 C                     0.507892
     14 C                    -0.538349
     15 C                    -0.712726
     16 C                    -0.713184
     17 H                     0.256688
     18 H                     0.256710
     19 H                     0.158368
     20 H                     0.175703
     21 H                     0.179482
     22 H                     0.179460
     23 H                     0.175611
     24 H                     0.158385
     25 H                     0.190962
     26 H                     0.150621
     27 H                     0.150577
     28 H                     0.150563
     29 H                     0.150581
     30 H                     0.190944
     31 H                     0.158437
     32 H                     0.179444
     33 H                     0.175595
     34 H                     0.158362
     35 H                     0.175644
     36 H                     0.179475
  ----------------------------------------
  Sum of atomic charges =     0.000000

                    Cartesian Multipole Moments
 -----------------------------------------------------------------
    Charge (ESU x 10^10)
                 0.0000
    Dipole Moment (Debye)
         X       0.0000      Y       0.0003      Z      -0.0006
       Tot       0.0006
    Quadrupole Moments (Debye-Ang)
        XX     -90.2707     XY      12.9051     YY    -113.2071
        XZ      -0.0004     YZ       0.0021     ZZ     -98.8219

 Total job time:  90.72s(wall), 703.12s(cpu)
        *  Thank you very much for using Q-Chem.  Have a nice day.  *
