 Q-Chem 5.4, Q-Chem, Inc., Pleasanton, CA (2021)
 Q-Chem 5.4.0 for Intel X86 EM64T Linux

User input:
--------------------------------------------------------------
$molecule
0 1
N                 -3.4464670000      1.5826470000      0.4247530000
C                 -2.8460190000      0.3611830000      0.2761890000
C                 -3.6746640000     -0.7881560000      0.2482380000
C                 -3.1552480000     -2.0465480000      0.1341960000
C                 -1.7587330000     -2.2723020000      0.0496500000
N                 -1.3241070000     -3.5626240000     -0.0950390000
C                 -0.8975440000     -1.1477090000      0.0833760000
C                  0.5551490000     -1.3415690000      0.0396620000
O                  1.0352250000     -2.5017410000     -0.0164930000
C                  1.4457060000     -0.1769970000      0.0616270000
C                  2.8497960000     -0.3643960000      0.0319260000
N                  3.4568940000     -1.5914320000      0.0547840000
C                  3.6767000000      0.7863910000      0.0140710000
C                  3.1532000000      2.0482280000      0.0217850000
C                  1.7549020000      2.2755070000      0.0602720000
N                  1.3136790000      3.5713530000      0.0329970000
C                  0.8960460000      1.1489630000      0.0881240000
C                 -0.5551900000      1.3415780000      0.1695590000
O                 -1.0353110000      2.5017370000      0.2259760000
C                 -1.4442790000      0.1757950000      0.1850150000
H                 -2.8561410000      2.3973570000      0.3098350000
H                 -4.4382080000      1.6500790000      0.2689460000
H                 -4.7495510000     -0.6548860000      0.3210690000
H                 -3.8220320000     -2.9027220000      0.1056910000
H                 -1.9687300000     -4.3092340000      0.1035700000
H                 -0.3262940000     -3.7180120000     -0.0196410000
H                  4.4333430000     -1.6462120000     -0.1817460000
H                  2.8573930000     -2.3984060000     -0.0670550000
H                  4.7536570000      0.6513380000     -0.0051320000
H                  3.8179170000      2.9061190000     -0.0030430000
H                  0.3251290000      3.7193040000      0.1952240000
H                  1.9737840000      4.3053660000      0.2276220000
$end
$rem
MAX_SCF_CYCLES=200
BASIS  =  6-311++G(d,p)
GUI  =  2
JOB_TYPE  =  SP
METHOD  =  B3LYP
SOLVENT_METHOD = PCM
$end
$pcm
theory = CPCM
$end
$solvent
dielectric 37.219
opticaldielectric 1.43
$end

--------------------------------------------------------------

             Standard Nuclear Orientation (Angstroms)
    I     Atom           X                Y                Z
 ----------------------------------------------------------------
    1      N      -3.4464670000     1.5826470000     0.4247530000
    2      C      -2.8460190000     0.3611830000     0.2761890000
    3      C      -3.6746640000    -0.7881560000     0.2482380000
    4      C      -3.1552480000    -2.0465480000     0.1341960000
    5      C      -1.7587330000    -2.2723020000     0.0496500000
    6      N      -1.3241070000    -3.5626240000    -0.0950390000
    7      C      -0.8975440000    -1.1477090000     0.0833760000
    8      C       0.5551490000    -1.3415690000     0.0396620000
    9      O       1.0352250000    -2.5017410000    -0.0164930000
   10      C       1.4457060000    -0.1769970000     0.0616270000
   11      C       2.8497960000    -0.3643960000     0.0319260000
   12      N       3.4568940000    -1.5914320000     0.0547840000
   13      C       3.6767000000     0.7863910000     0.0140710000
   14      C       3.1532000000     2.0482280000     0.0217850000
   15      C       1.7549020000     2.2755070000     0.0602720000
   16      N       1.3136790000     3.5713530000     0.0329970000
   17      C       0.8960460000     1.1489630000     0.0881240000
   18      C      -0.5551900000     1.3415780000     0.1695590000
   19      O      -1.0353110000     2.5017370000     0.2259760000
   20      C      -1.4442790000     0.1757950000     0.1850150000
   21      H      -2.8561410000     2.3973570000     0.3098350000
   22      H      -4.4382080000     1.6500790000     0.2689460000
   23      H      -4.7495510000    -0.6548860000     0.3210690000
   24      H      -3.8220320000    -2.9027220000     0.1056910000
   25      H      -1.9687300000    -4.3092340000     0.1035700000
   26      H      -0.3262940000    -3.7180120000    -0.0196410000
   27      H       4.4333430000    -1.6462120000    -0.1817460000
   28      H       2.8573930000    -2.3984060000    -0.0670550000
   29      H       4.7536570000     0.6513380000    -0.0051320000
   30      H       3.8179170000     2.9061190000    -0.0030430000
   31      H       0.3251290000     3.7193040000     0.1952240000
   32      H       1.9737840000     4.3053660000     0.2276220000
 ----------------------------------------------------------------

    9    -910.5025668776      3.12e-06  Convergence criterion met
 Total energy in the final basis set =     -910.5025668776

                    Orbital Energies (a.u.)
 --------------------------------------------------------------

 Alpha MOs
 -- Occupied --
-19.1045 -19.1045 -14.3191 -14.3191 -14.3191 -14.3191 -10.2592 -10.2592
-10.2302 -10.2302 -10.2302 -10.2302 -10.1883 -10.1883 -10.1879 -10.1879
-10.1865 -10.1865 -10.1858 -10.1858  -1.0389  -1.0367  -0.9361  -0.9312
 -0.9254  -0.9204  -0.8517  -0.8328  -0.7964  -0.7609  -0.7397  -0.7244
 -0.6744  -0.6545  -0.6530  -0.6033  -0.5823  -0.5793  -0.5595  -0.5399
 -0.5294  -0.5199  -0.5068  -0.4999  -0.4961  -0.4820  -0.4636  -0.4592
 -0.4535  -0.4459  -0.4332  -0.4265  -0.4132  -0.4093  -0.4084  -0.4058
 -0.3898  -0.3811  -0.3730  -0.3686  -0.3613  -0.3464  -0.2918  -0.2773
 -0.2718  -0.2680  -0.2644  -0.2584  -0.2067  -0.1829

          Ground-State Mulliken Net Atomic Charges

     Atom                 Charge (a.u.)
  ----------------------------------------
      1 N                    -0.441524
      2 C                    -0.045361
      3 C                    -0.356997
      4 C                    -0.362705
      5 C                    -0.048035
      6 N                    -0.441100
      7 C                     0.508184
      8 C                    -0.618070
      9 O                    -0.409510
     10 C                     0.502727
     11 C                    -0.044853
     12 N                    -0.441332
     13 C                    -0.357316
     14 C                    -0.362499
     15 C                    -0.047212
     16 N                    -0.441189
     17 C                     0.506336
     18 C                    -0.619230
     19 O                    -0.409255
     20 C                     0.502481
     21 H                     0.341660
     22 H                     0.300646
     23 H                     0.214650
     24 H                     0.214553
     25 H                     0.300400
     26 H                     0.341465
     27 H                     0.300424
     28 H                     0.341693
     29 H                     0.214568
     30 H                     0.214502
     31 H                     0.341404
     32 H                     0.300496
  ----------------------------------------
  Sum of atomic charges =     0.000000

                    Cartesian Multipole Moments
 -----------------------------------------------------------------
    Charge (ESU x 10^10)
                 0.0000
    Dipole Moment (Debye)
         X      -0.0026      Y       0.0016      Z       0.0039
       Tot       0.0050
    Quadrupole Moments (Debye-Ang)
        XX     -70.4183     XY      13.6633     YY     -97.6333
        XZ      -1.6874     YZ       0.3360     ZZ    -124.7505

 Total job time:  81.04s(wall), 460.52s(cpu)
        *  Thank you very much for using Q-Chem.  Have a nice day.  *
