 Gaussian 16, Revision A.03,
 Gaussian 16:  ES64L-G16RevA.03 25-Dec-2016

 ----------------------------------------------------------------------
 #P UB3LYP/6-311++G(d,p) nosym opt freq SCRF=(PCM,Solvent=n,n-DiMethylF
 ormamide)
 ----------------------------------------------------------------------

 -------
 Reduced
 -------
 Symbolic Z-matrix:
 Charge = -2 Multiplicity = 1

 SCF Done:  E(UB3LYP) =  -1941.36946250     A.U. after   17 cycles
 SCF Done:  E(UB3LYP) =  -1941.36872864     A.U. after   17 cycles
 SCF Done:  E(UB3LYP) =  -1941.37152716     A.U. after   15 cycles
 SCF Done:  E(UB3LYP) =  -1941.37221755     A.U. after   17 cycles
 SCF Done:  E(UB3LYP) =  -1941.37263392     A.U. after   17 cycles
 SCF Done:  E(UB3LYP) =  -1941.37267605     A.U. after   17 cycles
 SCF Done:  E(UB3LYP) =  -1941.37282016     A.U. after   14 cycles
 SCF Done:  E(UB3LYP) =  -1941.37288455     A.U. after   14 cycles
 SCF Done:  E(UB3LYP) =  -1941.37289897     A.U. after   17 cycles
 SCF Done:  E(UB3LYP) =  -1941.37291349     A.U. after   12 cycles
 SCF Done:  E(UB3LYP) =  -1941.37291860     A.U. after   13 cycles
 SCF Done:  E(UB3LYP) =  -1941.37292146     A.U. after   16 cycles
 SCF Done:  E(UB3LYP) =  -1941.37292542     A.U. after   14 cycles
 SCF Done:  E(UB3LYP) =  -1941.37292245     A.U. after   14 cycles
 SCF Done:  E(UB3LYP) =  -1941.37292665     A.U. after   14 cycles
 SCF Done:  E(UB3LYP) =  -1941.37292659     A.U. after   12 cycles
 SCF Done:  E(UB3LYP) =  -1941.37292675     A.U. after   12 cycles
 SCF Done:  E(UB3LYP) =  -1941.37292677     A.U. after   12 cycles
 Optimization completed.
    -- Stationary point found.
 Normal termination of Gaussian 16 at Sat Feb 10 17:10:18 2024.

 ----------------------------------------------------------------------
 #P Geom=AllCheck Guess=TCheck SCRF=Check GenChk UB3LYP/6-311++G(d,p) F
 req
 ----------------------------------------------------------------------

 Structure from the checkpoint file:  "072-an.chk"
 -------
 Reduced
 -------
 Charge = -2 Multiplicity = 1

                          Input orientation:
 ---------------------------------------------------------------------
 Center     Atomic      Atomic             Coordinates (Angstroms)
 Number     Number       Type             X           Y           Z
 ---------------------------------------------------------------------
      1          6           0        0.742692    1.098938   -1.563272
      2          6           0       -0.637364    0.842531   -1.802128
      3          6           0       -1.433584    0.090069   -0.934077
      4          6           0       -0.975423   -0.496690    0.299166
      5          6           0        0.401881   -0.229148    0.544337
      6          6           0        1.201614    0.510393   -0.331506
      7          8           0        1.481437    1.795221   -2.357877
      8          8           0       -1.719993   -1.171828    1.106190
      9         16           0        2.910197    0.740315    0.143925
     10          6           0        3.164939    2.517792    0.358774
     11          6           0        3.622742    3.289218   -0.707251
     12          6           0        2.907331    3.082047    1.608571
     13          6           0        3.113673    4.448163    1.790591
     14          6           0        3.832406    4.653820   -0.510724
     15          6           0        3.577327    5.232536    0.732960
     16          8           0        3.837837    0.276002   -0.913925
     17          8           0        3.100349    0.136107    1.487098
     18          1           0        3.795115    2.824631   -1.666888
     19          1           0        2.562382    2.460547    2.425051
     20          1           0        4.192866    5.264212   -1.330776
     21          1           0        2.919723    4.896250    2.758194
     22          1           0        3.739612    6.294464    0.878839
     23         16           0       -3.145727   -0.125380   -1.401422
     24          6           0       -4.143325    0.686001   -0.130340
     25          6           0       -4.434383    2.043055   -0.273550
     26          6           0       -4.612603   -0.047781    0.956755
     27          6           0       -5.395898    0.593539    1.915863
     28          6           0       -5.212202    2.674556    0.694951
     29          6           0       -5.693770    1.950447    1.787123
     30          1           0       -1.077083    1.257557   -2.701002
     31          1           0        0.835321   -0.620542    1.456817
     32          1           0       -4.067303    2.590137   -1.132487
     33          1           0       -4.355012   -1.092840    1.045380
     34          1           0       -5.771301    0.032332    2.763863
     35          1           0       -5.447198    3.727575    0.592040
     36          1           0       -6.301184    2.444289    2.537105
     37          8           0       -3.526813   -1.556383   -1.429017
     38          8           0       -3.382466    0.636415   -2.654039
 ---------------------------------------------------------------------

 SCF Done:  E(UB3LYP) =  -1941.37292677     A.U. after    2 cycles

 Alpha  occ. eigenvalues --  -89.03913 -89.03900 -19.10579 -19.10554 -19.10489
 Alpha  occ. eigenvalues --  -19.10485 -19.03185 -19.03178 -10.20721 -10.20712
 Alpha  occ. eigenvalues --  -10.20209 -10.20198 -10.19039 -10.19036 -10.18711
 Alpha  occ. eigenvalues --  -10.18707 -10.18573 -10.18570 -10.18424 -10.18417
 Alpha  occ. eigenvalues --  -10.18342 -10.18335 -10.17997 -10.17985 -10.15189
 Alpha  occ. eigenvalues --  -10.15183  -8.10306  -8.10293  -6.06606  -6.06593
 Alpha  occ. eigenvalues --   -6.06485  -6.06472  -6.06370  -6.06357  -1.09477
 Alpha  occ. eigenvalues --   -1.09470  -0.98898  -0.98894  -0.95266  -0.94867
 Alpha  occ. eigenvalues --   -0.87246  -0.87239  -0.81944  -0.78308  -0.77442
 Alpha  occ. eigenvalues --   -0.76002  -0.75996  -0.75454  -0.69320  -0.68943
 Alpha  occ. eigenvalues --   -0.65028  -0.61884  -0.61867  -0.61746  -0.58777
 Alpha  occ. eigenvalues --   -0.57945  -0.56036  -0.53646  -0.52300  -0.49186
 Alpha  occ. eigenvalues --   -0.47939  -0.47843  -0.47498  -0.47272  -0.47063
 Alpha  occ. eigenvalues --   -0.46102  -0.45172  -0.45100  -0.44114  -0.43476
 Alpha  occ. eigenvalues --   -0.43392  -0.43381  -0.41796  -0.39495  -0.38847
 Alpha  occ. eigenvalues --   -0.38487  -0.37833  -0.37755  -0.37392  -0.37101
 Alpha  occ. eigenvalues --   -0.35861  -0.35717  -0.34711  -0.33888  -0.33108
 Alpha  occ. eigenvalues --   -0.32718  -0.31551  -0.31392  -0.29807  -0.29694
 Alpha  occ. eigenvalues --   -0.29209  -0.29065  -0.27568  -0.27193  -0.26781
 Alpha  occ. eigenvalues --   -0.26707  -0.24720  -0.24700  -0.21256  -0.21016
 Alpha  occ. eigenvalues --   -0.14328
 Alpha virt. eigenvalues --   -0.05067  -0.03639  -0.02227  -0.02180  -0.01330
 Alpha virt. eigenvalues --   -0.00344   0.00214   0.01309   0.01402   0.01842
 Alpha virt. eigenvalues --    0.02194   0.02925   0.03054   0.03463   0.03859

  Beta  occ. eigenvalues --  -89.03913 -89.03900 -19.10579 -19.10554 -19.10489
  Beta  occ. eigenvalues --  -19.10485 -19.03185 -19.03178 -10.20721 -10.20712
  Beta  occ. eigenvalues --  -10.20209 -10.20198 -10.19039 -10.19036 -10.18711
  Beta  occ. eigenvalues --  -10.18707 -10.18573 -10.18570 -10.18424 -10.18417
  Beta  occ. eigenvalues --  -10.18342 -10.18335 -10.17997 -10.17985 -10.15189
  Beta  occ. eigenvalues --  -10.15183  -8.10306  -8.10293  -6.06606  -6.06593
  Beta  occ. eigenvalues --   -6.06485  -6.06472  -6.06370  -6.06357  -1.09477
  Beta  occ. eigenvalues --   -1.09470  -0.98898  -0.98894  -0.95266  -0.94867
  Beta  occ. eigenvalues --   -0.87246  -0.87239  -0.81944  -0.78308  -0.77442
  Beta  occ. eigenvalues --   -0.76002  -0.75996  -0.75454  -0.69320  -0.68943
  Beta  occ. eigenvalues --   -0.65028  -0.61884  -0.61867  -0.61746  -0.58777
  Beta  occ. eigenvalues --   -0.57945  -0.56036  -0.53646  -0.52300  -0.49186
  Beta  occ. eigenvalues --   -0.47939  -0.47843  -0.47498  -0.47272  -0.47063
  Beta  occ. eigenvalues --   -0.46102  -0.45172  -0.45100  -0.44114  -0.43476
  Beta  occ. eigenvalues --   -0.43392  -0.43381  -0.41796  -0.39495  -0.38847
  Beta  occ. eigenvalues --   -0.38487  -0.37833  -0.37755  -0.37392  -0.37101
  Beta  occ. eigenvalues --   -0.35861  -0.35717  -0.34711  -0.33888  -0.33108
  Beta  occ. eigenvalues --   -0.32718  -0.31551  -0.31392  -0.29807  -0.29694
  Beta  occ. eigenvalues --   -0.29209  -0.29065  -0.27568  -0.27193  -0.26781
  Beta  occ. eigenvalues --   -0.26707  -0.24720  -0.24700  -0.21256  -0.21016
  Beta  occ. eigenvalues --   -0.14328
  Beta virt. eigenvalues --   -0.05067  -0.03639  -0.02227  -0.02180  -0.01330
  Beta virt. eigenvalues --   -0.00344   0.00214   0.01309   0.01402   0.01842
  Beta virt. eigenvalues --    0.02194   0.02925   0.03054   0.03463   0.03859

 Mulliken charges and spin densities:
               1          2
     1  C   -0.535305   0.000000
     2  C   -0.481803   0.000000
     3  C    0.464416  -0.000000
     4  C   -0.527036   0.000000
     5  C   -0.459388  -0.000000
     6  C    0.443116  -0.000000
     7  O   -0.580878   0.000000
     8  O   -0.580673  -0.000000
     9  S    0.350642   0.000000
    10  C    0.391381   0.000000
    11  C   -0.204623   0.000000
    12  C    0.041873  -0.000000
    13  C   -0.531529   0.000000
    14  C   -0.421669  -0.000000
    15  C   -0.312651   0.000000
    16  O   -0.249349  -0.000000
    17  O   -0.282701   0.000000
    18  H    0.270498  -0.000000
    19  H    0.242408  -0.000000
    20  H    0.208354  -0.000000
    21  H    0.205688   0.000000
    22  H    0.188798  -0.000000
    23  S    0.370148   0.000000
    24  C    0.398093   0.000000
    25  C    0.021151   0.000000
    26  C   -0.196395  -0.000000
    27  C   -0.425400  -0.000000
    28  C   -0.534183  -0.000000
    29  C   -0.310797  -0.000000
    30  H    0.230081  -0.000000
    31  H    0.229649  -0.000000
    32  H    0.241688   0.000000
    33  H    0.270458   0.000000
    34  H    0.208343   0.000000
    35  H    0.205608   0.000000
    36  H    0.188924  -0.000000
    37  O   -0.255241  -0.000000
    38  O   -0.281699  -0.000000
 Sum of Mulliken charges =  -2.00000   0.00000

 Dipole moment (field-independent basis, Debye):
    X=             -1.0829    Y=              4.7039    Z=             10.4348  Tot=             11.4971
 Quadrupole moment (field-independent basis, Debye-Ang):
   XX=           -236.5938   YY=           -168.7572   ZZ=           -207.3842
   XY=            -15.8683   XZ=            -15.0467   YZ=             17.9276

  Exact polarizability: 462.258  39.208 407.779 -26.492 -26.949 412.698
 Approx polarizability: 466.034  32.982 472.769 -38.027 -57.804 508.760

                      1                      2                      3
                      A                      A                      A
 Frequencies --     12.5932                18.2887                32.9307
 Red. masses --      5.8998                 5.2462                 4.3211
 Frc consts  --      0.0006                 0.0010                 0.0028
 IR Inten    --      2.4931                 0.1046                 0.7822

                      4                      5                      6
                      A                      A                      A
 Frequencies --     38.7707                46.8305                69.3546
 Red. masses --      7.7146                 5.0898                 6.7604
 Frc consts  --      0.0068                 0.0066                 0.0192
 IR Inten    --      6.2293                 1.4555                 6.7770

                      7                      8                      9
                      A                      A                      A
 Frequencies --     88.6304               132.1624               162.5042
 Red. masses --      8.2277                10.9308                 5.9613
 Frc consts  --      0.0381                 0.1125                 0.0928
 IR Inten    --      6.5256                 1.5893                10.5618

                     10                     11                     12
                      A                      A                      A
 Frequencies --    164.4403               175.5025               180.7512
 Red. masses --      9.5358                 7.0829                 6.8345
 Frc consts  --      0.1519                 0.1285                 0.1316
 IR Inten    --     30.5447                 1.3731                 3.3366

                     13                     14                     15
                      A                      A                      A
 Frequencies --    187.2753               198.1887               250.3977
 Red. masses --      7.1838                11.3765                 8.2850
 Frc consts  --      0.1484                 0.2633                 0.3061
 IR Inten    --      0.0024                 0.0460                 2.6328

                     16                     17                     18
                      A                      A                      A
 Frequencies --    251.6329               278.0343               284.7718
 Red. masses --      6.3982                13.1221                10.2067
 Frc consts  --      0.2387                 0.5977                 0.4877
 IR Inten    --      2.6581                 0.3990                22.0812

                     19                     20                     21
                      A                      A                      A
 Frequencies --    295.0806               302.3392               310.9860
 Red. masses --     10.1878                 8.3665                10.8326
 Frc consts  --      0.5227                 0.4506                 0.6173
 IR Inten    --      3.8882                 7.9972                 1.0131

                     22                     23                     24
                      A                      A                      A
 Frequencies --    368.4827               398.1455               412.0305
 Red. masses --      9.0408                 7.7100                 2.8486
 Frc consts  --      0.7233                 0.7201                 0.2849
 IR Inten    --      7.7460                 0.8935                 0.0592

                     25                     26                     27
                      A                      A                      A
 Frequencies --    412.3406               421.8900               441.5442
 Red. masses --      2.8618                10.9905                 6.6031
 Frc consts  --      0.2867                 1.1526                 0.7585
 IR Inten    --      0.0522                15.9399                17.6863

                     28                     29                     30
                      A                      A                      A
 Frequencies --    442.1979               458.5100               484.3223
 Red. masses --      4.6995                 5.1859                 8.7114
 Frc consts  --      0.5414                 0.6424                 1.2039
 IR Inten    --      7.9906                 0.0294                 0.5002

                     31                     32                     33
                      A                      A                      A
 Frequencies --    485.7598               520.0753               540.2172
 Red. masses --      5.4422                 6.7879                11.6431
 Frc consts  --      0.7566                 1.0817                 2.0020
 IR Inten    --      0.2359               175.7668                76.0525

                     34                     35                     36
                      A                      A                      A
 Frequencies --    567.9275               592.4975               625.4359
 Red. masses --      7.7308                 9.7079                 6.3826
 Frc consts  --      1.4691                 2.0079                 1.4710
 IR Inten    --     76.0778               971.0007                 0.7890

                     37                     38                     39
                      A                      A                      A
 Frequencies --    626.2080               630.7990               682.1632
 Red. masses --      6.4194                 5.7511                 5.8997
 Frc consts  --      1.4831                 1.3483                 1.6175
 IR Inten    --      0.5032                 1.4306                10.1838

                     40                     41                     42
                      A                      A                      A
 Frequencies --    696.7908               697.8420               700.3326
 Red. masses --      2.0987                 2.5394                 2.5344
 Frc consts  --      0.6004                 0.7286                 0.7324
 IR Inten    --     75.0920                24.2780                62.5791

                     43                     44                     45
                      A                      A                      A
 Frequencies --    700.8605               716.4599               730.5493
 Red. masses --      4.2239                 5.6061                 7.3234
 Frc consts  --      1.2224                 1.6955                 2.3028
 IR Inten    --     27.2170               116.3323                66.9366

                     46                     47                     48
                      A                      A                      A
 Frequencies --    762.7539               764.1672               834.1775
 Red. masses --      1.7165                 1.7551                 6.3678
 Frc consts  --      0.5884                 0.6038                 2.6107
 IR Inten    --     15.2362                16.4830               139.8406

                     49                     50                     51
                      A                      A                      A
 Frequencies --    843.4653               847.0548               848.9872
 Red. masses --      1.7427                 1.2718                 1.2482
 Frc consts  --      0.7305                 0.5377                 0.5301
 IR Inten    --      2.9191                 1.7362                 0.5288

                     52                     53                     54
                      A                      A                      A
 Frequencies --    864.1293               933.9335               935.5983
 Red. masses --      1.5485                 3.1023                 1.9497
 Frc consts  --      0.6813                 1.5943                 1.0055
 IR Inten    --     66.8450                33.2668                24.8054

                     55                     56                     57
                      A                      A                      A
 Frequencies --    936.7939               988.7610               989.5903
 Red. masses --      1.3860                 1.4079                 1.3952
 Frc consts  --      0.7166                 0.8110                 0.8050
 IR Inten    --      4.5472                 1.2700                 0.3219

                     58                     59                     60
                      A                      A                      A
 Frequencies --    996.8586              1010.4372              1010.8088
 Red. masses --      2.9047                 1.8969                 1.5249
 Frc consts  --      1.7007                 1.1411                 0.9180
 IR Inten    --      8.1486                 4.7731                 6.9884

                     61                     62                     63
                      A                      A                      A
 Frequencies --   1012.0336              1012.2517              1029.4506
 Red. masses --      2.6407                 3.1629                 5.2748
 Frc consts  --      1.5935                 1.9094                 3.2936
 IR Inten    --     26.5216                47.7121               637.5892

                     64                     65                     66
                      A                      A                      A
 Frequencies --   1034.1539              1045.9945              1050.9918
 Red. masses --      5.2755                 2.8235                 3.5244
 Frc consts  --      3.3242                 1.8201                 2.2937
 IR Inten    --    117.2132               290.7647                69.1465

                     67                     68                     69
                      A                      A                      A
 Frequencies --   1094.4248              1094.7914              1096.8265
 Red. masses --      1.6294                 1.5818                 3.1954
 Frc consts  --      1.1498                 1.1170                 2.2649
 IR Inten    --     23.9763                19.0234               147.8244

                     70                     71                     72
                      A                      A                      A
 Frequencies --   1098.1647              1169.4581              1176.1414
 Red. masses --      3.4268                10.4600                 4.8058
 Frc consts  --      2.4348                 8.4285                 3.9168
 IR Inten    --    176.4642                38.7011               186.3555

                     73                     74                     75
                      A                      A                      A
 Frequencies --   1177.5056              1178.4305              1179.1463
 Red. masses --      1.4163                 1.2328                 5.1191
 Frc consts  --      1.1570                 1.0087                 4.1935
 IR Inten    --    105.7120                30.3905               456.5714

                     76                     77                     78
                      A                      A                      A
 Frequencies --   1192.2507              1192.6639              1222.4791
 Red. masses --      1.1521                 1.1537                 1.3027
 Frc consts  --      0.9649                 0.9669                 1.1471
 IR Inten    --      5.2074                 3.8025                 2.5398

                     79                     80                     81
                      A                      A                      A
 Frequencies --   1261.5476              1328.1902              1328.4131
 Red. masses --      3.6416                 3.0948                 3.0953
 Frc consts  --      3.4146                 3.2166                 3.2182
 IR Inten    --    285.4373                 0.4452                 3.6570

                     82                     83                     84
                      A                      A                      A
 Frequencies --   1340.4871              1340.9182              1367.4313
 Red. masses --      1.7945                 1.7798                10.1470
 Frc consts  --      1.8998                 1.8855                11.1789
 IR Inten    --      4.3341                13.7912                 8.1071

                     85                     86                     87
                      A                      A                      A
 Frequencies --   1391.7601              1439.2336              1440.5054
 Red. masses --      3.7438                 8.0191                 5.0454
 Frc consts  --      4.2726                 9.7867                 6.1685
 IR Inten    --    450.5833                 6.1563              2150.1266

                     88                     89                     90
                      A                      A                      A
 Frequencies --   1471.5261              1471.7879              1503.2601
 Red. masses --      2.1198                 2.1178                 2.0279
 Frc consts  --      2.7045                 2.7029                 2.7000
 IR Inten    --     29.7223                25.2079                 5.7939

                     91                     92                     93
                      A                      A                      A
 Frequencies --   1503.2912              1601.1768              1616.6476
 Red. masses --      2.0262                 7.6809                 5.4072
 Frc consts  --      2.6979                11.6023                 8.3263
 IR Inten    --     11.4351                 6.1124                 4.0491

                     94                     95                     96
                      A                      A                      A
 Frequencies --   1617.0894              1619.0806              1619.3265
 Red. masses --      5.4300                 5.8079                 5.8220
 Frc consts  --      8.3661                 8.9703                 8.9948
 IR Inten    --      1.3497                 2.0381                 2.3812

                     97                     98                     99
                      A                      A                      A
 Frequencies --   3169.1648              3169.2352              3179.4294
 Red. masses --      1.0864                 1.0864                 1.0902
 Frc consts  --      6.4291                 6.4293                 6.4932
 IR Inten    --      0.5131                 0.5875                23.3787

                    100                    101                    102
                      A                      A                      A
 Frequencies --   3179.4391              3182.7167              3184.9399
 Red. masses --      1.0902                 1.0877                 1.0885
 Frc consts  --      6.4932                 6.4919                 6.5058
 IR Inten    --     19.3150                30.7868                 1.9978

                    103                    104                    105
                      A                      A                      A
 Frequencies --   3189.5732              3189.6525              3202.3524
 Red. masses --      1.0951                 1.0951                 1.0942
 Frc consts  --      6.5640                 6.5642                 6.6110
 IR Inten    --     23.5472                24.2663                 7.0363

                    106                    107                    108
                      A                      A                      A
 Frequencies --   3202.4062              3229.7299              3230.1700
 Red. masses --      1.0941                 1.0926                 1.0926
 Frc consts  --      6.6109                 6.7147                 6.7166
 IR Inten    --     10.4187                 3.6572                 3.6620

 - Thermochemistry -
 -------------------
 Temperature   298.150 Kelvin.  Pressure   1.00000 Atm.
 Atom     1 has atomic number  6 and mass  12.00000

 Molecular mass:   388.00753 amu.
 Principal axes and moments of inertia in atomic units:
                           1         2         3
     Eigenvalues --  5536.15642********************
           X            0.96437  -0.24448   0.10113
           Y            0.26291   0.84268  -0.46987
           Z            0.02966   0.47971   0.87693
 This molecule is an asymmetric top.
 Rotational symmetry number  1.
 Warning -- assumption of classical behavior for rotation
           may cause significant error
 Rotational temperatures (Kelvin)      0.01565     0.00477     0.00444
 Rotational constants (GHZ):           0.32599     0.09945     0.09247
 Zero-point vibrational energy     688032.2 (Joules/Mol)
                                  164.44365 (Kcal/Mol)
 Warning -- explicit consideration of  35 degrees of freedom as
           vibrations may cause significant error
 Vibrational temperatures:     18.12    26.31    47.38    55.78    67.38
          (Kelvin)             99.79   127.52   190.15   233.81   236.59
                              252.51   260.06   269.45   285.15   360.27
                              362.04   400.03   409.72   424.56   435.00
                              447.44   530.16   572.84   592.82   593.27
                              607.01   635.28   636.22   659.69   696.83
                              698.90   748.27   777.25   817.12   852.47
                              899.86   900.97   907.58   981.48  1002.53
                             1004.04  1007.62  1008.38  1030.83  1051.10
                             1097.43  1099.47  1200.20  1213.56  1218.72
                             1221.50  1243.29  1343.72  1346.12  1347.84
                             1422.61  1423.80  1434.26  1453.79  1454.33
                             1456.09  1456.40  1481.15  1487.92  1504.95
                             1512.14  1574.63  1575.16  1578.09  1580.01
                             1682.59  1692.21  1694.17  1695.50  1696.53
                             1715.38  1715.98  1758.87  1815.09  1910.97
                             1911.29  1928.66  1929.28  1967.43  2002.43
                             2070.74  2072.57  2117.20  2117.57  2162.86
                             2162.90  2303.74  2326.00  2326.63  2329.50
                             2329.85  4559.72  4559.82  4574.49  4574.50
                             4579.22  4582.42  4589.08  4589.20  4607.47
                             4607.55  4646.86  4647.49

 Zero-point correction=                           0.262058 (Hartree/Particle)
 Thermal correction to Energy=                    0.284353
 Thermal correction to Enthalpy=                  0.285297
 Thermal correction to Gibbs Free Energy=         0.207766
 Sum of electronic and zero-point Energies=          -1941.110869
 Sum of electronic and thermal Energies=             -1941.088574
 Sum of electronic and thermal Enthalpies=           -1941.087630
 Sum of electronic and thermal Free Energies=        -1941.165160

                     E (Thermal)             CV                S
                      KCal/Mol        Cal/Mol-Kelvin    Cal/Mol-Kelvin
 Total                  178.434             86.209            163.176
 Electronic               0.000              0.000              0.000
 Translational            0.889              2.981             43.760
 Rotational               0.889              2.981             35.926
 Vibrational            176.657             80.247             83.491
 Vibration     1          0.593              1.987              7.553
 Vibration     2          0.593              1.986              6.812
 Vibration     3          0.594              1.983              5.645
 Vibration     4          0.594              1.981              5.321
 Vibration     5          0.595              1.979              4.947
 Vibration     6          0.598              1.969              4.172
 Vibration     7          0.601              1.957              3.690
 Vibration     8          0.612              1.921              2.914
 Vibration     9          0.623              1.888              2.520
 Vibration    10          0.623              1.886              2.498
 Vibration    11          0.627              1.873              2.376
 Vibration    12          0.630              1.866              2.321
 Vibration    13          0.632              1.857              2.255
 Vibration    14          0.637              1.842              2.150
 Vibration    15          0.663              1.762              1.728
 Vibration    16          0.664              1.760              1.719
 Vibration    17          0.679              1.714              1.546
 Vibration    18          0.683              1.702              1.505
 Vibration    19          0.689              1.683              1.445
 Vibration    20          0.694              1.669              1.404
 Vibration    21          0.700              1.653              1.357
 Vibration    22          0.741              1.537              1.086
 Vibration    23          0.764              1.474              0.969
 Vibration    24          0.776              1.444              0.919
 Vibration    25          0.776              1.443              0.918
 Vibration    26          0.784              1.423              0.886
 Vibration    27          0.801              1.380              0.822
 Vibration    28          0.802              1.378              0.820
 Vibration    29          0.817              1.342              0.770
 Vibration    30          0.840              1.285              0.699
 Vibration    31          0.842              1.282              0.695
 Vibration    32          0.875              1.206              0.610
 Vibration    33          0.895              1.161              0.565
 Vibration    34          0.924              1.101              0.508
 Vibration    35          0.950              1.048              0.463

                           ! Non-Optimized Parameters !
 Normal termination of Gaussian 16 at Sun Feb 11 00:39:31 2024.
