 Q-Chem 5.4, Q-Chem, Inc., Pleasanton, CA (2021)
 Q-Chem 5.4.0 for Intel X86 EM64T Linux

User input:
--------------------------------------------------------------
$molecule
0 1
O                 -1.0643100000      1.7113320000     -1.8264110000
C                 -0.8214280000      0.8625770000     -0.9958230000
C                 -1.8668120000     -0.0363400000     -0.4614390000
C                 -1.5953970000     -0.9729070000      0.4555610000
C                 -0.2324550000     -1.1697490000      0.9941430000
O                  0.0161500000     -2.0170270000      1.8245570000
C                  0.8548660000     -0.2664040000      0.4667940000
C                  0.5793130000      0.6844520000     -0.4642640000
C                  1.5774480000      1.5560660000     -0.9866370000
N                  2.3820590000      2.2653260000     -1.4137470000
C                  2.1633530000     -0.4656660000      0.9930910000
N                  3.2218550000     -0.6315180000      1.4231370000
H                 -2.8616230000      0.1174410000     -0.8636800000
H                 -2.3530190000     -1.6375820000      0.8547180000
$end

$rem
BASIS  =  6-311++G(d,p)
GUI  =  2
JOB_TYPE  =  SP
METHOD  =  B3LYP
SCF_CONVERGENCE  = 8
SOLVENT_METHOD = sm12
$end

$smx
solvent dimethylformamide
charges CM5
$end

--------------------------------------------------------------

             Standard Nuclear Orientation (Angstroms)
    I     Atom           X                Y                Z
 ----------------------------------------------------------------
    1      O      -1.0643100000     1.7113320000    -1.8264110000
    2      C      -0.8214280000     0.8625770000    -0.9958230000
    3      C      -1.8668120000    -0.0363400000    -0.4614390000
    4      C      -1.5953970000    -0.9729070000     0.4555610000
    5      C      -0.2324550000    -1.1697490000     0.9941430000
    6      O       0.0161500000    -2.0170270000     1.8245570000
    7      C       0.8548660000    -0.2664040000     0.4667940000
    8      C       0.5793130000     0.6844520000    -0.4642640000
    9      C       1.5774480000     1.5560660000    -0.9866370000
   10      N       2.3820590000     2.2653260000    -1.4137470000
   11      C       2.1633530000    -0.4656660000     0.9930910000
   12      N       3.2218550000    -0.6315180000     1.4231370000
   13      H      -2.8616230000     0.1174410000    -0.8636800000
   14      H      -2.3530190000    -1.6375820000     0.8547180000
 ----------------------------------------------------------------

   14    -566.0663077300      8.94e-09  Convergence criterion met
 Total energy in the final basis set =     -566.0822012071

                    Orbital Energies (a.u.)
 --------------------------------------------------------------

 Alpha MOs
 -- Occupied --
-19.1682 -19.1682 -14.3642 -14.3642 -10.3192 -10.3192 -10.2938 -10.2931
-10.2603 -10.2602 -10.2310 -10.2301  -1.1034  -1.1010  -0.9665  -0.9570
 -0.9121  -0.8436  -0.7751  -0.7037  -0.6758  -0.6006  -0.5735  -0.5576
 -0.5083  -0.4933  -0.4862  -0.4627  -0.4527  -0.4420  -0.4252  -0.4152
 -0.4141  -0.4027  -0.3912  -0.3844  -0.3362  -0.3229  -0.3193  -0.3102

          Ground-State Mulliken Net Atomic Charges

     Atom                 Charge (a.u.)
  ----------------------------------------
      1 O                    -0.317180
      2 C                    -1.012407
      3 C                     1.342647
      4 C                     1.344022
      5 C                    -1.013681
      6 O                    -0.316971
      7 C                     2.442372
      8 C                     2.434639
      9 C                    -2.294378
     10 N                    -0.561004
     11 C                    -2.292873
     12 N                    -0.560727
     13 H                     0.402798
     14 H                     0.402743
  ----------------------------------------
  Sum of atomic charges =     0.000000

                    Cartesian Multipole Moments
 -----------------------------------------------------------------
    Charge (ESU x 10^10)
                -0.0000
    Dipole Moment (Debye)
         X      -7.4512      Y      -2.1726      Z      -0.0118
       Tot       7.7615
    Quadrupole Moments (Debye-Ang)
        XX     -78.2723     XY       0.1494     YY     -78.8332
        XZ      -3.7767     YZ      12.9554     ZZ     -77.2160

 Total job time:  121.20s(wall), 861.59s(cpu)
        *  Thank you very much for using Q-Chem.  Have a nice day.  *
