 Q-Chem 5.4, Q-Chem, Inc., Pleasanton, CA (2021)
 Q-Chem 5.4.0 for Intel X86 EM64T Linux

User input:
--------------------------------------------------------------
$molecule
-2 1
N                 -3.3657440000     -0.8787750000      0.0743180000
C                 -2.0651630000     -0.2862540000      0.0913590000
C                 -1.8956470000      1.0726470000      0.3957700000
C                 -0.6334460000      1.7274930000      0.4231190000
O                 -0.4822920000      2.9763120000      0.6961430000
C                  0.4992480000      0.8548800000      0.0934020000
C                  1.8070960000      1.3799570000      0.0742830000
C                  2.9173020000      0.5990400000     -0.2101490000
C                  2.7413680000     -0.7817540000     -0.4847870000
C                  1.4717210000     -1.3281960000     -0.4813990000
C                  0.3143070000     -0.5491780000     -0.2168690000
C                 -0.9895670000     -1.1676500000     -0.2191860000
O                 -1.2002670000     -2.4335660000     -0.4513690000
H                 -3.8823630000     -0.6695110000      0.9274650000
H                 -3.2016850000     -1.8863900000      0.0048550000
H                 -2.7751060000      1.6855900000      0.5951000000
H                  1.9052630000      2.4386860000      0.2976060000
H                  3.9152910000      1.0351770000     -0.2177280000
H                  3.6074680000     -1.4061300000     -0.7040190000
H                  1.3122180000     -2.3823790000     -0.6879140000
$end
$rem
MAX_SCF_CYCLES=200
BASIS  =  6-311++G(d,p)
GUI  =  2
JOB_TYPE  =  SP
METHOD  =  B3LYP
SOLVENT_METHOD = PCM
$end
$pcm
theory = CPCM
$end
$solvent
dielectric 37.219
opticaldielectric 1.43
$end

--------------------------------------------------------------

             Standard Nuclear Orientation (Angstroms)
    I     Atom           X                Y                Z
 ----------------------------------------------------------------
    1      N      -3.3657440000    -0.8787750000     0.0743180000
    2      C      -2.0651630000    -0.2862540000     0.0913590000
    3      C      -1.8956470000     1.0726470000     0.3957700000
    4      C      -0.6334460000     1.7274930000     0.4231190000
    5      O      -0.4822920000     2.9763120000     0.6961430000
    6      C       0.4992480000     0.8548800000     0.0934020000
    7      C       1.8070960000     1.3799570000     0.0742830000
    8      C       2.9173020000     0.5990400000    -0.2101490000
    9      C       2.7413680000    -0.7817540000    -0.4847870000
   10      C       1.4717210000    -1.3281960000    -0.4813990000
   11      C       0.3143070000    -0.5491780000    -0.2168690000
   12      C      -0.9895670000    -1.1676500000    -0.2191860000
   13      O      -1.2002670000    -2.4335660000    -0.4513690000
   14      H      -3.8823630000    -0.6695110000     0.9274650000
   15      H      -3.2016850000    -1.8863900000     0.0048550000
   16      H      -2.7751060000     1.6855900000     0.5951000000
   17      H       1.9052630000     2.4386860000     0.2976060000
   18      H       3.9152910000     1.0351770000    -0.2177280000
   19      H       3.6074680000    -1.4061300000    -0.7040190000
   20      H       1.3122180000    -2.3823790000    -0.6879140000
 ----------------------------------------------------------------

    9    -590.8980109158      6.10e-06  Convergence criterion met
 Total energy in the final basis set =     -590.8980109158

                    Orbital Energies (a.u.)
 --------------------------------------------------------------

 Alpha MOs
 -- Occupied --
-19.0213 -19.0192 -14.2815 -10.1754 -10.1623 -10.1568 -10.1489 -10.1456
-10.1450 -10.1438 -10.1377 -10.1351 -10.1174  -0.9385  -0.9335  -0.8649
 -0.8229  -0.7534  -0.7212  -0.6929  -0.6360  -0.5846  -0.5720  -0.5264
 -0.4941  -0.4736  -0.4468  -0.4341  -0.4075  -0.4010  -0.3902  -0.3765
 -0.3706  -0.3624  -0.3456  -0.3304  -0.3200  -0.3185  -0.3029  -0.2768
 -0.2293  -0.2236  -0.2055  -0.1990  -0.1921  -0.1106

          Ground-State Mulliken Net Atomic Charges

     Atom                 Charge (a.u.)
  ----------------------------------------
      1 N                    -0.481746
      2 C                     0.051412
      3 C                     0.284632
      4 C                    -0.490896
      5 O                    -0.724176
      6 C                     0.203659
      7 C                     0.071567
      8 C                    -0.460548
      9 C                    -0.429554
     10 C                    -0.026967
     11 C                     0.189431
     12 C                    -0.718754
     13 O                    -0.762631
     14 H                     0.253905
     15 H                     0.270332
     16 H                     0.144905
     17 H                     0.139809
     18 H                     0.170535
     19 H                     0.174740
     20 H                     0.140344
  ----------------------------------------
  Sum of atomic charges =    -2.000000

                    Cartesian Multipole Moments
 -----------------------------------------------------------------
    Charge (ESU x 10^10)
                -9.6064
    Dipole Moment (Debye)
         X       5.8143      Y      -2.8917      Z       0.7578
       Tot       6.5377
    Quadrupole Moments (Debye-Ang)
        XX     -99.3755     XY      -3.2496     YY    -138.7522
        XZ      -6.5824     YZ     -12.5268     ZZ     -89.2930

 Total job time:  28.88s(wall), 163.63s(cpu)
        *  Thank you very much for using Q-Chem.  Have a nice day.  *
