 Gaussian 16, Revision A.03,
 Gaussian 16:  ES64L-G16RevA.03 25-Dec-2016

 ----------------------------------------------------------------------
 #P UB3LYP/6-311++G(d,p) nosym opt freq SCRF=(PCM,Solvent=n,n-DiMethylF
 ormamide)
 ----------------------------------------------------------------------

 --------
 Oxidized
 --------
 Symbolic Z-matrix:
 Charge =  0 Multiplicity = 1

 SCF Done:  E(UB3LYP) =  -918.064465821     A.U. after   15 cycles
 SCF Done:  E(UB3LYP) =  -918.064734395     A.U. after   12 cycles
 SCF Done:  E(UB3LYP) =  -918.064880837     A.U. after   12 cycles
 SCF Done:  E(UB3LYP) =  -918.064866824     A.U. after   12 cycles
 SCF Done:  E(UB3LYP) =  -918.064903083     A.U. after   12 cycles
 SCF Done:  E(UB3LYP) =  -918.064920172     A.U. after   11 cycles
 SCF Done:  E(UB3LYP) =  -918.064968644     A.U. after   11 cycles
 SCF Done:  E(UB3LYP) =  -918.064970708     A.U. after   11 cycles
 SCF Done:  E(UB3LYP) =  -918.064971453     A.U. after   10 cycles
 SCF Done:  E(UB3LYP) =  -918.064971716     A.U. after   11 cycles
 SCF Done:  E(UB3LYP) =  -918.064971814     A.U. after   11 cycles
 SCF Done:  E(UB3LYP) =  -918.064971864     A.U. after   11 cycles
 Optimization completed.
    -- Stationary point found.
 Normal termination of Gaussian 16 at Sat Feb 10 17:29:17 2024.

 ----------------------------------------------------------------------
 #P Geom=AllCheck Guess=TCheck SCRF=Check GenChk UB3LYP/6-311++G(d,p) F
 req
 ----------------------------------------------------------------------

 Structure from the checkpoint file:  "140.chk"
 --------
 Oxidized
 --------
 Charge =  0 Multiplicity = 1

                          Input orientation:
 ---------------------------------------------------------------------
 Center     Atomic      Atomic             Coordinates (Angstroms)
 Number     Number       Type             X           Y           Z
 ---------------------------------------------------------------------
      1          6           0       -4.995483   -1.043900   -0.168101
      2          8           0       -3.580725   -1.066177    0.061120
      3          6           0       -2.889438    0.090265    0.041932
      4          6           0       -3.511005    1.331401   -0.157234
      5          6           0       -2.761305    2.501076   -0.175379
      6          6           0       -1.383028    2.462344   -0.002161
      7          6           0       -0.744353    1.237036    0.179665
      8          6           0        0.749520    1.265286    0.348254
      9          8           0        1.304653    2.334505    0.567202
     10          6           0        1.476883   -0.017863    0.225842
     11          6           0        2.888929   -0.087606    0.069788
     12          8           0        3.577793    1.067984   -0.008475
     13          6           0        4.994402    1.029339   -0.223659
     14          6           0        3.513205   -1.340144   -0.016997
     15          6           0        2.764530   -2.508207    0.060456
     16          6           0        1.384711   -2.456969    0.217154
     17          6           0        0.743366   -1.221566    0.287981
     18          6           0       -0.752727   -1.237506    0.440785
     19          8           0       -1.310623   -2.288143    0.731122
     20          6           0       -1.478374    0.032309    0.212309
     21          1           0       -5.309237   -2.084306   -0.122859
     22          1           0       -5.511555   -0.472658    0.607529
     23          1           0       -5.228575   -0.633004   -1.153681
     24          1           0       -4.580842    1.387780   -0.296459
     25          1           0       -3.263284    3.449406   -0.328373
     26          1           0       -0.791935    3.367607   -0.012048
     27          1           0        5.305705    2.070520   -0.268117
     28          1           0        5.236634    0.533567   -1.167052
     29          1           0        5.505252    0.530430    0.603607
     30          1           0        4.584048   -1.406860   -0.143254
     31          1           0        3.268634   -3.465414   -0.005541
     32          1           0        0.794226   -3.360534    0.279325
 ---------------------------------------------------------------------

 SCF Done:  E(UB3LYP) =  -918.064971864     A.U. after    2 cycles

 Alpha  occ. eigenvalues --  -19.17220 -19.17217 -19.12322 -19.12312 -10.28015
 Alpha  occ. eigenvalues --  -10.28014 -10.26642 -10.26636 -10.22919 -10.22917
 Alpha  occ. eigenvalues --  -10.20899 -10.20896 -10.20760 -10.20752 -10.19944
 Alpha  occ. eigenvalues --  -10.19940 -10.19427 -10.19427 -10.18856 -10.18849
 Alpha  occ. eigenvalues --   -1.09075  -1.09053  -1.05726  -1.05557  -0.89062
 Alpha  occ. eigenvalues --   -0.87799  -0.81275  -0.78410  -0.78057  -0.77214
 Alpha  occ. eigenvalues --   -0.72036  -0.71721  -0.68829  -0.65771  -0.64822
 Alpha  occ. eigenvalues --   -0.60445  -0.58197  -0.56793  -0.56213  -0.52278
 Alpha  occ. eigenvalues --   -0.51490  -0.51450  -0.49359  -0.49166  -0.48582
 Alpha  occ. eigenvalues --   -0.48356  -0.47848  -0.45811  -0.45479  -0.45273
 Alpha  occ. eigenvalues --   -0.44706  -0.43069  -0.42271  -0.41474  -0.40552
 Alpha  occ. eigenvalues --   -0.39961  -0.39185  -0.39065  -0.38002  -0.37829
 Alpha  occ. eigenvalues --   -0.35430  -0.35200  -0.34374  -0.34122  -0.28907
 Alpha  occ. eigenvalues --   -0.27969  -0.27412  -0.26395  -0.24856  -0.24665
 Alpha virt. eigenvalues --   -0.11300  -0.06277  -0.03625  -0.01436  -0.00776
 Alpha virt. eigenvalues --   -0.00225   0.00608   0.01125   0.01428   0.02862
 Alpha virt. eigenvalues --    0.02936   0.02984   0.03336   0.03477   0.03709

  Beta  occ. eigenvalues --  -19.17220 -19.17217 -19.12322 -19.12312 -10.28015
  Beta  occ. eigenvalues --  -10.28014 -10.26642 -10.26636 -10.22919 -10.22917
  Beta  occ. eigenvalues --  -10.20899 -10.20896 -10.20760 -10.20752 -10.19944
  Beta  occ. eigenvalues --  -10.19940 -10.19427 -10.19427 -10.18856 -10.18849
  Beta  occ. eigenvalues --   -1.09075  -1.09053  -1.05726  -1.05557  -0.89062
  Beta  occ. eigenvalues --   -0.87799  -0.81275  -0.78410  -0.78057  -0.77214
  Beta  occ. eigenvalues --   -0.72036  -0.71721  -0.68829  -0.65771  -0.64822
  Beta  occ. eigenvalues --   -0.60445  -0.58197  -0.56793  -0.56213  -0.52278
  Beta  occ. eigenvalues --   -0.51490  -0.51450  -0.49359  -0.49166  -0.48582
  Beta  occ. eigenvalues --   -0.48356  -0.47848  -0.45811  -0.45479  -0.45273
  Beta  occ. eigenvalues --   -0.44706  -0.43069  -0.42271  -0.41474  -0.40552
  Beta  occ. eigenvalues --   -0.39961  -0.39185  -0.39065  -0.38002  -0.37829
  Beta  occ. eigenvalues --   -0.35430  -0.35200  -0.34374  -0.34122  -0.28907
  Beta  occ. eigenvalues --   -0.27969  -0.27412  -0.26395  -0.24856  -0.24665
  Beta virt. eigenvalues --   -0.11300  -0.06277  -0.03625  -0.01436  -0.00776
  Beta virt. eigenvalues --   -0.00225   0.00608   0.01125   0.01428   0.02862
  Beta virt. eigenvalues --    0.02936   0.02984   0.03336   0.03477   0.03709

 Mulliken charges and spin densities:
               1          2
     1  C   -0.300112  -0.000000
     2  O   -0.133203  -0.000000
     3  C   -0.070269   0.000000
     4  C    0.068665  -0.000000
     5  C   -0.473731  -0.000000
     6  C    0.055634   0.000000
     7  C    0.641380   0.000000
     8  C   -0.638081  -0.000000
     9  O   -0.290115   0.000000
    10  C   -0.038117   0.000000
    11  C   -0.082106   0.000000
    12  O   -0.133747  -0.000000
    13  C   -0.300205  -0.000000
    14  C    0.085705  -0.000000
    15  C   -0.481524  -0.000000
    16  C    0.075544  -0.000000
    17  C    0.629250   0.000000
    18  C   -0.608948   0.000000
    19  O   -0.289409   0.000000
    20  C   -0.017978  -0.000000
    21  H    0.201926   0.000000
    22  H    0.174457  -0.000000
    23  H    0.171028  -0.000000
    24  H    0.206077   0.000000
    25  H    0.218253  -0.000000
    26  H    0.179035  -0.000000
    27  H    0.201648  -0.000000
    28  H    0.171152  -0.000000
    29  H    0.174715  -0.000000
    30  H    0.206326   0.000000
    31  H    0.217955  -0.000000
    32  H    0.178795   0.000000
 Sum of Mulliken charges =  -0.00000  -0.00000

 Dipole moment (field-independent basis, Debye):
    X=              0.0039    Y=             -0.0993    Z=             -2.6522  Tot=              2.6541
 Quadrupole moment (field-independent basis, Debye-Ang):
   XX=            -60.3360   YY=           -120.5540   ZZ=           -118.9010
   XY=            -16.8246   XZ=              0.8724   YZ=             -0.0999

  Exact polarizability: 398.411 -15.469 345.160   1.671  -8.289 148.176
 Approx polarizability: 419.953   1.903 425.095   1.004 -10.451 174.115

                      1                      2                      3
                      A                      A                      A
 Frequencies --     26.4977                42.8858                56.9092
 Red. masses --      6.3932                 4.5541                 5.5613
 Frc consts  --      0.0026                 0.0049                 0.0106
 IR Inten    --     15.1268                 1.2549                 2.3851

                      4                      5                      6
                      A                      A                      A
 Frequencies --    103.9643               109.4184               149.8804
 Red. masses --      3.8834                 4.1185                 4.4948
 Frc consts  --      0.0247                 0.0291                 0.0595
 IR Inten    --      5.5539                 1.5424                 5.2202

                      7                      8                      9
                      A                      A                      A
 Frequencies --    150.4052               178.9331               198.4980
 Red. masses --      4.6361                 2.7716                 4.8110
 Frc consts  --      0.0618                 0.0523                 0.1117
 IR Inten    --      4.4002                 0.1232                 0.7463

                     10                     11                     12
                      A                      A                      A
 Frequencies --    217.6925               251.5824               272.6992
 Red. masses --      1.9956                 1.4433                 1.6208
 Frc consts  --      0.0557                 0.0538                 0.0710
 IR Inten    --      0.9339                 0.0216                 1.5067

                     13                     14                     15
                      A                      A                      A
 Frequencies --    289.9650               305.2972               310.8601
 Red. masses --      3.4424                 3.9572                 3.7690
 Frc consts  --      0.1705                 0.2173                 0.2146
 IR Inten    --      0.0703                 0.0060                 5.5435

                     16                     17                     18
                      A                      A                      A
 Frequencies --    347.4244               367.7814               386.2296
 Red. masses --      7.0413                 8.6639                 7.8184
 Frc consts  --      0.5008                 0.6905                 0.6872
 IR Inten    --      0.0285                 0.0446                27.9224

                     19                     20                     21
                      A                      A                      A
 Frequencies --    411.3123               437.4059               471.0903
 Red. masses --      8.2124                 5.4424                 8.5234
 Frc consts  --      0.8186                 0.6135                 1.1145
 IR Inten    --     21.5118                 0.5671                 0.1161

                     22                     23                     24
                      A                      A                      A
 Frequencies --    488.2798               506.7268               553.7141
 Red. masses --      4.3324                 6.3866                 5.3226
 Frc consts  --      0.6086                 0.9662                 0.9615
 IR Inten    --      1.4934                 0.0582                 5.4784

                     25                     26                     27
                      A                      A                      A
 Frequencies --    569.0943               576.8617               625.1301
 Red. masses --      4.5004                 6.4488                 5.6321
 Frc consts  --      0.8588                 1.2644                 1.2968
 IR Inten    --      0.3542                23.5909                 0.2140

                     28                     29                     30
                      A                      A                      A
 Frequencies --    642.1508               695.0602               701.1992
 Red. masses --      4.9509                 4.0657                 5.9043
 Frc consts  --      1.2028                 1.1573                 1.7104
 IR Inten    --      1.9466                 0.2157                 3.9743

                     31                     32                     33
                      A                      A                      A
 Frequencies --    724.7833               768.1709               779.2584
 Red. masses --      2.4897                 6.4957                 1.5248
 Frc consts  --      0.7706                 2.2584                 0.5455
 IR Inten    --     82.3691                53.2894                 4.1425

                     34                     35                     36
                      A                      A                      A
 Frequencies --    786.3833               817.4679               845.0192
 Red. masses --      7.0592                 1.8638                 5.6179
 Frc consts  --      2.5720                 0.7338                 2.3635
 IR Inten    --     34.4670                97.5433                41.9486

                     37                     38                     39
                      A                      A                      A
 Frequencies --    848.5436               877.4000               918.9052
 Red. masses --      5.9961                 6.9767                 1.4381
 Frc consts  --      2.5437                 3.1644                 0.7155
 IR Inten    --     32.3170                 0.1081                 0.6707

                     40                     41                     42
                      A                      A                      A
 Frequencies --    919.2401               928.7672               983.1927
 Red. masses --      1.4512                 5.6975                 7.8570
 Frc consts  --      0.7225                 2.8957                 4.4749
 IR Inten    --      0.4295                 0.6000               422.9221

                     43                     44                     45
                      A                      A                      A
 Frequencies --   1004.8718              1005.0254              1067.1177
 Red. masses --      1.3259                 1.3245                 7.6343
 Frc consts  --      0.7888                 0.7883                 5.1220
 IR Inten    --      1.2144                 1.0730                 2.8567

                     46                     47                     48
                      A                      A                      A
 Frequencies --   1085.9943              1097.5867              1129.0218
 Red. masses --      4.0679                 2.4208                 2.0675
 Frc consts  --      2.8267                 1.7183                 1.5528
 IR Inten    --    138.7072                 0.2798                37.1357

                     49                     50                     51
                      A                      A                      A
 Frequencies --   1163.5857              1163.9985              1184.6784
 Red. masses --      1.2710                 1.2701                 1.4456
 Frc consts  --      1.0139                 1.0139                 1.1954
 IR Inten    --      1.2241                 1.2950                27.2580

                     52                     53                     54
                      A                      A                      A
 Frequencies --   1189.0105              1199.8781              1203.0701
 Red. masses --      1.3468                 1.9568                 1.6352
 Frc consts  --      1.1219                 1.6599                 1.3944
 IR Inten    --      0.7277                 2.7780                29.6545

                     55                     56                     57
                      A                      A                      A
 Frequencies --   1207.7542              1216.1937              1263.4141
 Red. masses --      1.2717                 1.8944                 4.1687
 Frc consts  --      1.0929                 1.6509                 3.9205
 IR Inten    --      0.7566               213.1693              1615.2346

                     58                     59                     60
                      A                      A                      A
 Frequencies --   1280.8023              1293.3609              1313.5472
 Red. masses --      2.4930                 3.3812                 8.4298
 Frc consts  --      2.4095                 3.3324                 8.5696
 IR Inten    --      5.0520               601.8452                 3.3207

                     61                     62                     63
                      A                      A                      A
 Frequencies --   1352.5316              1360.5698              1455.8704
 Red. masses --      8.8491                 7.5398                 2.4974
 Frc consts  --      9.5377                 8.2234                 3.1188
 IR Inten    --     66.2903                 1.9780               215.4692

                     64                     65                     66
                      A                      A                      A
 Frequencies --   1463.1831              1466.0329              1476.0373
 Red. masses --      1.6826                 1.7067                 2.1904
 Frc consts  --      2.1224                 2.1612                 2.8117
 IR Inten    --      1.5890                58.2946                 0.6175

                     67                     68                     69
                      A                      A                      A
 Frequencies --   1487.6775              1488.2213              1492.1390
 Red. masses --      1.0452                 1.0458                 1.6641
 Frc consts  --      1.3629                 1.3647                 2.1829
 IR Inten    --     14.5970                15.4562                91.1094

                     70                     71                     72
                      A                      A                      A
 Frequencies --   1495.5798              1497.2841              1498.5282
 Red. masses --      1.6652                 1.1022                 1.2125
 Frc consts  --      2.1945                 1.4559                 1.6042
 IR Inten    --      2.4744                52.7603                 1.3169

                     73                     74                     75
                      A                      A                      A
 Frequencies --   1598.3270              1605.6321              1613.4284
 Red. masses --      5.9638                 6.2641                 5.7399
 Frc consts  --      8.9764                 9.5149                 8.8035
 IR Inten    --    207.8453                 5.8439               675.3276

                     76                     77                     78
                      A                      A                      A
 Frequencies --   1617.7541              1688.3593              1693.8153
 Red. masses --      6.3896                11.6881                12.1868
 Frc consts  --      9.8526                19.6302                20.6002
 IR Inten    --      4.6448                49.2013               858.1928

                     79                     80                     81
                      A                      A                      A
 Frequencies --   3027.1766              3027.4295              3096.9855
 Red. masses --      1.0326                 1.0326                 1.1076
 Frc consts  --      5.5751                 5.5759                 6.2590
 IR Inten    --    112.1680                45.2853                36.4865

                     82                     83                     84
                      A                      A                      A
 Frequencies --   3097.1563              3149.4697              3149.6085
 Red. masses --      1.1076                 1.1019                 1.1019
 Frc consts  --      6.2595                 6.4398                 6.4403
 IR Inten    --     39.2684                23.4231                21.4600

                     85                     86                     87
                      A                      A                      A
 Frequencies --   3182.3634              3182.5216              3214.0635
 Red. masses --      1.0896                 1.0896                 1.0921
 Frc consts  --      6.5018                 6.5024                 6.6471
 IR Inten    --     14.8913                10.8128                 6.3687

                     88                     89                     90
                      A                      A                      A
 Frequencies --   3214.4188              3222.7278              3223.2216
 Red. masses --      1.0920                 1.0924                 1.0923
 Frc consts  --      6.6479                 6.6845                 6.6859
 IR Inten    --      3.3878                 6.4807                 5.3829

 - Thermochemistry -
 -------------------
 Temperature   298.150 Kelvin.  Pressure   1.00000 Atm.
 Atom     1 has atomic number  6 and mass  12.00000

 Molecular mass:   268.07356 amu.
 Principal axes and moments of inertia in atomic units:
                           1         2         3
     Eigenvalues --  2597.077177596.60297**********
           X            0.99975   0.02224  -0.00371
           Y           -0.02207   0.99889   0.04154
           Z            0.00463  -0.04145   0.99913
 This molecule is an asymmetric top.
 Rotational symmetry number  1.
 Warning -- assumption of classical behavior for rotation
           may cause significant error
 Rotational temperatures (Kelvin)      0.03335     0.01140     0.00862
 Rotational constants (GHZ):           0.69491     0.23757     0.17959
 Zero-point vibrational energy     639099.6 (Joules/Mol)
                                  152.74847 (Kcal/Mol)
 Warning -- explicit consideration of  26 degrees of freedom as
           vibrations may cause significant error
 Vibrational temperatures:     38.12    61.70    81.88   149.58   157.43
          (Kelvin)            215.64   216.40   257.44   285.59   313.21
                              361.97   392.35   417.20   439.25   447.26
                              499.87   529.16   555.70   591.79   629.33
                              677.79   702.53   729.07   796.67   818.80
                              829.98   899.42   923.91  1000.04  1008.87
                             1042.80  1105.23  1121.18  1131.43  1176.15
                             1215.79  1220.87  1262.38  1322.10  1322.58
                             1336.29  1414.59  1445.79  1446.01  1535.34
                             1562.50  1579.18  1624.41  1674.14  1674.73
                             1704.49  1710.72  1726.36  1730.95  1737.69
                             1749.83  1817.77  1842.79  1860.86  1889.90
                             1945.99  1957.56  2094.67  2105.19  2109.29
                             2123.69  2140.44  2141.22  2146.86  2151.81
                             2154.26  2156.05  2299.64  2310.15  2321.36
                             2327.59  2429.17  2437.02  4355.43  4355.80
                             4455.87  4456.12  4531.38  4531.58  4578.71
                             4578.94  4624.32  4624.83  4636.79  4637.50

 Zero-point correction=                           0.243420 (Hartree/Particle)
 Thermal correction to Energy=                    0.260032
 Thermal correction to Enthalpy=                  0.260976
 Thermal correction to Gibbs Free Energy=         0.198577
 Sum of electronic and zero-point Energies=           -917.821552
 Sum of electronic and thermal Energies=              -917.804940
 Sum of electronic and thermal Enthalpies=            -917.803996
 Sum of electronic and thermal Free Energies=         -917.866395

                     E (Thermal)             CV                S
                      KCal/Mol        Cal/Mol-Kelvin    Cal/Mol-Kelvin
 Total                  163.173             64.263            131.330
 Electronic               0.000              0.000              0.000
 Translational            0.889              2.981             42.657
 Rotational               0.889              2.981             33.649
 Vibrational            161.395             58.302             55.024
 Vibration     1          0.593              1.984              6.076
 Vibration     2          0.595              1.980              5.121
 Vibration     3          0.596              1.975              4.562
 Vibration     4          0.605              1.946              3.379
 Vibration     5          0.606              1.942              3.279
 Vibration     6          0.618              1.903              2.674
 Vibration     7          0.618              1.902              2.667
 Vibration     8          0.629              1.868              2.340
 Vibration     9          0.637              1.842              2.147
 Vibration    10          0.646              1.814              1.978
 Vibration    11          0.664              1.760              1.719
 Vibration    12          0.676              1.724              1.579
 Vibration    13          0.686              1.692              1.474
 Vibration    14          0.696              1.664              1.388
 Vibration    15          0.700              1.653              1.358
 Vibration    16          0.725              1.581              1.178
 Vibration    17          0.740              1.538              1.089
 Vibration    18          0.755              1.500              1.015
 Vibration    19          0.775              1.446              0.922
 Vibration    20          0.798              1.389              0.835
 Vibration    21          0.828              1.314              0.735
 Vibration    22          0.844              1.276              0.688
 Vibration    23          0.862              1.235              0.642
 Vibration    24          0.909              1.132              0.537
 Vibration    25          0.925              1.098              0.506
 Vibration    26          0.933              1.081              0.491

                           ! Non-Optimized Parameters !
 Normal termination of Gaussian 16 at Sat Feb 10 19:48:34 2024.
