 Gaussian 16, Revision A.03,
 Gaussian 16:  ES64L-G16RevA.03 25-Dec-2016

 ----------------------------------------------------------------
 #P UB3LYP/6-311++G(d,p) SCRF=(PCM,Solvent=n,n-DiMethylFormamide)
 ----------------------------------------------------------------

 ------------------
 Radical PCM in DMF
 ------------------
 Symbolic Z-matrix:
 Charge = -1 Multiplicity = 2

                         Standard orientation:
 ---------------------------------------------------------------------
 Center     Atomic      Atomic             Coordinates (Angstroms)
 Number     Number       Type             X           Y           Z
 ---------------------------------------------------------------------
      1          6           0       -0.491462    1.362381   -0.327923
      2          6           0        0.910004    1.078687   -0.349903
      3          6           0        1.409694   -0.209322   -0.350989
      4          6           0        0.491826   -1.361297   -0.328376
      5          6           0       -0.909712   -1.077662   -0.348138
      6          6           0       -1.409413    0.210347   -0.348938
      7          8           0       -0.968107    2.541793   -0.289831
      8          8           0        0.968473   -2.540729   -0.290861
      9          7           0       -2.748752    0.594430   -0.400229
     10          7           0        2.749230   -0.593167   -0.403881
     11          6           0       -3.893839   -0.111346    0.188846
     12          6           0       -5.048669    0.905672    0.226909
     13          6           0       -4.323929   -1.296624   -0.701750
     14          6           0       -3.606606   -0.600020    1.626092
     15          6           0        3.893694    0.110759    0.189055
     16          6           0        4.324772    1.299291   -0.696636
     17          6           0        5.048565   -0.906282    0.224718
     18          6           0        3.604650    0.594242    1.627682
     19          1           0        1.557082    1.946727   -0.364453
     20          1           0       -1.556654   -1.945833   -0.361200
     21          1           0       -2.769005    1.606966   -0.283064
     22          1           0        2.769138   -1.605827   -0.287434
     23          1           0       -4.792266    1.759412    0.862031
     24          1           0       -5.957397    0.444678    0.624848
     25          1           0       -5.261009    1.279956   -0.778927
     26          1           0       -4.519405   -0.944976   -1.718241
     27          1           0       -5.235393   -1.761031   -0.308722
     28          1           0       -3.551868   -2.064182   -0.756350
     29          1           0       -3.365558    0.249691    2.271367
     30          1           0       -2.757206   -1.284536    1.646258
     31          1           0       -4.478575   -1.116523    2.042809
     32          1           0        3.553495    2.067866   -0.747916
     33          1           0        4.519905    0.951702   -1.714589
     34          1           0        5.236675    1.761214   -0.301699
     35          1           0        5.262476   -1.276402   -0.782324
     36          1           0        4.791280   -1.762612    0.855976
     37          1           0        5.956632   -0.446811    0.625935
     38          1           0        2.754661    1.278024    1.649134
     39          1           0        4.475737    1.110014    2.047152
     40          1           0        3.363521   -0.257829    2.269817
 ---------------------------------------------------------------------

 SCF Done:  E(UB3LYP) =  -807.065524161     A.U. after   18 cycles

 The electronic state is 2-A.
 Alpha  occ. eigenvalues --  -19.06553 -19.06551 -14.30590 -14.30583 -10.21350
 Alpha  occ. eigenvalues --  -10.21346 -10.20988 -10.20987 -10.19507 -10.19500
 Alpha  occ. eigenvalues --  -10.15702 -10.15700 -10.15319 -10.15317 -10.15235
 Alpha  occ. eigenvalues --  -10.15233 -10.14047 -10.14045  -0.99213  -0.98855
 Alpha  occ. eigenvalues --   -0.91831  -0.91804  -0.81228  -0.79210  -0.76696
 Alpha  occ. eigenvalues --   -0.71298  -0.68775  -0.68513  -0.68506  -0.68486
 Alpha  occ. eigenvalues --   -0.66097  -0.60818  -0.56839  -0.56414  -0.53553
 Alpha  occ. eigenvalues --   -0.50310  -0.47992  -0.47899  -0.46523  -0.44654
 Alpha  occ. eigenvalues --   -0.44645  -0.44247  -0.42501  -0.42220  -0.41316
 Alpha  occ. eigenvalues --   -0.41163  -0.40750  -0.39776  -0.39333  -0.38553
 Alpha  occ. eigenvalues --   -0.38413  -0.37890  -0.37138  -0.36956  -0.36478
 Alpha  occ. eigenvalues --   -0.36433  -0.36278  -0.34244  -0.34089  -0.33620
 Alpha  occ. eigenvalues --   -0.32649  -0.32627  -0.30191  -0.29057  -0.24209
 Alpha  occ. eigenvalues --   -0.23341  -0.22964  -0.19539  -0.13768
 Alpha virt. eigenvalues --   -0.00636  -0.00035   0.00633   0.01260   0.01792
 Alpha virt. eigenvalues --    0.02187   0.02461   0.02737   0.03466   0.03476
 Alpha virt. eigenvalues --    0.03815   0.03946   0.04251   0.04351   0.04948

  Beta  occ. eigenvalues --  -19.06041 -19.06040 -14.30439 -14.30432 -10.21347
  Beta  occ. eigenvalues --  -10.21343 -10.20764 -10.20763 -10.19274 -10.19267
  Beta  occ. eigenvalues --  -10.15702 -10.15700 -10.15313 -10.15312 -10.15228
  Beta  occ. eigenvalues --  -10.15226 -10.14121 -10.14120  -0.98337  -0.97952
  Beta  occ. eigenvalues --   -0.91502  -0.91436  -0.80832  -0.79073  -0.76509
  Beta  occ. eigenvalues --   -0.71184  -0.68760  -0.68488  -0.68486  -0.68445
  Beta  occ. eigenvalues --   -0.65175  -0.60598  -0.56484  -0.56272  -0.53373
  Beta  occ. eigenvalues --   -0.50094  -0.47875  -0.47613  -0.46408  -0.44548
  Beta  occ. eigenvalues --   -0.44488  -0.44160  -0.42451  -0.42088  -0.40989
  Beta  occ. eigenvalues --   -0.40631  -0.40365  -0.39485  -0.39044  -0.38348
  Beta  occ. eigenvalues --   -0.37871  -0.37861  -0.36885  -0.36463  -0.36460
  Beta  occ. eigenvalues --   -0.36347  -0.34937  -0.33893  -0.33530  -0.33379
  Beta  occ. eigenvalues --   -0.32624  -0.32578  -0.29431  -0.27229  -0.23732
  Beta  occ. eigenvalues --   -0.22832  -0.21361  -0.18768
  Beta virt. eigenvalues --   -0.07089  -0.00620  -0.00032   0.01151   0.01277
  Beta virt. eigenvalues --    0.01813   0.02195   0.02483   0.03318   0.03470
  Beta virt. eigenvalues --    0.03485   0.03839   0.03972   0.04372   0.04953

 Mulliken charges and spin densities:
               1          2
     1  C   -0.350393   0.135029
     2  C   -0.012659  -0.092817
     3  C   -0.091328   0.205890
     4  C   -0.351851   0.134925
     5  C   -0.017512  -0.092867
     6  C   -0.089915   0.205521
     7  O   -0.524290   0.186847
     8  O   -0.524322   0.186772
     9  N    0.064648   0.065007
    10  N    0.065183   0.064847
    11  C   -0.066294  -0.003063
    12  C   -0.495940   0.000110
    13  C   -0.441242   0.001792
    14  C   -0.474376   0.004587
    15  C   -0.066698  -0.003176
    16  C   -0.441561   0.001813
    17  C   -0.495901   0.000096
    18  C   -0.475119   0.004624
    19  H    0.229484  -0.001669
    20  H    0.229856  -0.001626
    21  H    0.330967  -0.002351
    22  H    0.330596  -0.002307
    23  H    0.151611  -0.000149
    24  H    0.148533  -0.000154
    25  H    0.154762   0.001038
    26  H    0.155574   0.000336
    27  H    0.150655   0.000078
    28  H    0.113577   0.000321
    29  H    0.158504   0.000423
    30  H    0.150245  -0.001521
    31  H    0.150471   0.000615
    32  H    0.113948   0.000386
    33  H    0.155695   0.000325
    34  H    0.150504   0.000067
    35  H    0.154819   0.001044
    36  H    0.151530  -0.000154
    37  H    0.148496  -0.000154
    38  H    0.150814  -0.001524
    39  H    0.150433   0.000610
    40  H    0.158499   0.000430
 Sum of Mulliken charges =  -1.00000   1.00000

 Dipole moment (field-independent basis, Debye):
    X=             -0.0103    Y=             -0.0025    Z=              3.3186  Tot=              3.3186
 Quadrupole moment (field-independent basis, Debye-Ang):
   XX=           -105.7045   YY=           -150.8659   ZZ=           -120.3627
   XY=             11.9748   XZ=              0.0150   YZ=             -0.0039

 Normal termination of Gaussian 16 at Wed Jan 24 22:57:47 2024.
