 Q-Chem 5.4, Q-Chem, Inc., Pleasanton, CA (2021)
 Q-Chem 5.4.0 for Intel X86 EM64T Linux

User input:
--------------------------------------------------------------
$molecule
0 1
C                 -4.0427660000      0.2807080000      0.2637460000
C                 -2.5787520000     -0.0055200000      0.0435480000
C                 -2.1748590000     -1.0668420000     -0.7822030000
C                 -0.8310850000     -1.3319330000     -1.0085550000
C                  0.1519990000     -0.5385260000     -0.4098450000
C                  1.5906240000     -0.8298730000     -0.6558540000
O                  1.9478360000     -1.7499410000     -1.3746080000
C                  2.6119670000      0.0450850000      0.0083070000
C                  2.2137590000      1.0580900000      0.8001100000
C                  0.7971770000      1.3795660000      1.0708740000
O                  0.5010800000      2.3130560000      1.8016450000
C                 -0.2374440000      0.5240520000      0.4198490000
C                 -1.5915100000      0.7806370000      0.6395790000
C                  4.0498210000     -0.2767510000     -0.2619990000
H                 -4.4932320000      0.7142950000     -0.6353220000
H                 -4.1922810000      0.9850690000      1.0835250000
H                 -4.5948390000     -0.6345450000      0.4935620000
H                 -2.9280990000     -1.6921440000     -1.2509430000
H                 -0.5217980000     -2.1517200000     -1.6454690000
H                  2.9312660000      1.7066490000      1.2930970000
H                 -1.8572010000      1.6077620000      1.2879600000
H                  4.2581810000     -0.2294890000     -1.3344210000
H                  4.2781640000     -1.3004150000      0.0473800000
H                  4.7119930000      0.4127310000      0.2627620000
$end

$rem
BASIS  =  6-311++G(d,p)
GUI  =  2
JOB_TYPE  =  SP
METHOD  =  B3LYP
SCF_CONVERGENCE  = 8
SOLVENT_METHOD = sm12
$end

$smx
solvent dimethylformamide
charges CM5
$end

--------------------------------------------------------------

             Standard Nuclear Orientation (Angstroms)
    I     Atom           X                Y                Z
 ----------------------------------------------------------------
    1      C      -4.0427660000     0.2807080000     0.2637460000
    2      C      -2.5787520000    -0.0055200000     0.0435480000
    3      C      -2.1748590000    -1.0668420000    -0.7822030000
    4      C      -0.8310850000    -1.3319330000    -1.0085550000
    5      C       0.1519990000    -0.5385260000    -0.4098450000
    6      C       1.5906240000    -0.8298730000    -0.6558540000
    7      O       1.9478360000    -1.7499410000    -1.3746080000
    8      C       2.6119670000     0.0450850000     0.0083070000
    9      C       2.2137590000     1.0580900000     0.8001100000
   10      C       0.7971770000     1.3795660000     1.0708740000
   11      O       0.5010800000     2.3130560000     1.8016450000
   12      C      -0.2374440000     0.5240520000     0.4198490000
   13      C      -1.5915100000     0.7806370000     0.6395790000
   14      C       4.0498210000    -0.2767510000    -0.2619990000
   15      H      -4.4932320000     0.7142950000    -0.6353220000
   16      H      -4.1922810000     0.9850690000     1.0835250000
   17      H      -4.5948390000    -0.6345450000     0.4935620000
   18      H      -2.9280990000    -1.6921440000    -1.2509430000
   19      H      -0.5217980000    -2.1517200000    -1.6454690000
   20      H       2.9312660000     1.7066490000     1.2930970000
   21      H      -1.8572010000     1.6077620000     1.2879600000
   22      H       4.2581810000    -0.2294890000    -1.3344210000
   23      H       4.2781640000    -1.3004150000     0.0473800000
   24      H       4.7119930000     0.4127310000     0.2627620000
 ----------------------------------------------------------------

   15    -613.9181171560      3.22e-09  Convergence criterion met
 Total energy in the final basis set =     -613.9360381644

                    Orbital Energies (a.u.)
 --------------------------------------------------------------

 Alpha MOs
 -- Occupied --
-19.1322 -19.1295 -10.2801 -10.2785 -10.2180 -10.2062 -10.2056 -10.2038
-10.2011 -10.1963 -10.1933 -10.1931 -10.1732 -10.1702  -1.0651  -1.0611
 -0.8899  -0.8472  -0.7982  -0.7777  -0.7298  -0.7138  -0.6658  -0.6465
 -0.6089  -0.5835  -0.5421  -0.5180  -0.5002  -0.4647  -0.4592  -0.4582
 -0.4552  -0.4480  -0.4295  -0.4253  -0.4195  -0.4078  -0.4053  -0.3975
 -0.3868  -0.3729  -0.3646  -0.3619  -0.2953  -0.2848  -0.2774  -0.2726
 -0.2674

          Ground-State Mulliken Net Atomic Charges

     Atom                 Charge (a.u.)
  ----------------------------------------
      1 C                     0.520613
      2 C                     0.984694
      3 C                     0.239448
      4 C                    -0.095252
      5 C                    -0.976894
      6 C                    -1.165820
      7 O                    -0.273206
      8 C                     0.927369
      9 C                    -0.047170
     10 C                    -1.613390
     11 O                    -0.315874
     12 C                    -0.267208
     13 C                    -0.547296
     14 C                     0.470445
     15 H                     0.218628
     16 H                     0.239101
     17 H                     0.208327
     18 H                     0.300306
     19 H                     0.197649
     20 H                     0.242626
     21 H                     0.113058
     22 H                     0.190474
     23 H                     0.190652
     24 H                     0.258719
  ----------------------------------------
  Sum of atomic charges =     0.000000

                    Cartesian Multipole Moments
 -----------------------------------------------------------------
    Charge (ESU x 10^10)
                 0.0000
    Dipole Moment (Debye)
         X      -1.7587      Y      -0.7628      Z      -0.6123
       Tot       2.0124
    Quadrupole Moments (Debye-Ang)
        XX     -61.0671     XY       4.7744     YY     -91.0425
        XZ       3.5355     YZ      -6.5362     ZZ     -87.9342

 Total job time:  361.09s(wall), 2815.02s(cpu)
        *  Thank you very much for using Q-Chem.  Have a nice day.  *
