 Q-Chem 5.4, Q-Chem, Inc., Pleasanton, CA (2021)
 Q-Chem 5.4.0 for Intel X86 EM64T Linux

User input:
--------------------------------------------------------------
$molecule
-1 2
O                 -0.3447460000      2.1699070000      0.2951340000
C                 -0.5352630000      0.9363600000      0.1055220000
C                  0.5484600000      0.0220340000     -0.1734980000
C                  0.3221030000     -1.3343660000     -0.3708980000
O                  1.3596500000     -2.2000110000     -0.6227200000
C                 -0.9903460000     -1.9472280000     -0.3528040000
O                 -1.1666260000     -3.1770810000     -0.5515020000
C                 -2.1017670000     -1.0276230000     -0.0826590000
C                 -3.4191290000     -1.5297680000     -0.0381230000
C                 -4.4921790000     -0.6969120000      0.2214180000
C                 -4.2789000000      0.6779460000      0.4466000000
C                 -2.9934620000      1.1893420000      0.4068750000
C                 -1.8875680000      0.3580100000      0.1453570000
C                  1.9400800000      0.6197190000     -0.2855980000
H                 -3.5545780000     -2.5908010000     -0.2145280000
H                 -5.4998790000     -1.1016890000      0.2519710000
H                 -5.1211320000      1.3329640000      0.6499580000
H                 -2.7966830000      2.2421530000      0.5747370000
C                  2.9267900000      0.0856680000      0.7223140000
C                  4.1778710000     -0.3640110000      0.5309280000
C                  4.8811080000     -0.4126780000     -0.8041830000
C                  5.0112750000     -0.8554150000      1.6910090000
H                  2.1809640000     -1.7747030000     -0.3457260000
H                  1.8055390000      1.6940480000     -0.1149880000
H                  2.3213260000      0.5035210000     -1.3070700000
H                  2.5454300000      0.0709000000      1.7426800000
H                  4.2422140000     -0.1101690000     -1.6334860000
H                  5.2527960000     -1.4238150000     -1.0125290000
H                  5.7584460000      0.2470870000     -0.7997590000
H                  4.4622610000     -0.7983860000      2.6332640000
H                  5.9309650000     -0.2646370000      1.7952870000
H                  5.3239720000     -1.8968210000      1.5413920000
$end
$rem
MAX_SCF_CYCLES=200
BASIS  =  6-311++G(d,p)
GUI  =  2
JOB_TYPE  =  SP
METHOD  =  B3LYP
SOLVENT_METHOD = COSMO
$end
$solvent
dielectric 37.219
opticaldielectric 1.43
$end

--------------------------------------------------------------

             Standard Nuclear Orientation (Angstroms)
    I     Atom           X                Y                Z
 ----------------------------------------------------------------
    1      O      -0.5307364401    -2.5854738014     0.2657773478
    2      C      -0.6954364982    -1.3349779806     0.2108070627
    3      C       0.4028723299    -0.4053295159     0.3441156729
    4      C       0.2052133155     0.9679121099     0.2722577385
    5      O       1.2568938088     1.8454805530     0.3867179088
    6      C      -1.0905679504     1.5913023813     0.0968009578
    7      O      -1.2413772174     2.8396347941     0.0518934154
    8      C      -2.2169266279     0.6587067325    -0.0276570747
    9      C      -3.5196697733     1.1684830970    -0.2081121954
   10      C      -4.6058032972     0.3223038173    -0.3375013170
   11      C      -4.4209268363    -1.0741108641    -0.2897926515
   12      C      -3.1501876750    -1.5932675377    -0.1132901628
   13      C      -2.0313234941    -0.7488417924     0.0193529801
   14      C       1.7756212826    -0.9973831607     0.6113848037
   15      H      -3.6332895885     2.2460894260    -0.2414486620
   16      H      -5.6018994633     0.7332050188    -0.4760286646
   17      H      -5.2734703475    -1.7394939697    -0.3907514674
   18      H      -2.9753037582    -2.6623591604    -0.0712265737
   19      C       2.8021098795    -0.6851259596    -0.4485728818
   20      C       4.0584238142    -0.2314597675    -0.3074851209
   21      C       4.7264867701     0.0579796839     1.0151443919
   22      C       4.9347386196     0.0128166707    -1.5133994747
   23      H       2.0744902191     1.3592317716     0.2215892017
   24      H       1.6189451922    -2.0817014660     0.6445249391
   25      H       2.1320327194    -0.6954101358     1.6033720589
   26      H       2.4488236724    -0.8583609426    -1.4644364621
   27      H       4.0581638460    -0.0679405266     1.8665721774
   28      H       5.1175577464     1.0829078340     1.0384646949
   29      H       5.5868851506    -0.6073195964     1.1638820394
   30      H       4.4100180629    -0.2126941316    -2.4441660295
   31      H       5.8418685054    -0.6046957298    -1.4744630108
   32      H       5.2691936792     1.0573617579    -1.5553099898
 ----------------------------------------------------------------

   10    -805.9743341355      7.94e-06  Convergence criterion met
 Total energy in the final basis set =     -805.9743341355
    5    -806.0649280506      4.34e-06  Convergence criterion met
 Total energy in the final basis set =     -806.0649280506

                    Orbital Energies (a.u.)
 --------------------------------------------------------------

 Alpha MOs
 -- Occupied --
-19.1501 -19.0812 -19.0774 -10.2271 -10.2253 -10.2242 -10.1810 -10.1740
-10.1726 -10.1714 -10.1706 -10.1690 -10.1689 -10.1687 -10.1679 -10.1647
-10.1602 -10.1587  -1.0624  -1.0033  -1.0019  -0.8580  -0.8224  -0.8024
 -0.7592  -0.7500  -0.7199  -0.6906  -0.6791  -0.6433  -0.6176  -0.5979
 -0.5594  -0.5488  -0.5190  -0.5139  -0.4819  -0.4673  -0.4585  -0.4380
 -0.4343  -0.4321  -0.4258  -0.4226  -0.4204  -0.4166  -0.4004  -0.3892
 -0.3839  -0.3824  -0.3727  -0.3699  -0.3665  -0.3597  -0.3464  -0.3439
 -0.3370  -0.3318  -0.2683  -0.2573  -0.2535  -0.2513  -0.2366  -0.2304
 -0.1526

 Beta MOs
 -- Occupied --
-19.1495 -19.0747 -19.0720 -10.2254 -10.2236 -10.2220 -10.1810 -10.1737
-10.1719 -10.1712 -10.1701 -10.1690 -10.1687 -10.1681 -10.1679 -10.1646
-10.1602 -10.1587  -1.0604  -0.9933  -0.9912  -0.8558  -0.8216  -0.7991
 -0.7575  -0.7480  -0.7177  -0.6906  -0.6722  -0.6412  -0.6154  -0.5966
 -0.5564  -0.5466  -0.5183  -0.5122  -0.4805  -0.4643  -0.4572  -0.4357
 -0.4330  -0.4286  -0.4232  -0.4205  -0.4151  -0.4109  -0.3971  -0.3824
 -0.3821  -0.3793  -0.3693  -0.3670  -0.3616  -0.3511  -0.3441  -0.3364
 -0.3311  -0.3291  -0.2517  -0.2504  -0.2482  -0.2458  -0.2320  -0.2228

          Ground-State Mulliken Net Atomic Charges

     Atom                 Charge (a.u.)    Spin (a.u.)
  --------------------------------------------------------
      1 O                    -0.505875       0.193790
      2 C                    -0.928742       0.092723
      3 C                     1.359120       0.056084
      4 C                    -0.440079       0.123664
      5 O                    -0.328457       0.016783
      6 C                    -0.459187       0.128990
      7 O                    -0.529963       0.238383
      8 C                     0.503818      -0.002346
      9 C                    -0.026772       0.055345
     10 C                    -0.447678       0.014999
     11 C                    -0.507626       0.046878
     12 C                     0.066628       0.012692
     13 C                    -0.204484       0.021653
     14 C                    -0.015388       0.007681
     15 H                     0.173388      -0.003319
     16 H                     0.203290      -0.001505
     17 H                     0.200846      -0.003406
     18 H                     0.180565      -0.001165
     19 C                    -0.643217      -0.011237
     20 C                     0.649437       0.012421
     21 C                    -0.592613       0.000772
     22 C                    -0.628781      -0.000456
     23 H                     0.359956      -0.000151
     24 H                     0.211001      -0.001470
     25 H                     0.185167       0.002574
     26 H                     0.190801      -0.000743
     27 H                     0.162565      -0.000048
     28 H                     0.162280       0.000041
     29 H                     0.165701      -0.000022
     30 H                     0.167543       0.000381
     31 H                     0.155255      -0.000179
     32 H                     0.161502       0.000194
  --------------------------------------------------------
  Sum of atomic charges =    -1.000000

                    Cartesian Multipole Moments
 -----------------------------------------------------------------
    Charge (ESU x 10^10)
                -4.8032
    Dipole Moment (Debye)
         X       6.1678      Y      -2.5795      Z      -0.8798
       Tot       6.7432
    Quadrupole Moments (Debye-Ang)
        XX     -98.9260     XY       5.0660     YY    -153.3546
        XZ       1.6561     YZ       0.1675     ZZ    -111.0372

 Total job time:  112.35s(wall), 786.37s(cpu)
        *  Thank you very much for using Q-Chem.  Have a nice day.  *
