 Q-Chem 5.4, Q-Chem, Inc., Pleasanton, CA (2021)
 Q-Chem 5.4.0 for Intel X86 EM64T Linux

User input:
--------------------------------------------------------------
$molecule
0 1
C                  1.5214750000      0.8168820000     -0.8333930000
C                  0.2567800000      1.5523290000     -0.6003110000
C                 -0.8049510000      0.9511870000     -0.0586910000
C                 -0.7730070000     -0.4920730000      0.3043500000
C                  0.4600060000     -1.2656620000      0.0400320000
C                  1.5347500000     -0.6513610000     -0.5251910000
O                  2.5130980000      1.4035570000     -1.2357620000
O                 -1.7669170000     -1.0094620000      0.7960800000
C                  0.4813310000     -2.7168150000      0.4191700000
O                  2.6560830000     -1.3795110000     -0.6957530000
C                  3.6344570000     -1.0832830000     -1.7136880000
H                  0.2722520000      2.6012710000     -0.8737460000
H                 -1.7371980000      1.4669070000      0.1419800000
H                  1.0005690000     -2.8607500000      1.3732460000
H                  1.0166190000     -3.3052330000     -0.3275760000
H                 -0.5355980000     -3.0899160000      0.5336870000
H                  4.1865990000     -2.0136080000     -1.8412590000
H                  4.2995590000     -0.2833590000     -1.3963220000
H                  3.1528030000     -0.8077920000     -2.6532440000
$end

$rem
BASIS  =  6-311++G(d,p)
GUI  =  2
JOB_TYPE  =  SP
METHOD  =  B3LYP
SCF_CONVERGENCE  = 8
SOLVENT_METHOD = sm12
$end

$smx
solvent dimethylformamide
charges CM5
$end

--------------------------------------------------------------

             Standard Nuclear Orientation (Angstroms)
    I     Atom           X                Y                Z
 ----------------------------------------------------------------
    1      C       1.5214750000     0.8168820000    -0.8333930000
    2      C       0.2567800000     1.5523290000    -0.6003110000
    3      C      -0.8049510000     0.9511870000    -0.0586910000
    4      C      -0.7730070000    -0.4920730000     0.3043500000
    5      C       0.4600060000    -1.2656620000     0.0400320000
    6      C       1.5347500000    -0.6513610000    -0.5251910000
    7      O       2.5130980000     1.4035570000    -1.2357620000
    8      O      -1.7669170000    -1.0094620000     0.7960800000
    9      C       0.4813310000    -2.7168150000     0.4191700000
   10      O       2.6560830000    -1.3795110000    -0.6957530000
   11      C       3.6344570000    -1.0832830000    -1.7136880000
   12      H       0.2722520000     2.6012710000    -0.8737460000
   13      H      -1.7371980000     1.4669070000     0.1419800000
   14      H       1.0005690000    -2.8607500000     1.3732460000
   15      H       1.0166190000    -3.3052330000    -0.3275760000
   16      H      -0.5355980000    -3.0899160000     0.5336870000
   17      H       4.1865990000    -2.0136080000    -1.8412590000
   18      H       4.2995590000    -0.2833590000    -1.3963220000
   19      H       3.1528030000    -0.8077920000    -2.6532440000
 ----------------------------------------------------------------

   16    -535.4471403652      2.42e-09  Convergence criterion met
 Total energy in the final basis set =     -535.4594949357

                    Orbital Energies (a.u.)
 --------------------------------------------------------------

 Alpha MOs
 -- Occupied --
-19.1707 -19.1422 -19.1297 -10.2897 -10.2772 -10.2640 -10.2210 -10.2083
-10.2069 -10.2027 -10.1689  -1.0920  -1.0656  -1.0604  -0.8606  -0.8045
 -0.7391  -0.6987  -0.6895  -0.6137  -0.5956  -0.5372  -0.5241  -0.4968
 -0.4844  -0.4675  -0.4484  -0.4426  -0.4328  -0.4313  -0.4227  -0.4030
 -0.3974  -0.3855  -0.3675  -0.3454  -0.3074  -0.2841  -0.2763  -0.2524

          Ground-State Mulliken Net Atomic Charges

     Atom                 Charge (a.u.)
  ----------------------------------------
      1 C                    -0.214168
      2 C                     0.560545
      3 C                     0.743599
      4 C                    -2.139373
      5 C                     1.468719
      6 C                    -0.981312
      7 O                    -0.271939
      8 O                    -0.334217
      9 C                    -0.198313
     10 O                    -0.180347
     11 C                    -0.213036
     12 H                     0.336683
     13 H                     0.313029
     14 H                     0.210954
     15 H                     0.182303
     16 H                     0.141176
     17 H                     0.212094
     18 H                     0.181753
     19 H                     0.181851
  ----------------------------------------
  Sum of atomic charges =     0.000000

                    Cartesian Multipole Moments
 -----------------------------------------------------------------
    Charge (ESU x 10^10)
                 0.0000
    Dipole Moment (Debye)
         X       1.6270      Y       0.4266      Z      -1.6495
       Tot       2.3558
    Quadrupole Moments (Debye-Ang)
        XX     -66.9307     XY     -10.2123     YY     -62.5455
        XZ      -0.0216     YZ       3.8335     ZZ     -62.9993

 Total job time:  195.23s(wall), 1511.62s(cpu)
        *  Thank you very much for using Q-Chem.  Have a nice day.  *
