 Q-Chem 5.4, Q-Chem, Inc., Pleasanton, CA (2021)
 Q-Chem 5.4.0 for Intel X86 EM64T Linux

User input:
--------------------------------------------------------------
$molecule
-2 1
C                  1.6886160000      1.0726940000     -0.8200970000
C                  0.4712960000      1.5476700000     -0.2173270000
C                 -0.5167290000      0.6843200000      0.2858020000
C                 -0.3827440000     -0.7483720000      0.2689080000
C                  0.8383390000     -1.2166560000     -0.3213040000
C                  1.8114870000     -0.3566090000     -0.8467310000
O                  2.5965560000      1.8631860000     -1.3174290000
O                 -1.2779990000     -1.5565500000      0.7607540000
O                  2.9145660000     -0.9350970000     -1.4839470000
C                  4.1529550000     -0.6432020000     -0.8603910000
C                  0.2772660000      3.0457970000     -0.1806140000
C                 -1.7748560000      1.2361540000      0.9150980000
H                  4.3014930000      0.4399700000     -0.7998270000
H                  4.9374940000     -1.0988710000     -1.4796760000
H                  4.1997790000     -1.0899520000      0.1472410000
O                  1.1161070000     -2.5878990000     -0.3181250000
C                  0.2141240000     -3.3557730000     -1.0955890000
H                 -0.8132110000     -3.1985110000     -0.7508440000
H                  0.4993240000     -4.4089020000     -0.9682100000
H                  0.2995400000     -3.0976100000     -2.1647740000
H                  1.1657950000      3.5143120000     -0.6123640000
H                  0.1331160000      3.4294940000      0.8421550000
H                 -0.6048430000      3.3729750000     -0.7573630000
H                 -2.3524100000      1.8694990000      0.2227040000
H                 -1.5666930000      1.8613240000      1.8003080000
H                 -2.3974500000      0.3928680000      1.2259740000
$end

$rem
BASIS  =  6-311++G(d,p)
GUI  =  2
JOB_TYPE  =  SP
METHOD  =  B3LYP
SCF_CONVERGENCE  = 8
SOLVENT_METHOD = sm12
$end

$smx
solvent dimethylformamide
charges CM5
$end

--------------------------------------------------------------

             Standard Nuclear Orientation (Angstroms)
    I     Atom           X                Y                Z
 ----------------------------------------------------------------
    1      C       1.6886160000     1.0726940000    -0.8200970000
    2      C       0.4712960000     1.5476700000    -0.2173270000
    3      C      -0.5167290000     0.6843200000     0.2858020000
    4      C      -0.3827440000    -0.7483720000     0.2689080000
    5      C       0.8383390000    -1.2166560000    -0.3213040000
    6      C       1.8114870000    -0.3566090000    -0.8467310000
    7      O       2.5965560000     1.8631860000    -1.3174290000
    8      O      -1.2779990000    -1.5565500000     0.7607540000
    9      O       2.9145660000    -0.9350970000    -1.4839470000
   10      C       4.1529550000    -0.6432020000    -0.8603910000
   11      C       0.2772660000     3.0457970000    -0.1806140000
   12      C      -1.7748560000     1.2361540000     0.9150980000
   13      H       4.3014930000     0.4399700000    -0.7998270000
   14      H       4.9374940000    -1.0988710000    -1.4796760000
   15      H       4.1997790000    -1.0899520000     0.1472410000
   16      O       1.1161070000    -2.5878990000    -0.3181250000
   17      C       0.2141240000    -3.3557730000    -1.0955890000
   18      H      -0.8132110000    -3.1985110000    -0.7508440000
   19      H       0.4993240000    -4.4089020000    -0.9682100000
   20      H       0.2995400000    -3.0976100000    -2.1647740000
   21      H       1.1657950000     3.5143120000    -0.6123640000
   22      H       0.1331160000     3.4294940000     0.8421550000
   23      H      -0.6048430000     3.3729750000    -0.7573630000
   24      H      -2.3524100000     1.8694990000     0.2227040000
   25      H      -1.5666930000     1.8613240000     1.8003080000
   26      H      -2.3974500000     0.3928680000     1.2259740000
 ----------------------------------------------------------------

   18    -689.2900786737      9.89e-09  Convergence criterion met
 Total energy in the final basis set =     -689.5695375050

                    Orbital Energies (a.u.)
 --------------------------------------------------------------

 Alpha MOs
 -- Occupied --
-19.1150 -19.1150 -19.0102 -19.0101 -10.2027 -10.2027 -10.1762 -10.1757
-10.1686 -10.1685 -10.1598 -10.1597 -10.1331 -10.1326  -1.0332  -1.0161
 -0.9211  -0.9184  -0.7931  -0.7467  -0.7142  -0.6877  -0.6793  -0.6213
 -0.6203  -0.5416  -0.5317  -0.4867  -0.4684  -0.4634  -0.4481  -0.4320
 -0.4279  -0.4227  -0.4181  -0.3939  -0.3928  -0.3795  -0.3707  -0.3566
 -0.3479  -0.3396  -0.3338  -0.3174  -0.3155  -0.3022  -0.2608  -0.2593
 -0.2139  -0.1944  -0.1898  -0.1864  -0.1139

          Ground-State Mulliken Net Atomic Charges

     Atom                 Charge (a.u.)
  ----------------------------------------
      1 C                    -1.794103
      2 C                    -0.497741
      3 C                    -0.496268
      4 C                    -1.796343
      5 C                     0.085118
      6 C                     0.097006
      7 O                    -0.386318
      8 O                    -0.386390
      9 O                    -0.009678
     10 C                     0.240213
     11 C                     0.430213
     12 C                     0.433310
     13 H                     0.113812
     14 H                     0.263146
     15 H                     0.055961
     16 O                    -0.009722
     17 C                     0.241219
     18 H                     0.114126
     19 H                     0.262925
     20 H                     0.055544
     21 H                     0.164678
     22 H                     0.171417
     23 H                     0.155675
     24 H                     0.171605
     25 H                     0.155807
     26 H                     0.164790
  ----------------------------------------
  Sum of atomic charges =    -2.000000

                    Cartesian Multipole Moments
 -----------------------------------------------------------------
    Charge (ESU x 10^10)
                -9.6064
    Dipole Moment (Debye)
         X      -6.7436      Y      -0.8919      Z       2.8632
       Tot       7.3804
    Quadrupole Moments (Debye-Ang)
        XX    -131.6973     XY     -13.6707     YY    -129.9292
        XZ      21.1606     YZ      10.2966     ZZ    -107.3284

 Total job time:  510.92s(wall), 4014.92s(cpu)
        *  Thank you very much for using Q-Chem.  Have a nice day.  *
