 Q-Chem 5.4, Q-Chem, Inc., Pleasanton, CA (2021)
 Q-Chem 5.4.0 for Intel X86 EM64T Linux

User input:
--------------------------------------------------------------
$molecule
-2 1
C                 -0.6673730000     -1.2246510000      2.5414880000
C                 -0.8005440000     -1.8024090000      1.2045130000
C                 -0.4959440000     -1.1341160000      0.0634660000
C                  0.0673480000      0.2158770000      0.0278810000
C                  0.3013610000      0.8039190000      1.3241940000
C                 -0.2322160000      0.1371270000      2.5174840000
O                 -0.9541490000     -1.9289110000      3.5610520000
O                  0.3748720000      0.7098490000     -1.1100430000
S                 -0.6311540000      1.0883270000      3.9533960000
C                  0.6122910000      0.7017640000      5.2331530000
C                  0.5308060000     -0.5194100000      5.9060420000
C                  1.6202680000      1.6193230000      5.5239800000
C                  2.5427230000      1.3230000000      6.5276280000
C                  1.4628960000     -0.8071680000      6.9025860000
C                  2.4645600000      0.1139230000      7.2235730000
O                 -0.5190170000      2.5411990000      3.6925030000
O                 -1.9135360000      0.6508360000      4.5538260000
H                 -1.1916590000     -2.8186700000      1.1763140000
H                 -0.6303600000     -1.6012460000     -0.9113480000
H                 -0.2358080000     -1.2242670000      5.5984850000
H                  1.6756670000      2.5293440000      4.9407480000
H                  3.3325060000      2.0329640000      6.7587020000
H                  1.4106280000     -1.7571830000      7.4280520000
H                  3.1877710000     -0.1148840000      8.0024740000
C                  1.3082610000      1.8481060000      1.4542370000
C                  1.5989690000      2.7656030000      0.2704010000
O                  1.9969950000      2.0067240000      2.4786230000
H                  0.6807260000      3.1808760000     -0.1528030000
H                  2.0602880000      2.1991120000     -0.5437230000
H                  2.2614150000      3.5619620000      0.6239360000
$end
$rem
MAX_SCF_CYCLES=200
BASIS  =  6-311++G(d,p)
GUI  =  2
JOB_TYPE  =  SP
METHOD  =  B3LYP
SOLVENT_METHOD = PCM
$end
$pcm
theory = CPCM
$end
$solvent
dielectric 37.219
opticaldielectric 1.43
$end

--------------------------------------------------------------

             Standard Nuclear Orientation (Angstroms)
    I     Atom           X                Y                Z
 ----------------------------------------------------------------
    1      C      -0.6673730000    -1.2246510000     2.5414880000
    2      C      -0.8005440000    -1.8024090000     1.2045130000
    3      C      -0.4959440000    -1.1341160000     0.0634660000
    4      C       0.0673480000     0.2158770000     0.0278810000
    5      C       0.3013610000     0.8039190000     1.3241940000
    6      C      -0.2322160000     0.1371270000     2.5174840000
    7      O      -0.9541490000    -1.9289110000     3.5610520000
    8      O       0.3748720000     0.7098490000    -1.1100430000
    9      S      -0.6311540000     1.0883270000     3.9533960000
   10      C       0.6122910000     0.7017640000     5.2331530000
   11      C       0.5308060000    -0.5194100000     5.9060420000
   12      C       1.6202680000     1.6193230000     5.5239800000
   13      C       2.5427230000     1.3230000000     6.5276280000
   14      C       1.4628960000    -0.8071680000     6.9025860000
   15      C       2.4645600000     0.1139230000     7.2235730000
   16      O      -0.5190170000     2.5411990000     3.6925030000
   17      O      -1.9135360000     0.6508360000     4.5538260000
   18      H      -1.1916590000    -2.8186700000     1.1763140000
   19      H      -0.6303600000    -1.6012460000    -0.9113480000
   20      H      -0.2358080000    -1.2242670000     5.5984850000
   21      H       1.6756670000     2.5293440000     4.9407480000
   22      H       3.3325060000     2.0329640000     6.7587020000
   23      H       1.4106280000    -1.7571830000     7.4280520000
   24      H       3.1877710000    -0.1148840000     8.0024740000
   25      C       1.3082610000     1.8481060000     1.4542370000
   26      C       1.5989690000     2.7656030000     0.2704010000
   27      O       1.9969950000     2.0067240000     2.4786230000
   28      H       0.6807260000     3.1808760000    -0.1528030000
   29      H       2.0602880000     2.1991120000    -0.5437230000
   30      H       2.2614150000     3.5619620000     0.6239360000
 ----------------------------------------------------------------

    9   -1314.2977833374      8.13e-06  Convergence criterion met
 Total energy in the final basis set =    -1314.2977833374

                    Orbital Energies (a.u.)
 --------------------------------------------------------------

 Alpha MOs
 -- Occupied --
-89.0294 -19.0960 -19.0948 -19.0714 -19.0471 -19.0450 -10.2266 -10.2111
-10.2076 -10.1939 -10.1769 -10.1767 -10.1755 -10.1754 -10.1744 -10.1643
-10.1570 -10.1552 -10.1482 -10.1412  -8.0926  -6.0559  -6.0544  -6.0533
 -1.0865  -1.0001  -0.9806  -0.9697  -0.9651  -0.8609  -0.8078  -0.7660
 -0.7489  -0.7448  -0.7197  -0.6821  -0.6503  -0.6098  -0.6067  -0.5864
 -0.5508  -0.5211  -0.5081  -0.4794  -0.4677  -0.4637  -0.4563  -0.4473
 -0.4405  -0.4327  -0.4260  -0.4225  -0.4126  -0.3959  -0.3906  -0.3824
 -0.3748  -0.3722  -0.3659  -0.3587  -0.3562  -0.3442  -0.3374  -0.3353
 -0.3204  -0.3078  -0.2847  -0.2830  -0.2638  -0.2587  -0.2514  -0.2361
 -0.2284  -0.2200  -0.2109  -0.1524

          Ground-State Mulliken Net Atomic Charges

     Atom                 Charge (a.u.)
  ----------------------------------------
      1 C                    -0.132772
      2 C                    -0.429967
      3 C                    -0.242592
      4 C                    -0.602888
      5 C                     0.940208
      6 C                     0.031079
      7 O                    -0.521110
      8 O                    -0.574291
      9 S                     0.762466
     10 C                    -0.223253
     11 C                    -0.040534
     12 C                     0.160723
     13 C                    -0.489184
     14 C                    -0.500659
     15 C                    -0.305604
     16 O                    -0.326905
     17 O                    -0.257483
     18 H                     0.197254
     19 H                     0.189988
     20 H                     0.271030
     21 H                     0.255285
     22 H                     0.219952
     23 H                     0.216037
     24 H                     0.199321
     25 C                    -0.236213
     26 C                    -0.639894
     27 O                    -0.412709
     28 H                     0.173326
     29 H                     0.180333
     30 H                     0.139059
  ----------------------------------------
  Sum of atomic charges =    -2.000000

                    Cartesian Multipole Moments
 -----------------------------------------------------------------
    Charge (ESU x 10^10)
                -9.6064
    Dipole Moment (Debye)
         X       3.2065      Y      -5.5145      Z     -21.6098
       Tot      22.5317
    Quadrupole Moments (Debye-Ang)
        XX    -148.0411     XY      -5.6859     YY    -157.0765
        XZ      28.6938     YZ      -9.7963     ZZ    -221.2809

 Total job time:  67.74s(wall), 496.84s(cpu)
        *  Thank you very much for using Q-Chem.  Have a nice day.  *
