 Q-Chem 5.4, Q-Chem, Inc., Pleasanton, CA (2021)
 Q-Chem 5.4.0 for Intel X86 EM64T Linux

User input:
--------------------------------------------------------------
$molecule
-2 1
C                 -4.8221630000      0.2338890000     -3.9804780000
C                 -4.2201210000      1.2450870000     -4.6932230000
C                 -3.0891770000      1.9179660000     -4.1875860000
C                 -4.3202360000     -0.1619320000     -2.7121060000
C                 -3.1681240000      0.5166480000     -2.1826480000
C                 -2.5899300000      1.5415290000     -2.9483710000
C                 -4.9471420000     -1.2149950000     -1.9742370000
C                 -4.3568920000     -1.5300560000     -0.7081550000
C                 -3.2419310000     -0.9061070000     -0.1598400000
C                 -2.5918020000      0.1623390000     -0.8754850000
O                 -5.9851970000     -1.8951650000     -2.3527040000
O                 -1.5726580000      0.7660710000     -0.4126450000
O                 -5.0072500000     -2.5491680000     -0.0553580000
O                 -4.6968880000      1.6510640000     -5.9436240000
C                 -2.6873500000     -1.3261090000      1.1776310000
C                 -3.2142170000     -0.4919120000      2.3630570000
C                 -2.6167880000     -0.9143790000      3.7113510000
C                 -3.1304930000     -0.1043000000      4.9086530000
C                 -2.5399250000     -0.5419560000      6.2557920000
C                 -3.0505020000      0.2645170000      7.4566690000
C                 -2.4608850000     -0.1797110000      8.8017020000
C                 -2.9745130000      0.6244210000     10.0029260000
C                 -2.3865430000      0.1767510000     11.3472370000
C                 -2.9031710000      0.9808570000     12.5474520000
C                 -2.3153930000      0.5318850000     13.8885430000
H                 -5.6949750000     -0.2912180000     -4.3626680000
H                 -2.6345280000      2.7121730000     -4.7703960000
H                 -1.7220590000      2.0381720000     -2.5268010000
H                 -5.7166220000     -2.7524200000     -0.7121890000
H                 -5.4638530000      1.1036760000     -6.1394320000
H                 -1.5975310000     -1.2143360000      1.1423400000
H                 -2.9207400000     -2.3818770000      1.3581900000
H                 -4.3068970000     -0.5799170000      2.4035250000
H                 -2.9837550000      0.5615380000      2.1705970000
H                 -1.5227710000     -0.8269820000      3.6614190000
H                 -2.8290300000     -1.9793940000      3.8825590000
H                 -4.2251770000     -0.1820530000      4.9532190000
H                 -2.9094420000      0.9587350000      4.7450870000
H                 -1.4451670000     -0.4656400000      6.2104870000
H                 -2.7613970000     -1.6057290000      6.4169490000
H                 -4.1453330000      0.1904210000      7.5014090000
H                 -2.8265250000      1.3278700000      7.2983650000
H                 -1.3661750000     -0.1039620000      8.7587200000
H                 -2.6831020000     -1.2436180000      8.9591990000
H                 -4.0693240000      0.5494350000     10.0454690000
H                 -2.7505190000      1.6882060000      9.8474820000
H                 -1.2919710000      0.2527580000     11.3083970000
H                 -2.6093240000     -0.8866810000     11.5050370000
H                 -3.9974260000      0.9053060000     12.5872100000
H                 -2.6807430000      2.0442250000     12.3911810000
H                 -2.5533340000     -0.5170680000     14.0994970000
H                 -2.7055910000      1.1266260000     14.7215920000
H                 -1.2239610000      0.6319430000     13.9017170000
$end

$rem
BASIS  =  6-311++G(d,p)
GUI  =  2
JOB_TYPE  =  SP
METHOD  =  B3LYP
THRESH = 14
SCF_CONVERGENCE  = 8
SOLVENT_METHOD = sm12
$end

$smx
solvent dimethylformamide
charges CM5
$end

--------------------------------------------------------------

             Standard Nuclear Orientation (Angstroms)
    I     Atom           X                Y                Z
 ----------------------------------------------------------------
    1      C      -4.8221630000     0.2338890000    -3.9804780000
    2      C      -4.2201210000     1.2450870000    -4.6932230000
    3      C      -3.0891770000     1.9179660000    -4.1875860000
    4      C      -4.3202360000    -0.1619320000    -2.7121060000
    5      C      -3.1681240000     0.5166480000    -2.1826480000
    6      C      -2.5899300000     1.5415290000    -2.9483710000
    7      C      -4.9471420000    -1.2149950000    -1.9742370000
    8      C      -4.3568920000    -1.5300560000    -0.7081550000
    9      C      -3.2419310000    -0.9061070000    -0.1598400000
   10      C      -2.5918020000     0.1623390000    -0.8754850000
   11      O      -5.9851970000    -1.8951650000    -2.3527040000
   12      O      -1.5726580000     0.7660710000    -0.4126450000
   13      O      -5.0072500000    -2.5491680000    -0.0553580000
   14      O      -4.6968880000     1.6510640000    -5.9436240000
   15      C      -2.6873500000    -1.3261090000     1.1776310000
   16      C      -3.2142170000    -0.4919120000     2.3630570000
   17      C      -2.6167880000    -0.9143790000     3.7113510000
   18      C      -3.1304930000    -0.1043000000     4.9086530000
   19      C      -2.5399250000    -0.5419560000     6.2557920000
   20      C      -3.0505020000     0.2645170000     7.4566690000
   21      C      -2.4608850000    -0.1797110000     8.8017020000
   22      C      -2.9745130000     0.6244210000    10.0029260000
   23      C      -2.3865430000     0.1767510000    11.3472370000
   24      C      -2.9031710000     0.9808570000    12.5474520000
   25      C      -2.3153930000     0.5318850000    13.8885430000
   26      H      -5.6949750000    -0.2912180000    -4.3626680000
   27      H      -2.6345280000     2.7121730000    -4.7703960000
   28      H      -1.7220590000     2.0381720000    -2.5268010000
   29      H      -5.7166220000    -2.7524200000    -0.7121890000
   30      H      -5.4638530000     1.1036760000    -6.1394320000
   31      H      -1.5975310000    -1.2143360000     1.1423400000
   32      H      -2.9207400000    -2.3818770000     1.3581900000
   33      H      -4.3068970000    -0.5799170000     2.4035250000
   34      H      -2.9837550000     0.5615380000     2.1705970000
   35      H      -1.5227710000    -0.8269820000     3.6614190000
   36      H      -2.8290300000    -1.9793940000     3.8825590000
   37      H      -4.2251770000    -0.1820530000     4.9532190000
   38      H      -2.9094420000     0.9587350000     4.7450870000
   39      H      -1.4451670000    -0.4656400000     6.2104870000
   40      H      -2.7613970000    -1.6057290000     6.4169490000
   41      H      -4.1453330000     0.1904210000     7.5014090000
   42      H      -2.8265250000     1.3278700000     7.2983650000
   43      H      -1.3661750000    -0.1039620000     8.7587200000
   44      H      -2.6831020000    -1.2436180000     8.9591990000
   45      H      -4.0693240000     0.5494350000    10.0454690000
   46      H      -2.7505190000     1.6882060000     9.8474820000
   47      H      -1.2919710000     0.2527580000    11.3083970000
   48      H      -2.6093240000    -0.8866810000    11.5050370000
   49      H      -3.9974260000     0.9053060000    12.5872100000
   50      H      -2.6807430000     2.0442250000    12.3911810000
   51      H      -2.5533340000    -0.5170680000    14.0994970000
   52      H      -2.7055910000     1.1266260000    14.7215920000
   53      H      -1.2239610000     0.6319430000    13.9017170000
 ----------------------------------------------------------------

   17   -1118.3099627993      7.49e-09  Convergence criterion met
 Total energy in the final basis set =    -1118.5968111282

                    Orbital Energies (a.u.)
 --------------------------------------------------------------

 Alpha MOs
 -- Occupied --
-19.1490 -19.1157 -19.0221 -19.0211 -10.2202 -10.1821 -10.1798 -10.1645
-10.1643 -10.1635 -10.1632 -10.1629 -10.1625 -10.1622 -10.1621 -10.1619
-10.1618 -10.1588 -10.1586 -10.1573 -10.1549 -10.1533 -10.1432 -10.1389
-10.1269  -1.0512  -1.0289  -0.9443  -0.9287  -0.8336  -0.8157  -0.8031
 -0.7857  -0.7687  -0.7489  -0.7336  -0.7236  -0.6987  -0.6694  -0.6413
 -0.6247  -0.6111  -0.5931  -0.5799  -0.5756  -0.5740  -0.5696  -0.5457
 -0.5323  -0.4987  -0.4877  -0.4765  -0.4644  -0.4556  -0.4510  -0.4447
 -0.4351  -0.4275  -0.4267  -0.4202  -0.4176  -0.4084  -0.4027  -0.4012
 -0.3928  -0.3863  -0.3789  -0.3742  -0.3724  -0.3694  -0.3629  -0.3561
 -0.3532  -0.3463  -0.3443  -0.3393  -0.3373  -0.3319  -0.3282  -0.3255
 -0.3243  -0.3226  -0.3220  -0.3192  -0.3121  -0.3086  -0.2965  -0.2901
 -0.2363  -0.2168  -0.2099  -0.1963  -0.1942  -0.1069

          Ground-State Mulliken Net Atomic Charges

     Atom                 Charge (a.u.)
  ----------------------------------------
      1 C                     0.529971
      2 C                     2.314294
      3 C                     1.159340
      4 C                    -1.271716
      5 C                    -2.482783
      6 C                    -0.577550
      7 C                    -2.510581
      8 C                    -0.575367
      9 C                     0.635095
     10 C                    -3.005787
     11 O                    -0.423960
     12 O                    -0.282735
     13 O                    -0.059035
     14 O                    -0.056309
     15 C                    -1.035951
     16 C                    -4.721538
     17 C                    -2.356625
     18 C                    -0.418599
     19 C                     1.444393
     20 C                     2.432890
     21 C                     2.434847
     22 C                     1.670426
     23 C                     1.075867
     24 C                     0.283497
     25 C                    -0.201798
     26 H                     0.080766
     27 H                     0.319210
     28 H                     0.057338
     29 H                     0.297333
     30 H                     0.396660
     31 H                     0.004373
     32 H                     0.135248
     33 H                    -0.011641
     34 H                     0.016776
     35 H                     0.261461
     36 H                     0.263561
     37 H                     0.172140
     38 H                     0.139474
     39 H                     0.094245
     40 H                     0.093834
     41 H                     0.107231
     42 H                     0.117769
     43 H                     0.125172
     44 H                     0.129072
     45 H                     0.121904
     46 H                     0.119723
     47 H                     0.109066
     48 H                     0.108805
     49 H                     0.119336
     50 H                     0.119155
     51 H                     0.141568
     52 H                     0.218797
     53 H                     0.141340
  ----------------------------------------
  Sum of atomic charges =    -2.000000

                    Cartesian Multipole Moments
 -----------------------------------------------------------------
    Charge (ESU x 10^10)
                -9.6064
    Dipole Moment (Debye)
         X      35.1703      Y       2.7969      Z      15.4335
       Tot      38.5093
    Quadrupole Moments (Debye-Ang)
        XX    -324.2930     XY     -27.0833     YY    -192.4747
        XZ     -66.7939     YZ       6.9845     ZZ    -232.1728

 Total job time:  3501.72s(wall), 23379.15s(cpu)
        *  Thank you very much for using Q-Chem.  Have a nice day.  *
