 Q-Chem 5.4, Q-Chem, Inc., Pleasanton, CA (2021)
 Q-Chem 5.4.0 for Intel X86 EM64T Linux

User input:
--------------------------------------------------------------
$molecule
0 1
C                  1.2357000000      1.5553440000     -0.4861730000
C                 -0.0427700000      1.1750080000      0.1904650000
C                 -0.4497590000     -0.1131900000      0.1868510000
C                  0.3665610000     -1.1467770000     -0.5107930000
C                  1.6804850000     -0.7867660000     -1.1849930000
C                  2.0860580000      0.4975460000     -1.0979280000
O                  1.5686770000      2.7272280000     -0.5339300000
O                 -0.0156190000     -2.3033580000     -0.5339930000
S                  3.6447950000      1.0840820000     -1.8835780000
C                  4.4881540000      2.0895430000     -0.6460180000
C                  4.4477480000      3.4768740000     -0.7479120000
C                  5.2279000000      1.4447150000      0.3434010000
C                  5.9280870000      2.2163070000      1.2680860000
C                  5.1645270000      4.2356190000      0.1733220000
C                  5.8969060000      3.6078190000      1.1812080000
O                  3.2741750000      1.9302970000     -3.0187770000
O                  4.4852000000     -0.1020210000     -2.0885880000
H                  3.8638440000      3.9397380000     -1.5316480000
H                  5.2724750000      0.3632860000      0.3740930000
H                  5.1493130000      5.3170510000      0.1044520000
H                  6.5086200000      1.7306720000      2.0437720000
C                 -1.7029040000     -0.6417780000      0.8252810000
C                 -0.7697470000      2.3278890000      0.8204840000
H                  6.4497800000      4.2048030000      1.8977510000
H                 -2.2396020000      0.1207190000      1.3841210000
H                 -1.4622060000     -1.4679300000      1.4987680000
H                 -2.3710000000     -1.0561460000      0.0648730000
H                 -0.9180050000      3.1226870000      0.0857970000
H                 -0.1669640000      2.7651770000      1.6219390000
H                 -1.7354990000      2.0392920000      1.2275700000
C                  2.3784390000     -1.9282340000     -1.8652350000
H                  1.7269400000     -2.7990740000     -1.8650200000
H                  3.3087340000     -2.1730380000     -1.3481000000
H                  2.6608150000     -1.6690050000     -2.8852460000
$end
$rem
MAX_SCF_CYCLES=200
BASIS  =  6-311++G(d,p)
GUI  =  2
JOB_TYPE  =  SP
METHOD  =  B3LYP
SOLVENT_METHOD = PCM
$end
$pcm
theory = CPCM
$end
$solvent
dielectric 37.219
opticaldielectric 1.43
$end

--------------------------------------------------------------

             Standard Nuclear Orientation (Angstroms)
    I     Atom           X                Y                Z
 ----------------------------------------------------------------
    1      C       1.2357000000     1.5553440000    -0.4861730000
    2      C      -0.0427700000     1.1750080000     0.1904650000
    3      C      -0.4497590000    -0.1131900000     0.1868510000
    4      C       0.3665610000    -1.1467770000    -0.5107930000
    5      C       1.6804850000    -0.7867660000    -1.1849930000
    6      C       2.0860580000     0.4975460000    -1.0979280000
    7      O       1.5686770000     2.7272280000    -0.5339300000
    8      O      -0.0156190000    -2.3033580000    -0.5339930000
    9      S       3.6447950000     1.0840820000    -1.8835780000
   10      C       4.4881540000     2.0895430000    -0.6460180000
   11      C       4.4477480000     3.4768740000    -0.7479120000
   12      C       5.2279000000     1.4447150000     0.3434010000
   13      C       5.9280870000     2.2163070000     1.2680860000
   14      C       5.1645270000     4.2356190000     0.1733220000
   15      C       5.8969060000     3.6078190000     1.1812080000
   16      O       3.2741750000     1.9302970000    -3.0187770000
   17      O       4.4852000000    -0.1020210000    -2.0885880000
   18      H       3.8638440000     3.9397380000    -1.5316480000
   19      H       5.2724750000     0.3632860000     0.3740930000
   20      H       5.1493130000     5.3170510000     0.1044520000
   21      H       6.5086200000     1.7306720000     2.0437720000
   22      C      -1.7029040000    -0.6417780000     0.8252810000
   23      C      -0.7697470000     2.3278890000     0.8204840000
   24      H       6.4497800000     4.2048030000     1.8977510000
   25      H      -2.2396020000     0.1207190000     1.3841210000
   26      H      -1.4622060000    -1.4679300000     1.4987680000
   27      H      -2.3710000000    -1.0561460000     0.0648730000
   28      H      -0.9180050000     3.1226870000     0.0857970000
   29      H      -0.1669640000     2.7651770000     1.6219390000
   30      H      -1.7354990000     2.0392920000     1.2275700000
   31      C       2.3784390000    -1.9282340000    -1.8652350000
   32      H       1.7269400000    -2.7990740000    -1.8650200000
   33      H       3.3087340000    -2.1730380000    -1.3481000000
   34      H       2.6608150000    -1.6690050000    -2.8852460000
 ----------------------------------------------------------------

    9   -1279.3069271187      5.55e-06  Convergence criterion met
 Total energy in the final basis set =    -1279.3069271187

                    Orbital Energies (a.u.)
 --------------------------------------------------------------

 Alpha MOs
 -- Occupied --
-89.0709 -19.1493 -19.1447 -19.1376 -19.1334 -10.2962 -10.2938 -10.2450
-10.2407 -10.2223 -10.2190 -10.2173 -10.2015 -10.1996 -10.1938 -10.1920
-10.1914 -10.1757 -10.1742 -10.1737  -8.1345  -6.0973  -6.0964  -6.0955
 -1.1316  -1.0831  -1.0806  -1.0281  -0.8849  -0.8787  -0.8366  -0.7909
 -0.7705  -0.7565  -0.7496  -0.7159  -0.6764  -0.6674  -0.6294  -0.6231
 -0.5914  -0.5869  -0.5556  -0.5477  -0.5183  -0.4950  -0.4881  -0.4858
 -0.4739  -0.4722  -0.4653  -0.4604  -0.4445  -0.4422  -0.4396  -0.4309
 -0.4297  -0.4157  -0.4086  -0.4007  -0.3980  -0.3974  -0.3916  -0.3860
 -0.3803  -0.3670  -0.3598  -0.3490  -0.3319  -0.3194  -0.3121  -0.3027
 -0.2883  -0.2802  -0.2771  -0.2725

          Ground-State Mulliken Net Atomic Charges

     Atom                 Charge (a.u.)
  ----------------------------------------
      1 C                    -0.570772
      2 C                     0.203923
      3 C                     0.558767
      4 C                    -1.146484
      5 C                     0.886136
      6 C                     0.031014
      7 O                    -0.204374
      8 O                    -0.227020
      9 S                     0.538605
     10 C                     0.361198
     11 C                    -0.341989
     12 C                     0.118472
     13 C                    -0.509440
     14 C                    -0.393289
     15 C                    -0.333618
     16 O                    -0.154401
     17 O                    -0.170003
     18 H                     0.272290
     19 H                     0.257604
     20 H                     0.236228
     21 H                     0.235752
     22 C                    -0.492500
     23 C                    -0.592045
     24 H                     0.213925
     25 H                     0.147504
     26 H                     0.196897
     27 H                     0.202998
     28 H                     0.202081
     29 H                     0.205237
     30 H                     0.148581
     31 C                    -0.525138
     32 H                     0.190241
     33 H                     0.231636
     34 H                     0.221983
  ----------------------------------------
  Sum of atomic charges =     0.000000

                    Cartesian Multipole Moments
 -----------------------------------------------------------------
    Charge (ESU x 10^10)
                -0.0000
    Dipole Moment (Debye)
         X      -2.1924      Y       1.1016      Z       6.9854
       Tot       7.4037
    Quadrupole Moments (Debye-Ang)
        XX    -120.2259     XY       3.3464     YY    -124.1909
        XZ      27.2757     YZ      11.9937     ZZ    -136.1970

 Total job time:  76.61s(wall), 532.09s(cpu)
        *  Thank you very much for using Q-Chem.  Have a nice day.  *
