 Gaussian 16, Revision A.03,
 Gaussian 16:  ES64L-G16RevA.03 25-Dec-2016

 --------------------------------------
 #P UB3LYP/6-311++G(d,p) nosym opt freq
 --------------------------------------

 --------
 Oxidized
 --------
 Symbolic Z-matrix:
 Charge =  0 Multiplicity = 1

 SCF Done:  E(UB3LYP) =  -1279.28542790     A.U. after   18 cycles
 Optimization completed.
    -- Stationary point found.
 Normal termination of Gaussian 16 at Wed Jan 10 04:58:33 2024.

 ----------------------------------------------------------------------
 #P Geom=AllCheck Guess=TCheck SCRF=Check GenChk UB3LYP/6-311++G(d,p) F
 req
 ----------------------------------------------------------------------

 Structure from the checkpoint file:  "071.chk"
 --------
 Oxidized
 --------
 Charge =  0 Multiplicity = 1

                          Input orientation:
 ---------------------------------------------------------------------
 Center     Atomic      Atomic             Coordinates (Angstroms)
 Number     Number       Type             X           Y           Z
 ---------------------------------------------------------------------
      1          6           0        1.235700    1.555344   -0.486173
      2          6           0       -0.042770    1.175008    0.190465
      3          6           0       -0.449759   -0.113190    0.186851
      4          6           0        0.366561   -1.146777   -0.510793
      5          6           0        1.680485   -0.786766   -1.184993
      6          6           0        2.086058    0.497546   -1.097928
      7          8           0        1.568677    2.727228   -0.533930
      8          8           0       -0.015619   -2.303358   -0.533993
      9         16           0        3.644795    1.084082   -1.883578
     10          6           0        4.488154    2.089543   -0.646018
     11          6           0        4.447748    3.476874   -0.747912
     12          6           0        5.227900    1.444715    0.343401
     13          6           0        5.928087    2.216307    1.268086
     14          6           0        5.164527    4.235619    0.173322
     15          6           0        5.896906    3.607819    1.181208
     16          8           0        3.274175    1.930297   -3.018777
     17          8           0        4.485200   -0.102021   -2.088588
     18          1           0        3.863844    3.939738   -1.531648
     19          1           0        5.272475    0.363286    0.374093
     20          1           0        5.149313    5.317051    0.104452
     21          1           0        6.508620    1.730672    2.043772
     22          6           0       -1.702904   -0.641778    0.825281
     23          6           0       -0.769747    2.327889    0.820484
     24          1           0        6.449780    4.204803    1.897751
     25          1           0       -2.239602    0.120719    1.384121
     26          1           0       -1.462206   -1.467930    1.498768
     27          1           0       -2.371000   -1.056146    0.064873
     28          1           0       -0.918005    3.122687    0.085797
     29          1           0       -0.166964    2.765177    1.621939
     30          1           0       -1.735499    2.039292    1.227570
     31          6           0        2.378439   -1.928234   -1.865235
     32          1           0        1.726940   -2.799074   -1.865020
     33          1           0        3.308734   -2.173038   -1.348100
     34          1           0        2.660815   -1.669005   -2.885246
 ---------------------------------------------------------------------

 SCF Done:  E(UB3LYP) =  -1279.28542790     A.U. after    2 cycles

 Alpha  occ. eigenvalues --  -89.06011 -19.15057 -19.14544 -19.12191 -19.12044
 Alpha  occ. eigenvalues --  -10.29681 -10.29566 -10.24584 -10.24068 -10.22808
 Alpha  occ. eigenvalues --  -10.22667 -10.22120 -10.20525 -10.20082 -10.20035
 Alpha  occ. eigenvalues --  -10.19839 -10.19659 -10.18988 -10.18976 -10.17847
 Alpha  occ. eigenvalues --   -8.12357  -6.08598  -6.08555  -6.08481  -1.11774
 Alpha  occ. eigenvalues --   -1.08424  -1.08048  -1.01286  -0.88683  -0.88364
 Alpha  occ. eigenvalues --   -0.84319  -0.79139  -0.77420  -0.76771  -0.75278
 Alpha  occ. eigenvalues --   -0.72228  -0.67960  -0.67179  -0.63340  -0.62660
 Alpha  occ. eigenvalues --   -0.59588  -0.58918  -0.55864  -0.54955  -0.51448
 Alpha  occ. eigenvalues --   -0.49192  -0.48656  -0.48540  -0.47937  -0.47028
 Alpha  occ. eigenvalues --   -0.46593  -0.45396  -0.45171  -0.44811  -0.44656
 Alpha  occ. eigenvalues --   -0.43832  -0.43643  -0.42530  -0.41700  -0.40989
 Alpha  occ. eigenvalues --   -0.40721  -0.40143  -0.39514  -0.39100  -0.38874
 Alpha  occ. eigenvalues --   -0.37249  -0.34545  -0.33581  -0.31897  -0.31243
 Alpha  occ. eigenvalues --   -0.30984  -0.30245  -0.29329  -0.28143  -0.27999
 Alpha  occ. eigenvalues --   -0.27373
 Alpha virt. eigenvalues --   -0.14197  -0.05960  -0.04112  -0.03217  -0.01920
 Alpha virt. eigenvalues --   -0.01475  -0.01003   0.00082   0.00974   0.01031
 Alpha virt. eigenvalues --    0.01924   0.02046   0.02426   0.03586   0.03652

  Beta  occ. eigenvalues --  -89.06011 -19.15057 -19.14544 -19.12191 -19.12044
  Beta  occ. eigenvalues --  -10.29681 -10.29566 -10.24584 -10.24068 -10.22808
  Beta  occ. eigenvalues --  -10.22667 -10.22120 -10.20525 -10.20082 -10.20035
  Beta  occ. eigenvalues --  -10.19839 -10.19659 -10.18988 -10.18976 -10.17847
  Beta  occ. eigenvalues --   -8.12357  -6.08598  -6.08555  -6.08481  -1.11774
  Beta  occ. eigenvalues --   -1.08424  -1.08048  -1.01286  -0.88683  -0.88364
  Beta  occ. eigenvalues --   -0.84319  -0.79139  -0.77420  -0.76771  -0.75278
  Beta  occ. eigenvalues --   -0.72228  -0.67960  -0.67179  -0.63340  -0.62660
  Beta  occ. eigenvalues --   -0.59588  -0.58918  -0.55864  -0.54955  -0.51448
  Beta  occ. eigenvalues --   -0.49192  -0.48656  -0.48540  -0.47937  -0.47028
  Beta  occ. eigenvalues --   -0.46593  -0.45396  -0.45171  -0.44811  -0.44656
  Beta  occ. eigenvalues --   -0.43832  -0.43643  -0.42530  -0.41700  -0.40989
  Beta  occ. eigenvalues --   -0.40721  -0.40143  -0.39514  -0.39100  -0.38874
  Beta  occ. eigenvalues --   -0.37249  -0.34545  -0.33581  -0.31897  -0.31243
  Beta  occ. eigenvalues --   -0.30984  -0.30245  -0.29329  -0.28143  -0.27999
  Beta  occ. eigenvalues --   -0.27373
  Beta virt. eigenvalues --   -0.14197  -0.05960  -0.04112  -0.03217  -0.01920
  Beta virt. eigenvalues --   -0.01475  -0.01003   0.00082   0.00974   0.01031
  Beta virt. eigenvalues --    0.01924   0.02046   0.02426   0.03586   0.03652

 Mulliken charges and spin densities:
               1          2
     1  C   -0.597867   0.000000
     2  C    0.217262  -0.000000
     3  C    0.543991   0.000000
     4  C   -1.205218   0.000000
     5  C    0.831872  -0.000000
     6  C   -0.093821  -0.000000
     7  O   -0.139106   0.000000
     8  O   -0.170719   0.000000
     9  S    0.440582  -0.000000
    10  C    0.382039  -0.000000
    11  C   -0.362608   0.000000
    12  C    0.162039   0.000000
    13  C   -0.486116   0.000000
    14  C   -0.351056   0.000000
    15  C   -0.280741  -0.000000
    16  O   -0.045484  -0.000000
    17  O   -0.066709   0.000000
    18  H    0.266992  -0.000000
    19  H    0.224092   0.000000
    20  H    0.191818   0.000000
    21  H    0.188371  -0.000000
    22  C   -0.421229   0.000000
    23  C   -0.525810   0.000000
    24  H    0.167906   0.000000
    25  H    0.117480   0.000000
    26  H    0.188467  -0.000000
    27  H    0.191388  -0.000000
    28  H    0.197638  -0.000000
    29  H    0.189077  -0.000000
    30  H    0.118552  -0.000000
    31  C   -0.492893   0.000000
    32  H    0.192493   0.000000
    33  H    0.213853  -0.000000
    34  H    0.213463   0.000000
 Sum of Mulliken charges =  -0.00000  -0.00000

 Dipole moment (field-independent basis, Debye):
    X=             -1.7202    Y=              1.1064    Z=              5.0641  Tot=              5.4615
 Quadrupole moment (field-independent basis, Debye-Ang):
   XX=           -122.2464   YY=           -123.5414   ZZ=           -133.8684
   XY=              2.9886   XZ=             20.2532   YZ=              8.4770

  Exact polarizability: 210.237  39.711 250.336   3.652  17.768 164.142
 Approx polarizability: 281.071  51.978 470.769  20.728   8.261 263.314

                      1                      2                      3
                      A                      A                      A
 Frequencies --     15.2709                29.3905                38.4124
 Red. masses --      4.5664                 4.2810                 1.3546
 Frc consts  --      0.0006                 0.0022                 0.0012
 IR Inten    --      0.4912                 0.6513                 0.0261

                      4                      5                      6
                      A                      A                      A
 Frequencies --     43.4800                57.9126                66.0157
 Red. masses --      3.8792                 3.3634                 1.1625
 Frc consts  --      0.0043                 0.0066                 0.0030
 IR Inten    --      0.7334                 4.3480                 1.1901

                      7                      8                      9
                      A                      A                      A
 Frequencies --     76.7271               104.7675               116.1865
 Red. masses --      3.3710                 2.5339                 1.1681
 Frc consts  --      0.0117                 0.0164                 0.0093
 IR Inten    --      1.4924                 0.0315                 0.5848

                     10                     11                     12
                      A                      A                      A
 Frequencies --    156.4185               177.3320               182.4382
 Red. masses --      6.3461                 5.8645                 6.5876
 Frc consts  --      0.0915                 0.1087                 0.1292
 IR Inten    --      0.6265                 5.7314                 0.3811

                     13                     14                     15
                      A                      A                      A
 Frequencies --    213.7775               232.5196               259.3855
 Red. masses --      5.7583                 5.3048                 9.8176
 Frc consts  --      0.1550                 0.1690                 0.3892
 IR Inten    --      0.2596                 0.9902                 0.0552

                     16                     17                     18
                      A                      A                      A
 Frequencies --    301.4339               321.0417               336.7742
 Red. masses --      5.8742                 3.7563                 5.0919
 Frc consts  --      0.3145                 0.2281                 0.3403
 IR Inten    --      0.9295                 2.4801                 1.6431

                     19                     20                     21
                      A                      A                      A
 Frequencies --    358.5095               378.1512               397.6759
 Red. masses --      2.7957                 4.4007                 4.5311
 Frc consts  --      0.2117                 0.3708                 0.4222
 IR Inten    --      1.1928                 3.6710                 1.5332

                     22                     23                     24
                      A                      A                      A
 Frequencies --    411.4347               417.9048               423.3516
 Red. masses --      2.9260                 5.7528                 6.6242
 Frc consts  --      0.2918                 0.5920                 0.6995
 IR Inten    --      0.0407                 0.5250                15.1928

                     25                     26                     27
                      A                      A                      A
 Frequencies --    442.0738               458.8290               497.5189
 Red. masses --      6.6449                 5.4127                 7.1269
 Frc consts  --      0.7651                 0.6714                 1.0394
 IR Inten    --      6.9133                16.5648                11.0053

                     28                     29                     30
                      A                      A                      A
 Frequencies --    512.2359               567.1742               572.0455
 Red. masses --      6.6653                 6.0235                 5.7015
 Frc consts  --      1.0304                 1.1416                 1.0993
 IR Inten    --     26.5665                18.8792                19.9295

                     31                     32                     33
                      A                      A                      A
 Frequencies --    601.1476               627.0840               691.4357
 Red. masses --      7.8182                 6.4405                 3.6611
 Frc consts  --      1.6646                 1.4922                 1.0313
 IR Inten    --    172.8647                 0.0527                 1.8001

                     34                     35                     36
                      A                      A                      A
 Frequencies --    702.1511               712.0831               725.5496
 Red. masses --      1.9795                 5.8679                 5.7448
 Frc consts  --      0.5750                 1.7531                 1.7818
 IR Inten    --     44.6879                 9.3231                47.4643

                     37                     38                     39
                      A                      A                      A
 Frequencies --    759.6358               774.1845               792.3266
 Red. masses --      2.2228                 3.2225                 6.6911
 Frc consts  --      0.7557                 1.1380                 2.4749
 IR Inten    --     30.5980                23.4066                 3.5320

                     40                     41                     42
                      A                      A                      A
 Frequencies --    852.6961               859.5016               927.4262
 Red. masses --      1.2453                 2.7486                 2.9175
 Frc consts  --      0.5335                 1.1963                 1.4785
 IR Inten    --      0.2103                34.6170                10.7582

                     43                     44                     45
                      A                      A                      A
 Frequencies --    942.3336               991.3448              1011.1206
 Red. masses --      1.3585                 1.3852                 1.3182
 Frc consts  --      0.7107                 0.8021                 0.7940
 IR Inten    --      0.3683                 0.2607                 0.0994

                     46                     47                     48
                      A                      A                      A
 Frequencies --   1014.6296              1016.3084              1024.5270
 Red. masses --      4.9458                 2.6194                 1.4607
 Frc consts  --      2.9999                 1.5940                 0.9033
 IR Inten    --      2.9573                10.2524                 0.5513

                     49                     50                     51
                      A                      A                      A
 Frequencies --   1039.7691              1043.1200              1060.7600
 Red. masses --      3.5809                 1.5903                 1.5818
 Frc consts  --      2.2810                 1.0195                 1.0487
 IR Inten    --     13.0790                 0.4410                 0.4003

                     52                     53                     54
                      A                      A                      A
 Frequencies --   1064.6600              1069.4312              1100.5840
 Red. masses --      2.2408                 2.3501                 1.5685
 Frc consts  --      1.4965                 1.5836                 1.1194
 IR Inten    --     41.1424                35.7281                 7.4927

                     55                     56                     57
                      A                      A                      A
 Frequencies --   1109.9581              1113.3952              1124.9527
 Red. masses --      2.8535                 5.1100                 2.6264
 Frc consts  --      2.0713                 3.7322                 1.9583
 IR Inten    --     29.1409               116.7065                22.8300

                     58                     59                     60
                      A                      A                      A
 Frequencies --   1184.6179              1199.5105              1221.6427
 Red. masses --      1.1207                 1.1528                 4.7412
 Frc consts  --      0.9266                 0.9773                 4.1690
 IR Inten    --      0.2406                 4.6492                77.1995

                     61                     62                     63
                      A                      A                      A
 Frequencies --   1267.1981              1276.8531              1332.6165
 Red. masses --     10.4412                15.5281                 3.8918
 Frc consts  --      9.8784                14.9159                 4.0721
 IR Inten    --    198.9910               147.3838                 3.7309

                     64                     65                     66
                      A                      A                      A
 Frequencies --   1333.1134              1345.8313              1405.9974
 Red. masses --      2.6170                 2.0722                 1.1706
 Frc consts  --      2.7402                 2.2114                 1.3634
 IR Inten    --      1.1694                 2.8076                19.5546

                     67                     68                     69
                      A                      A                      A
 Frequencies --   1413.3388              1421.5333              1469.9354
 Red. masses --      1.3762                 1.1992                 1.0450
 Frc consts  --      1.6196                 1.4278                 1.3304
 IR Inten    --     26.1357                 5.1628                 1.1733

                     70                     71                     72
                      A                      A                      A
 Frequencies --   1471.0811              1472.0531              1476.5761
 Red. masses --      1.0985                 1.0498                 2.1360
 Frc consts  --      1.4006                 1.3403                 2.7438
 IR Inten    --     26.9407                11.6721                13.4594

                     73                     74                     75
                      A                      A                      A
 Frequencies --   1477.5704              1485.4214              1488.0172
 Red. masses --      1.0452                 1.0489                 1.0981
 Frc consts  --      1.3445                 1.3636                 1.4325
 IR Inten    --     12.4214                11.0032                 5.2545

                     76                     77                     78
                      A                      A                      A
 Frequencies --   1506.8147              1621.9010              1626.1098
 Red. masses --      2.0293                 5.3537                 5.8387
 Frc consts  --      2.7147                 8.2976                 9.0964
 IR Inten    --      3.4842                 1.5576                 0.8628

                     79                     80                     81
                      A                      A                      A
 Frequencies --   1632.8576              1693.1538              1709.3439
 Red. masses --      9.2519                 7.6007                12.6868
 Frc consts  --     14.5337                12.8379                21.8404
 IR Inten    --     58.3687                17.9562                89.4641

                     82                     83                     84
                      A                      A                      A
 Frequencies --   1714.0752              3042.8608              3045.2032
 Red. masses --     12.5490                 1.0405                 1.0421
 Frc consts  --     21.7229                 5.6761                 5.6935
 IR Inten    --    333.9503                 3.8251                 8.3068

                     85                     86                     87
                      A                      A                      A
 Frequencies --   3059.0126              3089.2846              3090.5020
 Red. masses --      1.0384                 1.0977                 1.0961
 Frc consts  --      5.7250                 6.1724                 6.1679
 IR Inten    --      0.2897                 5.3494                 5.4458

                     88                     89                     90
                      A                      A                      A
 Frequencies --   3114.5058              3143.5330              3155.5535
 Red. masses --      1.0953                 1.1009                 1.1031
 Frc consts  --      6.2601                 6.4098                 6.4718
 IR Inten    --      2.5045                 1.7381                 7.1973

                     91                     92                     93
                      A                      A                      A
 Frequencies --   3159.5876              3168.4304              3180.6315
 Red. masses --      1.0957                 1.0863                 1.0899
 Frc consts  --      6.4445                 6.4250                 6.4960
 IR Inten    --     24.8958                 0.5012                 9.8485

                     94                     95                     96
                      A                      A                      A
 Frequencies --   3189.7994              3201.0231              3218.8653
 Red. masses --      1.0945                 1.0947                 1.0934
 Frc consts  --      6.5616                 6.6086                 6.6748
 IR Inten    --     12.4869                 4.7472                 3.2810

 - Thermochemistry -
 -------------------
 Temperature   298.150 Kelvin.  Pressure   1.00000 Atm.
 Atom     1 has atomic number  6 and mass  12.00000

 Molecular mass:   290.06128 amu.
 Principal axes and moments of inertia in atomic units:
                           1         2         3
     Eigenvalues --  3416.578867808.504129316.35330
           X            0.84789  -0.42762   0.31339
           Y            0.53013   0.69096  -0.49147
           Z           -0.00638   0.58285   0.81255
 This molecule is an asymmetric top.
 Rotational symmetry number  1.
 Warning -- assumption of classical behavior for rotation
           may cause significant error
 Rotational temperatures (Kelvin)      0.02535     0.01109     0.00930
 Rotational constants (GHZ):           0.52823     0.23113     0.19372
 Zero-point vibrational energy     676035.2 (Joules/Mol)
                                  161.57629 (Kcal/Mol)
 Warning -- explicit consideration of  31 degrees of freedom as
           vibrations may cause significant error
 Vibrational temperatures:     21.97    42.29    55.27    62.56    83.32
          (Kelvin)             94.98   110.39   150.74   167.17   225.05
                              255.14   262.49   307.58   334.54   373.20
                              433.70   461.91   484.54   515.82   544.08
                              572.17   591.96   601.27   609.11   636.05
                              660.15   715.82   736.99   816.04   823.05
                              864.92   902.23   994.82  1010.24  1024.53
                             1043.90  1092.95  1113.88  1139.98  1226.84
                             1236.63  1334.36  1355.81  1426.32  1454.78
                             1459.83  1462.24  1474.07  1496.00  1500.82
                             1526.20  1531.81  1538.67  1583.49  1596.98
                             1601.93  1618.56  1704.40  1725.83  1757.67
                             1823.22  1837.11  1917.34  1918.05  1936.35
                             2022.92  2033.48  2045.27  2114.91  2116.56
                             2117.96  2124.46  2125.89  2137.19  2140.92
                             2167.97  2333.55  2339.61  2349.32  2436.07
                             2459.36  2466.17  4378.00  4381.37  4401.24
                             4444.79  4446.54  4481.08  4522.84  4540.14
                             4545.94  4558.66  4576.22  4589.41  4605.56
                             4631.23

 Zero-point correction=                           0.257488 (Hartree/Particle)
 Thermal correction to Energy=                    0.277201
 Thermal correction to Enthalpy=                  0.278145
 Thermal correction to Gibbs Free Energy=         0.206490
 Sum of electronic and zero-point Energies=          -1279.027940
 Sum of electronic and thermal Energies=             -1279.008227
 Sum of electronic and thermal Enthalpies=           -1279.007283
 Sum of electronic and thermal Free Energies=        -1279.078937

                     E (Thermal)             CV                S
                      KCal/Mol        Cal/Mol-Kelvin    Cal/Mol-Kelvin
 Total                  173.946             72.220            150.810
 Electronic               0.000              0.000              0.000
 Translational            0.889              2.981             42.892
 Rotational               0.889              2.981             33.874
 Vibrational            172.169             66.258             74.043
 Vibration     1          0.593              1.986              7.170
 Vibration     2          0.593              1.984              5.870
 Vibration     3          0.594              1.982              5.339
 Vibration     4          0.595              1.980              5.094
 Vibration     5          0.596              1.974              4.527
 Vibration     6          0.597              1.970              4.269
 Vibration     7          0.599              1.965              3.973
 Vibration     8          0.605              1.945              3.364
 Vibration     9          0.608              1.936              3.163
 Vibration    10          0.620              1.895              2.593
 Vibration    11          0.628              1.870              2.356
 Vibration    12          0.630              1.864              2.303
 Vibration    13          0.644              1.820              2.011
 Vibration    14          0.653              1.791              1.859
 Vibration    15          0.668              1.747              1.666
 Vibration    16          0.693              1.671              1.409
 Vibration    17          0.707              1.633              1.305
 Vibration    18          0.717              1.602              1.227
 Vibration    19          0.733              1.558              1.129
 Vibration    20          0.748              1.517              1.047
 Vibration    21          0.764              1.475              0.971
 Vibration    22          0.775              1.445              0.922
 Vibration    23          0.781              1.431              0.899
 Vibration    24          0.786              1.419              0.881
 Vibration    25          0.802              1.378              0.820
 Vibration    26          0.817              1.341              0.770
 Vibration    27          0.853              1.256              0.664
 Vibration    28          0.867              1.223              0.628
 Vibration    29          0.923              1.102              0.510
 Vibration    30          0.928              1.092              0.500
 Vibration    31          0.959              1.029              0.448

 Optimization completed.
    -- Stationary point found.
 Normal termination of Gaussian 16 at Wed Jan 10 07:02:41 2024.
