 Q-Chem 5.4, Q-Chem, Inc., Pleasanton, CA (2021)
 Q-Chem 5.4.0 for Intel X86 EM64T Linux

User input:
--------------------------------------------------------------
$molecule
-2 1
C                  1.3523360000     -0.5004070000      1.8587340000
C                  0.9364300000     -1.5429460000      0.9557400000
C                 -0.2213040000     -1.4959390000      0.2053600000
C                 -1.1604870000     -0.3951170000      0.2279290000
C                 -0.7722110000      0.6502060000      1.1072450000
C                  0.4264050000      0.6063310000      1.8660730000
O                  2.4145400000     -0.5962700000      2.5752120000
O                 -2.2305330000     -0.3899890000     -0.4985020000
S                  0.7718960000      1.9820260000      2.9237250000
C                  0.7620760000      1.3362740000      4.6225500000
C                 -0.3614850000      1.5636530000      5.4235330000
C                  1.8572040000      0.6139850000      5.1177800000
C                  1.8114580000      0.1312460000      6.4248330000
C                 -0.3906510000      1.0812670000      6.7298900000
C                  0.6991080000      0.3638270000      7.2394800000
O                  2.1167660000      2.5669060000      2.7137460000
O                 -0.3708930000      2.9357540000      2.8816200000
H                  1.5948460000     -2.4095910000      0.9032920000
H                 -0.4726710000     -2.3284030000     -0.4532200000
H                 -1.4062400000      1.5257520000      1.1792340000
H                 -1.1899340000      2.1239190000      5.0068500000
H                  2.6806140000      0.4039780000      4.4466510000
H                  2.6529370000     -0.4389070000      6.8096870000
H                 -1.2624300000      1.2648070000      7.3525240000
H                  0.6761460000     -0.0158230000      8.2576530000
$end
$rem
MAX_SCF_CYCLES=200
BASIS  =  6-311++G(d,p)
GUI  =  2
JOB_TYPE  =  SP
METHOD  =  B3LYP
SOLVENT_METHOD = PCM
$end
$pcm
theory = CPCM
$end
$solvent
dielectric 37.219
opticaldielectric 1.43
$end

--------------------------------------------------------------

             Standard Nuclear Orientation (Angstroms)
    I     Atom           X                Y                Z
 ----------------------------------------------------------------
    1      C       1.3523360000    -0.5004070000     1.8587340000
    2      C       0.9364300000    -1.5429460000     0.9557400000
    3      C      -0.2213040000    -1.4959390000     0.2053600000
    4      C      -1.1604870000    -0.3951170000     0.2279290000
    5      C      -0.7722110000     0.6502060000     1.1072450000
    6      C       0.4264050000     0.6063310000     1.8660730000
    7      O       2.4145400000    -0.5962700000     2.5752120000
    8      O      -2.2305330000    -0.3899890000    -0.4985020000
    9      S       0.7718960000     1.9820260000     2.9237250000
   10      C       0.7620760000     1.3362740000     4.6225500000
   11      C      -0.3614850000     1.5636530000     5.4235330000
   12      C       1.8572040000     0.6139850000     5.1177800000
   13      C       1.8114580000     0.1312460000     6.4248330000
   14      C      -0.3906510000     1.0812670000     6.7298900000
   15      C       0.6991080000     0.3638270000     7.2394800000
   16      O       2.1167660000     2.5669060000     2.7137460000
   17      O      -0.3708930000     2.9357540000     2.8816200000
   18      H       1.5948460000    -2.4095910000     0.9032920000
   19      H      -0.4726710000    -2.3284030000    -0.4532200000
   20      H      -1.4062400000     1.5257520000     1.1792340000
   21      H      -1.1899340000     2.1239190000     5.0068500000
   22      H       2.6806140000     0.4039780000     4.4466510000
   23      H       2.6529370000    -0.4389070000     6.8096870000
   24      H      -1.2624300000     1.2648070000     7.3525240000
   25      H       0.6761460000    -0.0158230000     8.2576530000
 ----------------------------------------------------------------

    9   -1161.6111267098      5.86e-06  Convergence criterion met
 Total energy in the final basis set =    -1161.6111267098

                    Orbital Energies (a.u.)
 --------------------------------------------------------------

 Alpha MOs
 -- Occupied --
-89.0353 -19.1044 -19.1021 -19.0356 -19.0241 -10.1997 -10.1990 -10.1828
-10.1824 -10.1797 -10.1783 -10.1771 -10.1765 -10.1690 -10.1422 -10.1400
-10.1385  -8.0990  -6.0622  -6.0608  -6.0595  -1.0913  -0.9865  -0.9553
 -0.9381  -0.8633  -0.8025  -0.7681  -0.7515  -0.7345  -0.6796  -0.6489
 -0.6108  -0.6016  -0.5666  -0.5499  -0.5207  -0.4759  -0.4713  -0.4642
 -0.4498  -0.4457  -0.4377  -0.4313  -0.4239  -0.4032  -0.3811  -0.3777
 -0.3704  -0.3664  -0.3531  -0.3452  -0.3347  -0.3308  -0.3249  -0.3126
 -0.2967  -0.2876  -0.2664  -0.2607  -0.2425  -0.2343  -0.2130  -0.2053
 -0.1361

          Ground-State Mulliken Net Atomic Charges

     Atom                 Charge (a.u.)
  ----------------------------------------
      1 C                    -0.610760
      2 C                     0.071890
      3 C                    -0.020851
      4 C                    -0.494919
      5 C                    -0.224731
      6 C                     0.355184
      7 O                    -0.601800
      8 O                    -0.736366
      9 S                     0.245604
     10 C                     0.196536
     11 C                     0.239830
     12 C                    -0.334466
     13 C                    -0.436048
     14 C                    -0.457935
     15 C                    -0.341120
     16 O                    -0.248298
     17 O                    -0.330002
     18 H                     0.175723
     19 H                     0.172037
     20 H                     0.213617
     21 H                     0.251243
     22 H                     0.277329
     23 H                     0.220543
     24 H                     0.219054
     25 H                     0.198707
  ----------------------------------------
  Sum of atomic charges =    -2.000000

                    Cartesian Multipole Moments
 -----------------------------------------------------------------
    Charge (ESU x 10^10)
                -9.6064
    Dipole Moment (Debye)
         X      -1.5031      Y      -5.3513      Z     -10.7927
       Tot      12.1400
    Quadrupole Moments (Debye-Ang)
        XX    -157.7357     XY      -9.6830     YY    -142.6713
        XZ     -30.2019     YZ     -20.0113     ZZ    -132.1866

 Total job time:  44.61s(wall), 310.53s(cpu)
        *  Thank you very much for using Q-Chem.  Have a nice day.  *
