 Q-Chem 5.4, Q-Chem, Inc., Pleasanton, CA (2021)
 Q-Chem 5.4.0 for Intel X86 EM64T Linux

User input:
--------------------------------------------------------------
$molecule
0 1
C                 -0.1679170000      3.8544210000     -0.0524950000
C                 -1.4077170000      3.2394400000     -0.1969000000
C                 -1.4803580000      1.8828700000     -0.5186250000
C                  0.9997820000      3.1087690000     -0.2311640000
C                  0.9299720000      1.7438080000     -0.5546550000
C                 -0.3166320000      1.1368920000     -0.6965800000
C                  2.3209710000      3.7453470000     -0.0814650000
C                  3.5358790000      2.9058590000     -0.2891490000
C                  3.4941460000      1.5849190000     -0.5919410000
C                  2.1785520000      0.9298490000     -0.7486680000
O                  2.4853680000      4.9263610000      0.2035880000
O                  2.0976860000     -0.2581240000     -1.0286130000
H                 -0.0858780000      4.9051940000      0.1971460000
H                 -2.3161830000      3.8143560000     -0.0595720000
H                 -2.4472760000      1.4055740000     -0.6308100000
H                 -0.3550330000      0.0838070000     -0.9460460000
O                  4.6912230000      3.5745290000     -0.1415120000
C                  4.7358450000      0.7663280000     -0.8075090000
C                  5.1660490000      0.7118270000     -2.2893460000
C                  6.4246210000     -0.1349950000     -2.5046220000
C                  6.8695620000     -0.2000610000     -3.9698430000
C                  8.1277030000     -1.0472820000     -4.1924000000
C                  8.5651400000     -1.1074920000     -5.6588340000
H                  4.4453760000      4.4912050000      0.0868390000
H                  4.5449290000     -0.2510940000     -0.4572100000
H                  5.5495940000      1.1857440000     -0.2104210000
H                  5.3432530000      1.7315760000     -2.6495230000
H                  4.3428530000      0.3025950000     -2.8844360000
H                  6.2422650000     -1.1522430000     -2.1355200000
H                  7.2428010000      0.2699630000     -1.8951040000
H                  7.0503890000      0.8177230000     -4.3396110000
H                  6.0506620000     -0.6037510000     -4.5792890000
H                  7.9470750000     -2.0641770000     -3.8232600000
H                  8.9461720000     -0.6441560000     -3.5835390000
H                  7.7803500000     -1.5390030000     -6.2882500000
H                  9.4635770000     -1.7184340000     -5.7835310000
H                  8.7867960000     -0.1081960000     -6.0469320000
$end
$rem
MAX_SCF_CYCLES=200
BASIS  =  6-311++G(d,p)
GUI  =  2
JOB_TYPE  =  SP
THRESH = 14
SCF_CONVERGENCE = 6
METHOD  =  B3LYP
SOLVENT_METHOD = COSMO
$end
$solvent
dielectric 37.219
opticaldielectric 1.43
$end

--------------------------------------------------------------

             Standard Nuclear Orientation (Angstroms)
    I     Atom           X                Y                Z
 ----------------------------------------------------------------
    1      C       4.3431376774    -0.3031078498    -0.7225044859
    2      C       5.0491044979     0.8935005119    -0.7993013062
    3      C       4.4389058277     2.0893578838    -0.4163540721
    4      C       3.0243625571    -0.3005649363    -0.2617809388
    5      C       2.4078167832     0.9008374841     0.1244080405
    6      C       3.1235426238     2.0940814985     0.0443049024
    7      C       2.2629029332    -1.5598075302    -0.1742078537
    8      C       0.8565135284    -1.5007276753     0.3181869143
    9      C       0.2432513969    -0.3553723980     0.7059728976
   10      C       0.9898993143     0.9174435563     0.6227619348
   11      O       2.7139617669    -2.6573913900    -0.4823170125
   12      O       0.4703468479     1.9734657854     0.9560345679
   13      H       4.7950045407    -1.2435228311    -1.0133840567
   14      H       6.0723518537     0.8960957473    -1.1565910673
   15      H       4.9905864604     3.0206443606    -0.4770281384
   16      H       2.6353398528     3.0125543159     0.3455716899
   17      O       0.2416697818    -2.6942305768     0.3535988098
   18      C      -1.1801452471    -0.3245358720     1.1869804828
   19      C      -2.1884367544    -0.0413769375     0.0524955824
   20      C      -3.6364874508     0.0021325616     0.5512047553
   21      C      -4.6537634591     0.2801799907    -0.5609633106
   22      C      -6.1047491687     0.3265637027    -0.0682942140
   23      C      -7.1145400624     0.6053006866    -1.1854482295
   24      H       0.8986793194    -3.3457587145     0.0425853552
   25      H      -1.2725036740     0.4570395716     1.9452123613
   26      H      -1.4214360006    -1.2829584087     1.6536884314
   27      H      -2.0882564056    -0.8141564783    -0.7180837003
   28      H      -1.9346142060     0.9136243031    -0.4195227824
   29      H      -3.7276607368     0.7729091472     1.3270103866
   30      H      -3.8817003251    -0.9514456091     1.0364686062
   31      H      -4.5614225465    -0.4899699008    -1.3379146276
   32      H      -4.4074374595     1.2331411670    -1.0469424781
   33      H      -6.1971739315     1.0961162446     0.7077294993
   34      H      -6.3511967025    -0.6255383528     0.4173796293
   35      H      -6.9154415187     1.5677476022    -1.6674412717
   36      H      -8.1383003888     0.6320815452    -0.8017998333
   37      H      -7.0705352889    -0.1667823195    -1.9602355211
 ----------------------------------------------------------------

   11    -846.4711034211      6.45e-07  Convergence criterion met
 Total energy in the final basis set =     -846.4711034211
    7    -846.4851448369      2.93e-07  Convergence criterion met
 Total energy in the final basis set =     -846.4851448369

                    Orbital Energies (a.u.)
 --------------------------------------------------------------

 Alpha MOs
 -- Occupied --
-19.1781 -19.1501 -19.1303 -10.2941 -10.2817 -10.2672 -10.2104 -10.2091
-10.2035 -10.2002 -10.1981 -10.1965 -10.1963 -10.1751 -10.1661 -10.1599
-10.1593 -10.1579 -10.1524  -1.1085  -1.0677  -1.0641  -0.8922  -0.8437
 -0.8069  -0.7873  -0.7795  -0.7594  -0.7195  -0.6910  -0.6608  -0.6486
 -0.6186  -0.6043  -0.5852  -0.5747  -0.5729  -0.5425  -0.5186  -0.4976
 -0.4800  -0.4753  -0.4713  -0.4688  -0.4544  -0.4518  -0.4379  -0.4363
 -0.4308  -0.4225  -0.4108  -0.4064  -0.3976  -0.3916  -0.3826  -0.3785
 -0.3769  -0.3692  -0.3546  -0.3465  -0.3292  -0.3264  -0.3195  -0.3194
 -0.3037  -0.2897  -0.2801  -0.2798  -0.2564

          Ground-State Mulliken Net Atomic Charges

     Atom                 Charge (a.u.)
  ----------------------------------------
      1 C                     0.199919
      2 C                    -0.399787
      3 C                    -0.419464
      4 C                     0.456553
      5 C                    -0.096049
      6 C                     0.183192
      7 C                    -0.760455
      8 C                    -0.437257
      9 C                     1.856787
     10 C                    -0.778737
     11 O                    -0.331089
     12 O                    -0.296963
     13 H                     0.205681
     14 H                     0.230021
     15 H                     0.225887
     16 H                     0.204394
     17 O                    -0.237739
     18 C                    -0.365538
     19 C                    -0.538600
     20 C                    -0.113817
     21 C                    -0.226765
     22 C                    -0.216116
     23 C                    -0.698529
     24 H                     0.324499
     25 H                     0.221587
     26 H                     0.234822
     27 H                     0.176079
     28 H                     0.177862
     29 H                     0.123656
     30 H                     0.122413
     31 H                     0.127908
     32 H                     0.127692
     33 H                     0.138249
     34 H                     0.138055
     35 H                     0.146202
     36 H                     0.149460
     37 H                     0.145986
  ----------------------------------------
  Sum of atomic charges =     0.000000

                    Cartesian Multipole Moments
 -----------------------------------------------------------------
    Charge (ESU x 10^10)
                 0.0000
    Dipole Moment (Debye)
         X       2.8851      Y       0.2023      Z      -1.1258
       Tot       3.1035
    Quadrupole Moments (Debye-Ang)
        XX     -93.6270     XY      10.9170     YY    -118.1073
        XZ      -3.9912     YZ      -3.7619     ZZ    -116.7384

 Total job time:  180.33s(wall), 1417.12s(cpu)
        *  Thank you very much for using Q-Chem.  Have a nice day.  *
