 Gaussian 16, Revision A.03,
 Gaussian 16:  ES64L-G16RevA.03 25-Dec-2016

 ----------------------------------------------------------------------
 #P UB3LYP/6-311++G(d,p) nosym opt freq SCRF=(PCM,Solvent=n,n-DiMethylF
 ormamide)
 ----------------------------------------------------------------------

 -------
 Radical
 -------
 Symbolic Z-matrix:
 Charge = -1 Multiplicity = 2

 SCF Done:  E(UB3LYP) =  -2220.20248455     A.U. after   18 cycles
 SCF Done:  E(UB3LYP) =  -2220.20281690     A.U. after   13 cycles
 SCF Done:  E(UB3LYP) =  -2220.20286499     A.U. after   13 cycles
 SCF Done:  E(UB3LYP) =  -2220.20285812     A.U. after   12 cycles
 SCF Done:  E(UB3LYP) =  -2220.20286612     A.U. after   12 cycles
 SCF Done:  E(UB3LYP) =  -2220.20286867     A.U. after   12 cycles
 Optimization completed.
    -- Stationary point found.
 Normal termination of Gaussian 16 at Sun Feb 11 15:18:00 2024.

 ----------------------------------------------------------------------
 #P Geom=AllCheck Guess=TCheck SCRF=Check GenChk UB3LYP/6-311++G(d,p) F
 req
 ----------------------------------------------------------------------

 Structure from the checkpoint file:  "317-rad.chk"
 -------
 Radical
 -------
 Charge = -1 Multiplicity = 2

                          Input orientation:
 ---------------------------------------------------------------------
 Center     Atomic      Atomic             Coordinates (Angstroms)
 Number     Number       Type             X           Y           Z
 ---------------------------------------------------------------------
      1         17           0        3.078592    0.389285   -0.012414
      2          6           0        1.349948    0.136144   -0.007718
      3          6           0        0.828465   -1.139784   -0.058367
      4         17           0        1.876657   -2.540247   -0.127664
      5          6           0       -0.593433   -1.402643   -0.058251
      6          8           0       -1.069651   -2.554187   -0.109979
      7          6           0       -1.509033   -0.212133    0.008613
      8          8           0       -2.745456   -0.375403    0.019054
      9          6           0       -0.889054    1.093166    0.057707
     10          6           0        0.479003    1.268615    0.049601
     11         17           0        1.168679    2.872697    0.109034
     12         17           0       -1.974718    2.464491    0.130385
 ---------------------------------------------------------------------

 SCF Done:  E(UB3LYP) =  -2220.20286867     A.U. after    1 cycles

 Alpha  occ. eigenvalues -- -101.57010-101.57009-101.56085-101.56084 -19.10047
 Alpha  occ. eigenvalues --  -19.10045 -10.26252 -10.26210 -10.24791 -10.24765
 Alpha  occ. eigenvalues --  -10.24258 -10.24256  -9.48474  -9.48472  -9.47536
 Alpha  occ. eigenvalues --   -9.47534  -7.24950  -7.24949  -7.23997  -7.23996
 Alpha  occ. eigenvalues --   -7.23981  -7.23980  -7.23884  -7.23883  -7.23049
 Alpha  occ. eigenvalues --   -7.23047  -7.22957  -7.22956  -1.04134  -1.01240
 Alpha  occ. eigenvalues --   -0.93428  -0.89316  -0.86727  -0.85161  -0.80864
 Alpha  occ. eigenvalues --   -0.71961  -0.70396  -0.59856  -0.59573  -0.53496
 Alpha  occ. eigenvalues --   -0.50012  -0.46539  -0.45792  -0.44858  -0.43692
 Alpha  occ. eigenvalues --   -0.42133  -0.41771  -0.40666  -0.39862  -0.35679
 Alpha  occ. eigenvalues --   -0.34871  -0.34868  -0.33837  -0.33813  -0.32145
 Alpha  occ. eigenvalues --   -0.30951  -0.30063  -0.27725  -0.25215  -0.24007
 Alpha  occ. eigenvalues --   -0.18894
 Alpha virt. eigenvalues --   -0.04040  -0.01676  -0.01481   0.00634   0.00946
 Alpha virt. eigenvalues --    0.02287   0.02950   0.03922   0.04033   0.05003
 Alpha virt. eigenvalues --    0.05721   0.06400   0.07078   0.07742   0.07930

  Beta  occ. eigenvalues -- -101.56999-101.56998-101.56080-101.56079 -19.09402
  Beta  occ. eigenvalues --  -19.09400 -10.26081 -10.26041 -10.24691 -10.24666
  Beta  occ. eigenvalues --  -10.24174 -10.24171  -9.48464  -9.48462  -9.47531
  Beta  occ. eigenvalues --   -9.47530  -7.24951  -7.24951  -7.24000  -7.23998
  Beta  occ. eigenvalues --   -7.23938  -7.23937  -7.23878  -7.23877  -7.23027
  Beta  occ. eigenvalues --   -7.23026  -7.22955  -7.22954  -1.03071  -1.00061
  Beta  occ. eigenvalues --   -0.93103  -0.89181  -0.86572  -0.85066  -0.80521
  Beta  occ. eigenvalues --   -0.71685  -0.69476  -0.59467  -0.59086  -0.53280
  Beta  occ. eigenvalues --   -0.49800  -0.46229  -0.44749  -0.44437  -0.43186
  Beta  occ. eigenvalues --   -0.41655  -0.41493  -0.39022  -0.38938  -0.34801
  Beta  occ. eigenvalues --   -0.34642  -0.34360  -0.33743  -0.32131  -0.32111
  Beta  occ. eigenvalues --   -0.30855  -0.28990  -0.27146  -0.24611  -0.22756
  Beta virt. eigenvalues --   -0.12033  -0.03901   0.00282   0.00597   0.00694
  Beta virt. eigenvalues --    0.00991   0.02329   0.03094   0.03967   0.04090
  Beta virt. eigenvalues --    0.05059   0.05790   0.06478   0.07099   0.07807

 Mulliken charges and spin densities:
               1          2
     1  Cl   0.566842   0.015747
     2  C   -0.577336   0.082390
     3  C    0.323877   0.063244
     4  Cl   0.267497   0.004350
     5  C   -0.677940   0.093993
     6  O   -0.404114   0.240242
     7  C   -0.679840   0.093979
     8  O   -0.403841   0.240305
     9  C    0.324684   0.063332
    10  C   -0.573648   0.082335
    11  Cl   0.566467   0.015724
    12  Cl   0.267351   0.004360
 Sum of Mulliken charges =  -1.00000   1.00000

 Dipole moment (field-independent basis, Debye):
    X=              6.3854    Y=              4.9045    Z=              0.1521  Tot=              8.0530
 Quadrupole moment (field-independent basis, Debye-Ang):
   XX=           -124.5698   YY=           -121.5403   ZZ=            -97.1637
   XY=             -5.6176   XZ=              0.0633   YZ=             -1.0640

  Exact polarizability: 253.975  -4.312 256.008  -1.942   7.254  93.570
 Approx polarizability: 281.024   7.775 276.554  -1.557   7.460 107.259

                      1                      2                      3
                      A                      A                      A
 Frequencies --     62.4603                73.1628               101.7088
 Red. masses --     25.3550                25.6396                19.6570
 Frc consts  --      0.0583                 0.0809                 0.1198
 IR Inten    --      0.0070                 2.5132                 0.0119

                      4                      5                      6
                      A                      A                      A
 Frequencies --    177.2527               212.0354               213.8375
 Red. masses --     13.8966                27.5347                32.1608
 Frc consts  --      0.2572                 0.7294                 0.8665
 IR Inten    --      4.9106                 1.5126                 0.1867

                      7                      8                      9
                      A                      A                      A
 Frequencies --    230.8670               293.8567               300.2389
 Red. masses --     34.6785                19.0150                12.5366
 Frc consts  --      1.0890                 0.9674                 0.6658
 IR Inten    --      0.0315                 0.8035                 0.0003

                     10                     11                     12
                      A                      A                      A
 Frequencies --    308.8517               327.2069               378.5858
 Red. masses --     26.5912                25.4172                12.4914
 Frc consts  --      1.4945                 1.6033                 1.0549
 IR Inten    --      0.4211                14.9631                 5.7253

                     13                     14                     15
                      A                      A                      A
 Frequencies --    388.0318               419.2800               485.0678
 Red. masses --     16.7176                19.4564                17.2789
 Frc consts  --      1.4831                 2.0152                 2.3954
 IR Inten    --      1.9335                11.1259                 1.3414

                     16                     17                     18
                      A                      A                      A
 Frequencies --    568.8140               587.4492               669.5052
 Red. masses --     12.0552                12.2074                13.7245
 Frc consts  --      2.2981                 2.4821                 3.6246
 IR Inten    --      0.0031                11.7080               133.2648

                     19                     20                     21
                      A                      A                      A
 Frequencies --    756.7702               766.1789               784.4652
 Red. masses --     13.2449                12.1824                13.5024
 Frc consts  --      4.4692                 4.2135                 4.8956
 IR Inten    --    212.8060                 0.0461               117.0993

                     22                     23                     24
                      A                      A                      A
 Frequencies --    921.1279               974.4849              1177.7238
 Red. masses --     12.9498                12.5866                12.0868
 Frc consts  --      6.4737                 7.0422                 9.8776
 IR Inten    --      5.9960                33.2092                47.2086

                     25                     26                     27
                      A                      A                      A
 Frequencies --   1208.2821              1303.4237              1466.9801
 Red. masses --     12.2022                12.0727                12.1148
 Frc consts  --     10.4960                12.0844                15.3609
 IR Inten    --    190.3961               163.2467               133.5962

                     28                     29                     30
                      A                      A                      A
 Frequencies --   1515.4218              1539.5108              1556.1511
 Red. masses --     12.0118                13.0606                13.0528
 Frc consts  --     16.2527                18.2380                18.6233
 IR Inten    --      2.2450               316.2094              1139.3219

 - Thermochemistry -
 -------------------
 Temperature   298.150 Kelvin.  Pressure   1.00000 Atm.
 Atom     1 has atomic number 17 and mass  34.96885

 Molecular mass:   243.86524 amu.
 Principal axes and moments of inertia in atomic units:
                           1         2         3
     Eigenvalues --  2568.780433586.784796155.53882
           X           -0.60957   0.79266   0.01046
           Y            0.79167   0.60939  -0.04354
           Z            0.04089   0.01825   0.99900
 This molecule is an asymmetric top.
 Rotational symmetry number  1.
 Warning -- assumption of classical behavior for rotation
           may cause significant error
 Rotational temperatures (Kelvin)      0.03372     0.02415     0.01407
 Rotational constants (GHZ):           0.70257     0.50316     0.29319
 Zero-point vibrational energy     118243.3 (Joules/Mol)
                                   28.26082 (Kcal/Mol)
 Warning -- explicit consideration of  17 degrees of freedom as
           vibrations may cause significant error
 Vibrational temperatures:     89.87   105.26   146.34   255.03   305.07
          (Kelvin)            307.66   332.17   422.79   431.98   444.37
                              470.78   544.70   558.29   603.25   697.90
                              818.40   845.21   963.27  1088.82  1102.36
                             1128.67  1325.30  1402.07  1694.48  1738.45
                             1875.34  2110.66  2180.35  2215.01  2238.95

 Zero-point correction=                           0.045036 (Hartree/Particle)
 Thermal correction to Energy=                    0.056100
 Thermal correction to Enthalpy=                  0.057045
 Thermal correction to Gibbs Free Energy=         0.005799
 Sum of electronic and zero-point Energies=          -2220.157832
 Sum of electronic and thermal Energies=             -2220.146768
 Sum of electronic and thermal Enthalpies=           -2220.145824
 Sum of electronic and thermal Free Energies=        -2220.197070

                     E (Thermal)             CV                S
                      KCal/Mol        Cal/Mol-Kelvin    Cal/Mol-Kelvin
 Total                   35.204             38.395            107.856
 Electronic               0.000              0.000              1.377
 Translational            0.889              2.981             42.375
 Rotational               0.889              2.981             32.406
 Vibrational             33.426             32.433             31.698
 Vibration     1          0.597              1.972              4.378
 Vibration     2          0.599              1.967              4.066
 Vibration     3          0.604              1.948              3.421
 Vibration     4          0.628              1.870              2.357
 Vibration     5          0.643              1.823              2.026
 Vibration     6          0.644              1.820              2.011
 Vibration     7          0.653              1.794              1.872
 Vibration     8          0.689              1.685              1.452
 Vibration     9          0.693              1.673              1.416
 Vibration    10          0.698              1.657              1.368
 Vibration    11          0.711              1.621              1.274
 Vibration    12          0.749              1.516              1.045
 Vibration    13          0.756              1.496              1.008
 Vibration    14          0.782              1.428              0.894
 Vibration    15          0.841              1.283              0.697
 Vibration    16          0.925              1.099              0.507
 Vibration    17          0.945              1.059              0.472

 Optimization completed.
    -- Stationary point found.
 Normal termination of Gaussian 16 at Sun Feb 11 15:29:09 2024.
