 Q-Chem 5.4, Q-Chem, Inc., Pleasanton, CA (2021)
 Q-Chem 5.4.0 for Intel X86 EM64T Linux

User input:
--------------------------------------------------------------
$molecule
-2 1
C                 -1.6782070000      2.9506860000     -0.7107820000
C                 -2.8261250000      2.2644180000     -0.3800690000
C                 -2.7307070000      0.9043680000      0.0216460000
C                 -0.3814050000      2.3678040000     -0.6557090000
C                 -0.2800620000      0.9902580000     -0.1960010000
C                 -1.4894290000      0.2951930000      0.1213840000
C                  0.7597860000      3.1926450000     -1.0555150000
C                  2.0988210000      2.5877010000     -0.9092420000
C                  2.1371950000      1.2290610000     -0.4505150000
C                  1.0416630000      0.4429840000     -0.1029720000
O                  0.5999500000      4.3850140000     -1.4933060000
O                  3.1843250000      3.2260520000     -1.1937920000
H                 -1.7316960000      3.9927050000     -1.0186710000
H                 -3.7948370000      2.7581340000     -0.4190510000
S                 -4.2937870000      0.0301480000      0.3858800000
H                 -1.4332240000     -0.7375980000      0.4423380000
H                  3.1244770000      0.7882570000     -0.3626240000
S                  1.4111200000     -1.2842060000      0.4108060000
O                  2.9126860000     -1.4119830000      0.4313800000
O                  0.8025950000     -2.2035720000     -0.6088370000
O                  0.8289830000     -1.4897450000      1.7785550000
O                 -4.9372880000      0.7576670000      1.5358390000
O                 -3.9608770000     -1.3864270000      0.7271300000
O                 -5.1371850000      0.1363770000     -0.8569520000
$end

$rem
BASIS  =  6-311++G(d,p)
GUI  =  2
JOB_TYPE  =  SP
METHOD  =  B3LYP
SCF_CONVERGENCE  = 8
SOLVENT_METHOD = sm12
$end

$smx
solvent dimethylformamide
charges CM5
$end

--------------------------------------------------------------

             Standard Nuclear Orientation (Angstroms)
    I     Atom           X                Y                Z
 ----------------------------------------------------------------
    1      C      -1.6782070000     2.9506860000    -0.7107820000
    2      C      -2.8261250000     2.2644180000    -0.3800690000
    3      C      -2.7307070000     0.9043680000     0.0216460000
    4      C      -0.3814050000     2.3678040000    -0.6557090000
    5      C      -0.2800620000     0.9902580000    -0.1960010000
    6      C      -1.4894290000     0.2951930000     0.1213840000
    7      C       0.7597860000     3.1926450000    -1.0555150000
    8      C       2.0988210000     2.5877010000    -0.9092420000
    9      C       2.1371950000     1.2290610000    -0.4505150000
   10      C       1.0416630000     0.4429840000    -0.1029720000
   11      O       0.5999500000     4.3850140000    -1.4933060000
   12      O       3.1843250000     3.2260520000    -1.1937920000
   13      H      -1.7316960000     3.9927050000    -1.0186710000
   14      H      -3.7948370000     2.7581340000    -0.4190510000
   15      S      -4.2937870000     0.0301480000     0.3858800000
   16      H      -1.4332240000    -0.7375980000     0.4423380000
   17      H       3.1244770000     0.7882570000    -0.3626240000
   18      S       1.4111200000    -1.2842060000     0.4108060000
   19      O       2.9126860000    -1.4119830000     0.4313800000
   20      O       0.8025950000    -2.2035720000    -0.6088370000
   21      O       0.8289830000    -1.4897450000     1.7785550000
   22      O      -4.9372880000     0.7576670000     1.5358390000
   23      O      -3.9608770000    -1.3864270000     0.7271300000
   24      O      -5.1371850000     0.1363770000    -0.8569520000
 ----------------------------------------------------------------

   18   -1781.9177972720      3.43e-09  Convergence criterion met
 Total energy in the final basis set =    -1782.1643223244

                    Orbital Energies (a.u.)
 --------------------------------------------------------------

 Alpha MOs
 -- Occupied --
-89.0472 -89.0395 -19.1513 -19.1472 -19.0875 -19.0866 -19.0830 -19.0791
-19.0790 -19.0788 -10.2960 -10.2892 -10.2527 -10.2393 -10.2317 -10.2252
-10.2157 -10.2138 -10.2131 -10.2101  -8.1053  -8.0978  -6.0679  -6.0677
 -6.0676  -6.0603  -6.0603  -6.0602  -1.0959  -1.0900  -1.0579  -1.0272
 -0.9601  -0.9565  -0.9551  -0.9501  -0.9053  -0.8538  -0.8004  -0.7735
 -0.7481  -0.6708  -0.6576  -0.6411  -0.5951  -0.5745  -0.5504  -0.5245
 -0.5100  -0.4894  -0.4784  -0.4666  -0.4612  -0.4585  -0.4541  -0.4425
 -0.4395  -0.4392  -0.4307  -0.4258  -0.4119  -0.4031  -0.3824  -0.3822
 -0.3478  -0.3222  -0.3212  -0.3170  -0.3162  -0.3124  -0.3024  -0.2980
 -0.2906  -0.2855  -0.2842  -0.2797  -0.2751  -0.2722  -0.2570  -0.2437
 -0.2382

          Ground-State Mulliken Net Atomic Charges

     Atom                 Charge (a.u.)
  ----------------------------------------
      1 C                     1.645362
      2 C                    -0.087895
      3 C                    -1.815482
      4 C                     1.710193
      5 C                    -0.321404
      6 C                    -0.604808
      7 C                    -0.522753
      8 C                     1.283712
      9 C                     0.192134
     10 C                    -2.181639
     11 O                    -0.139168
     12 O                    -0.218790
     13 H                     0.372404
     14 H                     0.386309
     15 S                    -0.002605
     16 H                     0.027384
     17 H                     0.289742
     18 S                     0.126335
     19 O                    -0.261378
     20 O                    -0.384621
     21 O                    -0.397551
     22 O                    -0.319606
     23 O                    -0.448865
     24 O                    -0.327010
  ----------------------------------------
  Sum of atomic charges =    -2.000000

                    Cartesian Multipole Moments
 -----------------------------------------------------------------
    Charge (ESU x 10^10)
                -9.6064
    Dipole Moment (Debye)
         X      10.8840      Y       3.9154      Z      -2.6417
       Tot      11.8647
    Quadrupole Moments (Debye-Ang)
        XX    -273.7865     XY     -10.2767     YY    -184.3314
        XZ      12.9651     YZ      13.8467     ZZ    -154.7851

 Total job time:  691.44s(wall), 4293.58s(cpu)
        *  Thank you very much for using Q-Chem.  Have a nice day.  *
