 Gaussian 16, Revision A.03,
 Gaussian 16:  ES64L-G16RevA.03 25-Dec-2016

 --------------------------------------
 #P UB3LYP/6-311++G(d,p) nosym opt freq
 --------------------------------------

 --------
 Oxidized
 --------
 Symbolic Z-matrix:
 Charge =  0 Multiplicity = 1

 SCF Done:  E(UB3LYP) =  -1010.87063228     A.U. after   18 cycles
 SCF Done:  E(UB3LYP) =  -1010.87361122     A.U. after   15 cycles
 SCF Done:  E(UB3LYP) =  -1010.87402418     A.U. after   16 cycles
 SCF Done:  E(UB3LYP) =  -1010.87510242     A.U. after   18 cycles
 SCF Done:  E(UB3LYP) =  -1010.87682950     A.U. after   17 cycles
 SCF Done:  E(UB3LYP) =  -1010.87951273     A.U. after   18 cycles
 SCF Done:  E(UB3LYP) =  -1010.88279265     A.U. after   18 cycles
 SCF Done:  E(UB3LYP) =  -1010.88478488     A.U. after   19 cycles
 SCF Done:  E(UB3LYP) =  -1010.88171233     A.U. after   18 cycles
 SCF Done:  E(UB3LYP) =  -1010.88530284     A.U. after   15 cycles
 SCF Done:  E(UB3LYP) =  -1010.88529274     A.U. after   18 cycles
 SCF Done:  E(UB3LYP) =  -1010.88550841     A.U. after   15 cycles
 SCF Done:  E(UB3LYP) =  -1010.88551278     A.U. after   12 cycles
 SCF Done:  E(UB3LYP) =  -1010.88551330     A.U. after   11 cycles
 Optimization completed.
    -- Stationary point found.
 Normal termination of Gaussian 16 at Wed Dec 20 02:27:47 2023.

 ----------------------------------------------------------------------
 #P Geom=AllCheck Guess=TCheck SCRF=Check GenChk UB3LYP/6-311++G(d,p) F
 req
 ----------------------------------------------------------------------

 Structure from the checkpoint file:  "102.chk"
 --------
 Oxidized
 --------
 Charge =  0 Multiplicity = 1

                          Input orientation:
 ---------------------------------------------------------------------
 Center     Atomic      Atomic             Coordinates (Angstroms)
 Number     Number       Type             X           Y           Z
 ---------------------------------------------------------------------
      1          6           0        2.788134    3.599330    4.167450
      2          6           0        3.812104    2.806857    3.446591
      3          6           0        3.474380    1.792926    2.642482
      4          6           0        2.049818    1.414786    2.435342
      5          6           0        1.346711    3.219595    3.960363
      6          6           0        1.023293    2.192654    3.144400
      7          8           0        3.100608    4.521028    4.898355
      8          8           0        1.756629    0.485026    1.696317
      9         16           0        0.239547    4.246329    4.878618
     10          6           0       -1.360995    3.559965    4.432026
     11          6           0       -1.929345    2.551764    5.215330
     12          6           0       -2.062416    4.081829    3.341784
     13          6           0       -3.327604    3.586240    3.031880
     14          6           0       -3.194913    2.061052    4.899485
     15          6           0       -3.893373    2.576130    3.808412
     16          1           0        4.839418    3.108003    3.619044
     17          1           0        4.207164    1.200434    2.106042
     18          1           0       -0.001439    1.889270    2.969805
     19          1           0       -1.384224    2.159010    6.065312
     20          1           0       -1.620163    4.870652    2.745079
     21          1           0       -3.870375    3.991773    2.185743
     22          1           0       -3.634335    1.278660    5.507561
     23          1           0       -4.878273    2.193697    3.566068
 ---------------------------------------------------------------------

 SCF Done:  E(UB3LYP) =  -1010.88551330     A.U. after    1 cycles

 Alpha  occ. eigenvalues --  -88.88413 -19.14777 -19.13422 -10.29646 -10.28262
 Alpha  occ. eigenvalues --  -10.24904 -10.22908 -10.21943 -10.21851 -10.20613
 Alpha  occ. eigenvalues --  -10.20390 -10.20389 -10.20114 -10.20033 -10.20014
 Alpha  occ. eigenvalues --   -7.96967  -5.93352  -5.92933  -5.92402  -1.08043
 Alpha  occ. eigenvalues --   -1.06326  -0.89413  -0.87379  -0.83016  -0.78677
 Alpha  occ. eigenvalues --   -0.77563  -0.73830  -0.70427  -0.64702  -0.63464
 Alpha  occ. eigenvalues --   -0.61621  -0.59655  -0.54412  -0.52834  -0.51359
 Alpha  occ. eigenvalues --   -0.48924  -0.48411  -0.47648  -0.46283  -0.45654
 Alpha  occ. eigenvalues --   -0.45003  -0.44815  -0.43758  -0.42019  -0.41459
 Alpha  occ. eigenvalues --   -0.40510  -0.38672  -0.37596  -0.35306  -0.34149
 Alpha  occ. eigenvalues --   -0.31558  -0.29597  -0.28363  -0.28313  -0.27438
 Alpha  occ. eigenvalues --   -0.25289
 Alpha virt. eigenvalues --   -0.13664  -0.05041  -0.04014  -0.03711  -0.01598
 Alpha virt. eigenvalues --   -0.00322  -0.00298   0.00374   0.00777   0.01920
 Alpha virt. eigenvalues --    0.02327   0.02724   0.02937   0.03394   0.04012

  Beta  occ. eigenvalues --  -88.88413 -19.14777 -19.13422 -10.29646 -10.28262
  Beta  occ. eigenvalues --  -10.24904 -10.22908 -10.21943 -10.21851 -10.20613
  Beta  occ. eigenvalues --  -10.20390 -10.20389 -10.20114 -10.20033 -10.20014
  Beta  occ. eigenvalues --   -7.96967  -5.93352  -5.92933  -5.92402  -1.08043
  Beta  occ. eigenvalues --   -1.06326  -0.89413  -0.87379  -0.83016  -0.78677
  Beta  occ. eigenvalues --   -0.77563  -0.73830  -0.70427  -0.64702  -0.63464
  Beta  occ. eigenvalues --   -0.61621  -0.59655  -0.54412  -0.52834  -0.51359
  Beta  occ. eigenvalues --   -0.48924  -0.48411  -0.47648  -0.46283  -0.45654
  Beta  occ. eigenvalues --   -0.45003  -0.44815  -0.43758  -0.42019  -0.41459
  Beta  occ. eigenvalues --   -0.40510  -0.38672  -0.37596  -0.35306  -0.34149
  Beta  occ. eigenvalues --   -0.31558  -0.29597  -0.28363  -0.28313  -0.27438
  Beta  occ. eigenvalues --   -0.25289
  Beta virt. eigenvalues --   -0.13664  -0.05041  -0.04014  -0.03711  -0.01598
  Beta virt. eigenvalues --   -0.00322  -0.00298   0.00374   0.00777   0.01920
  Beta virt. eigenvalues --    0.02327   0.02724   0.02937   0.03394   0.04012

 Mulliken charges and spin densities:
               1          2
     1  C   -0.733245   0.000000
     2  C    0.070862  -0.000000
     3  C    0.230032  -0.000000
     4  C   -0.442278   0.000000
     5  C    0.225486  -0.000000
     6  C   -0.179118   0.000000
     7  O   -0.180764  -0.000000
     8  O   -0.225642  -0.000000
     9  S    0.053886   0.000000
    10  C    1.091099   0.000000
    11  C   -0.300369  -0.000000
    12  C   -0.301064  -0.000000
    13  C   -0.341204   0.000000
    14  C   -0.341069   0.000000
    15  C   -0.262083  -0.000000
    16  H    0.220119   0.000000
    17  H    0.230127  -0.000000
    18  H    0.256137  -0.000000
    19  H    0.200106  -0.000000
    20  H    0.200094  -0.000000
    21  H    0.180380   0.000000
    22  H    0.180375   0.000000
    23  H    0.168131   0.000000
 Sum of Mulliken charges =  -0.00000  -0.00000

 Dipole moment (field-independent basis, Debye):
    X=             -1.9983    Y=             -0.2690    Z=             -0.0771  Tot=              2.0178
 Quadrupole moment (field-independent basis, Debye-Ang):
   XX=            -78.3583   YY=           -105.5703   ZZ=            -99.0775
   XY=             -8.0585   XZ=            -10.1499   YZ=            -13.8727

  Exact polarizability: 205.058   5.307 155.262  -1.806  29.081 143.127
 Approx polarizability: 270.709  31.290 312.544  20.936  84.731 273.910

                      1                      2                      3
                      A                      A                      A
 Frequencies --     32.3826                42.4918                56.4361
 Red. masses --      4.0926                 6.0272                 6.4313
 Frc consts  --      0.0025                 0.0064                 0.0121
 IR Inten    --      0.0788                 1.2061                 0.4994

                      4                      5                      6
                      A                      A                      A
 Frequencies --     80.7840               143.4463               178.0698
 Red. masses --      8.2834                 6.7538                 7.7802
 Frc consts  --      0.0319                 0.0819                 0.1454
 IR Inten    --      7.9250                 2.2423                 0.7343

                      7                      8                      9
                      A                      A                      A
 Frequencies --    218.3494               254.7385               294.2433
 Red. masses --      5.7690                 4.7881                 5.8956
 Frc consts  --      0.1621                 0.1831                 0.3007
 IR Inten    --      2.1858                 0.0314                 0.0050

                     10                     11                     12
                      A                      A                      A
 Frequencies --    366.0715               394.8599               414.6751
 Red. masses --     11.0018                 3.9492                 2.8593
 Frc consts  --      0.8687                 0.3628                 0.2897
 IR Inten    --      0.8647                 0.1771                 0.0082

                     13                     14                     15
                      A                      A                      A
 Frequencies --    418.2623               429.6473               468.5285
 Red. masses --     11.0365                 8.6512                10.1645
 Frc consts  --      1.1376                 0.9409                 1.3146
 IR Inten    --     24.9606                20.2569                 3.8002

                     16                     17                     18
                      A                      A                      A
 Frequencies --    511.0703               558.8967               593.6659
 Red. masses --      4.0469                 5.3717                 2.4593
 Frc consts  --      0.6228                 0.9886                 0.5107
 IR Inten    --      5.1378                 7.0192                 1.0314

                     19                     20                     21
                      A                      A                      A
 Frequencies --    629.5336               650.8422               706.8013
 Red. masses --      6.4551                 7.1092                 2.4069
 Frc consts  --      1.5073                 1.7743                 0.7084
 IR Inten    --      0.0268                 6.0085                19.1500

                     22                     23                     24
                      A                      A                      A
 Frequencies --    712.8034               762.1324               772.2617
 Red. masses --      4.0793                 1.8212                 6.2548
 Frc consts  --      1.2212                 0.6233                 2.1978
 IR Inten    --     17.3188                33.0638                 0.4300

                     25                     26                     27
                      A                      A                      A
 Frequencies --    790.9514               824.0547               852.6288
 Red. masses --      4.5766                 1.5902                 5.1050
 Frc consts  --      1.6869                 0.6362                 2.1866
 IR Inten    --      8.0922                11.1203                16.1635

                     28                     29                     30
                      A                      A                      A
 Frequencies --    857.7259               902.6057               940.0222
 Red. masses --      1.2480                 1.6207                 1.3634
 Frc consts  --      0.5409                 0.7780                 0.7098
 IR Inten    --      0.5961                46.3566                 1.7017

                     31                     32                     33
                      A                      A                      A
 Frequencies --    991.8904               997.2222              1006.5883
 Red. masses --      1.3783                 4.6884                 1.2409
 Frc consts  --      0.7989                 2.7470                 0.7408
 IR Inten    --      0.0007               111.7615                 0.0041

                     34                     35                     36
                      A                      A                      A
 Frequencies --   1011.5730              1016.7230              1042.9278
 Red. masses --      1.3052                 6.2061                 2.9958
 Frc consts  --      0.7869                 3.7798                 1.9199
 IR Inten    --      0.1446                 2.4871                 6.2147

                     37                     38                     39
                      A                      A                      A
 Frequencies --   1095.8999              1101.6275              1114.7217
 Red. masses --      1.5977                 2.6332                 1.4944
 Frc consts  --      1.1305                 1.8828                 1.0941
 IR Inten    --      4.9791                 3.1060                47.6416

                     40                     41                     42
                      A                      A                      A
 Frequencies --   1184.4184              1200.1121              1210.7710
 Red. masses --      1.1172                 1.1404                 1.7258
 Frc consts  --      0.9234                 0.9678                 1.4906
 IR Inten    --      0.0901                 3.2459                 3.9441

                     43                     44                     45
                      A                      A                      A
 Frequencies --   1290.4268              1313.5106              1330.9872
 Red. masses --      3.4192                 3.7190                 1.9808
 Frc consts  --      3.3546                 3.7805                 2.0675
 IR Inten    --    181.2905                 0.3323                25.4714

                     46                     47                     48
                      A                      A                      A
 Frequencies --   1343.2041              1385.0109              1469.8216
 Red. masses --      1.6130                 1.8721                 2.0758
 Frc consts  --      1.7146                 2.1159                 2.6422
 IR Inten    --      2.8482                 8.6945                 8.3505

                     49                     50                     51
                      A                      A                      A
 Frequencies --   1507.0101              1598.5217              1615.7968
 Red. masses --      2.0622                 8.0496                 5.5041
 Frc consts  --      2.7593                12.1189                 8.4667
 IR Inten    --     13.2831               200.9719                 1.0355

                     52                     53                     54
                      A                      A                      A
 Frequencies --   1622.1843              1669.9167              1704.8133
 Red. masses --      5.4318                 8.6403                 9.2957
 Frc consts  --      8.4215                14.1960                15.9179
 IR Inten    --      0.0806                13.1284               269.5489

                     55                     56                     57
                      A                      A                      A
 Frequencies --   1727.7438              3167.4605              3175.8960
 Red. masses --     11.6941                 1.0858                 1.0885
 Frc consts  --     20.5673                 6.4183                 6.4685
 IR Inten    --    247.0320                 0.1198                 3.9590

                     58                     59                     60
                      A                      A                      A
 Frequencies --   3176.7660              3184.9817              3191.3367
 Red. masses --      1.0872                 1.0921                 1.0946
 Frc consts  --      6.4644                 6.5271                 6.5683
 IR Inten    --      1.0545                 8.1779                 9.3850

                     61                     62                     63
                      A                      A                      A
 Frequencies --   3194.4269              3196.0946              3196.6995
 Red. masses --      1.0976                 1.0968                 1.0941
 Frc consts  --      6.5989                 6.6012                 6.5875
 IR Inten    --      2.7962                 8.1398                 0.5855

 - Thermochemistry -
 -------------------
 Temperature   298.150 Kelvin.  Pressure   1.00000 Atm.
 Atom     1 has atomic number  6 and mass  12.00000

 Molecular mass:   216.02450 amu.
 Principal axes and moments of inertia in atomic units:
                           1         2         3
     Eigenvalues --  1845.083015179.934836390.86392
           X            0.98728   0.14912   0.05523
           Y           -0.08108   0.77082  -0.63188
           Z           -0.13680   0.61936   0.77310
 This molecule is an asymmetric top.
 Rotational symmetry number  1.
 Warning -- assumption of classical behavior for rotation
           may cause significant error
 Rotational temperatures (Kelvin)      0.04694     0.01672     0.01355
 Rotational constants (GHZ):           0.97814     0.34841     0.28239
 Zero-point vibrational energy     436015.3 (Joules/Mol)
                                  104.21016 (Kcal/Mol)
 Warning -- explicit consideration of  18 degrees of freedom as
           vibrations may cause significant error
 Vibrational temperatures:     46.59    61.14    81.20   116.23   206.39
          (Kelvin)            256.20   314.16   366.51   423.35   526.70
                              568.12   596.63   601.79   618.17   674.11
                              735.32   804.13   854.15   905.76   936.42
                             1016.93  1025.57  1096.54  1111.11  1138.00
                             1185.63  1226.74  1234.08  1298.65  1352.48
                             1427.11  1434.78  1448.26  1455.43  1462.84
                             1500.54  1576.76  1585.00  1603.84  1704.11
                             1726.69  1742.03  1856.64  1889.85  1914.99
                             1932.57  1992.72  2114.75  2168.25  2299.92
                             2324.77  2333.96  2402.64  2452.85  2485.84
                             4557.27  4569.41  4570.66  4582.48  4591.62
                             4596.07  4598.47  4599.34

 Zero-point correction=                           0.166069 (Hartree/Particle)
 Thermal correction to Energy=                    0.178713
 Thermal correction to Enthalpy=                  0.179658
 Thermal correction to Gibbs Free Energy=         0.125043
 Sum of electronic and zero-point Energies=          -1010.719444
 Sum of electronic and thermal Energies=             -1010.706800
 Sum of electronic and thermal Enthalpies=           -1010.705856
 Sum of electronic and thermal Free Energies=        -1010.760471

                     E (Thermal)             CV                S
                      KCal/Mol        Cal/Mol-Kelvin    Cal/Mol-Kelvin
 Total                  112.144             47.908            114.947
 Electronic               0.000              0.000              0.000
 Translational            0.889              2.981             42.014
 Rotational               0.889              2.981             32.479
 Vibrational            110.367             41.947             40.453
 Vibration     1          0.594              1.983              5.678
 Vibration     2          0.595              1.980              5.139
 Vibration     3          0.596              1.975              4.578
 Vibration     4          0.600              1.962              3.872
 Vibration     5          0.616              1.910              2.757
 Vibration     6          0.629              1.869              2.349
 Vibration     7          0.646              1.813              1.973
 Vibration     8          0.665              1.755              1.698
 Vibration     9          0.689              1.684              1.449
 Vibration    10          0.739              1.542              1.096
 Vibration    11          0.762              1.481              0.982
 Vibration    12          0.778              1.438              0.910
 Vibration    13          0.781              1.431              0.898
 Vibration    14          0.791              1.406              0.860
 Vibration    15          0.826              1.320              0.742
 Vibration    16          0.866              1.225              0.631
 Vibration    17          0.914              1.120              0.526
 Vibration    18          0.951              1.045              0.461

 Optimization completed.
    -- Stationary point found.
 Normal termination of Gaussian 16 at Wed Dec 20 03:19:27 2023.
