 Q-Chem 5.4, Q-Chem, Inc., Pleasanton, CA (2021)
 Q-Chem 5.4.0 for Intel X86 EM64T Linux

User input:
--------------------------------------------------------------
$molecule
0 1
C                 -3.7706340000      1.7680950000     -0.3469620000
C                 -2.5439740000      0.9175430000     -0.1366030000
C                 -1.2799030000      1.4333290000     -0.4132780000
C                 -0.1210200000      0.6751780000     -0.2306320000
C                  1.2031980000      1.2799400000     -0.5438190000
O                  1.3009480000      2.4245920000     -0.9579570000
C                  2.4124650000      0.4291660000     -0.3312070000
C                  3.6745730000      0.9607140000     -0.6132440000
C                  4.8159480000      0.1903950000     -0.4241540000
C                  4.7066060000     -1.1201550000      0.0491090000
C                  3.4561780000     -1.6570070000      0.3321030000
C                  2.3024370000     -0.8896120000      0.1450410000
C                  0.9719500000     -1.4925840000      0.4574650000
O                  0.8788860000     -2.6378660000      0.8709310000
C                 -0.2308520000     -0.6410400000      0.2441980000
C                 -1.4965210000     -1.1622680000      0.5227380000
C                 -2.6547580000     -0.4097780000      0.3418120000
C                 -4.0024310000     -1.0089090000      0.6537280000
H                 -3.5022280000      2.7584040000     -0.7166830000
H                 -4.4545570000      1.3113500000     -1.0697570000
H                 -4.3331360000      1.8955980000      0.5836840000
H                 -1.1706610000      2.4471340000     -0.7806950000
H                  3.7355010000      1.9782520000     -0.9790050000
H                  5.7921220000      0.6074830000     -0.6443720000
H                  5.5979720000     -1.7195530000      0.1959480000
H                  3.3476890000     -2.6699470000      0.6996010000
H                 -1.5568930000     -2.1808070000      0.8883310000
H                 -4.5267330000     -0.4342690000      1.4242310000
H                 -4.6497920000     -1.0180990000     -0.2292340000
H                 -3.9023800000     -2.0352830000      1.0086800000
$end
$rem
MAX_SCF_CYCLES=200
BASIS  =  6-311++G(d,p)
GUI  =  2
JOB_TYPE  =  SP
METHOD  =  B3LYP
SOLVENT_METHOD = PCM
$end
$pcm
theory = CPCM
$end
$solvent
dielectric 37.219
opticaldielectric 1.43
$end

--------------------------------------------------------------

             Standard Nuclear Orientation (Angstroms)
    I     Atom           X                Y                Z
 ----------------------------------------------------------------
    1      C      -3.7706340000     1.7680950000    -0.3469620000
    2      C      -2.5439740000     0.9175430000    -0.1366030000
    3      C      -1.2799030000     1.4333290000    -0.4132780000
    4      C      -0.1210200000     0.6751780000    -0.2306320000
    5      C       1.2031980000     1.2799400000    -0.5438190000
    6      O       1.3009480000     2.4245920000    -0.9579570000
    7      C       2.4124650000     0.4291660000    -0.3312070000
    8      C       3.6745730000     0.9607140000    -0.6132440000
    9      C       4.8159480000     0.1903950000    -0.4241540000
   10      C       4.7066060000    -1.1201550000     0.0491090000
   11      C       3.4561780000    -1.6570070000     0.3321030000
   12      C       2.3024370000    -0.8896120000     0.1450410000
   13      C       0.9719500000    -1.4925840000     0.4574650000
   14      O       0.8788860000    -2.6378660000     0.8709310000
   15      C      -0.2308520000    -0.6410400000     0.2441980000
   16      C      -1.4965210000    -1.1622680000     0.5227380000
   17      C      -2.6547580000    -0.4097780000     0.3418120000
   18      C      -4.0024310000    -1.0089090000     0.6537280000
   19      H      -3.5022280000     2.7584040000    -0.7166830000
   20      H      -4.4545570000     1.3113500000    -1.0697570000
   21      H      -4.3331360000     1.8955980000     0.5836840000
   22      H      -1.1706610000     2.4471340000    -0.7806950000
   23      H       3.7355010000     1.9782520000    -0.9790050000
   24      H       5.7921220000     0.6074830000    -0.6443720000
   25      H       5.5979720000    -1.7195530000     0.1959480000
   26      H       3.3476890000    -2.6699470000     0.6996010000
   27      H      -1.5568930000    -2.1808070000     0.8883310000
   28      H      -4.5267330000    -0.4342690000     1.4242310000
   29      H      -4.6497920000    -1.0180990000    -0.2292340000
   30      H      -3.9023800000    -2.0352830000     1.0086800000
 ----------------------------------------------------------------

    8    -767.6243493308      9.10e-06  Convergence criterion met
 Total energy in the final basis set =     -767.6243493308

                    Orbital Energies (a.u.)
 --------------------------------------------------------------

 Alpha MOs
 -- Occupied --
-19.1293 -19.1293 -10.2811 -10.2811 -10.2066 -10.2061 -10.2025 -10.2020
-10.2019 -10.2014 -10.1960 -10.1956 -10.1950 -10.1949 -10.1895 -10.1895
-10.1690 -10.1690  -1.0649  -1.0632  -0.8926  -0.8815  -0.8206  -0.7847
 -0.7803  -0.7763  -0.7231  -0.7048  -0.6753  -0.6449  -0.6221  -0.6121
 -0.5840  -0.5475  -0.5432  -0.5052  -0.4925  -0.4739  -0.4669  -0.4573
 -0.4556  -0.4493  -0.4475  -0.4446  -0.4383  -0.4266  -0.4185  -0.4038
 -0.3938  -0.3922  -0.3842  -0.3839  -0.3680  -0.3629  -0.3560  -0.3549
 -0.2872  -0.2846  -0.2775  -0.2737  -0.2696  -0.2613

          Ground-State Mulliken Net Atomic Charges

     Atom                 Charge (a.u.)
  ----------------------------------------
      1 C                    -0.512173
      2 C                     0.399225
      3 C                    -0.082924
      4 C                    -0.002345
      5 C                    -0.580702
      6 O                    -0.292437
      7 C                     0.214673
      8 C                     0.135380
      9 C                    -0.401452
     10 C                    -0.401642
     11 C                     0.136046
     12 C                     0.214495
     13 C                    -0.581068
     14 O                    -0.292380
     15 C                    -0.004190
     16 C                    -0.083011
     17 C                     0.400437
     18 C                    -0.510992
     19 H                     0.191703
     20 H                     0.178044
     21 H                     0.178032
     22 H                     0.156223
     23 H                     0.194469
     24 H                     0.224305
     25 H                     0.224393
     26 H                     0.194153
     27 H                     0.156353
     28 H                     0.178196
     29 H                     0.177656
     30 H                     0.191535
  ----------------------------------------
  Sum of atomic charges =     0.000000

                    Cartesian Multipole Moments
 -----------------------------------------------------------------
    Charge (ESU x 10^10)
                -0.0000
    Dipole Moment (Debye)
         X      -1.7571      Y       0.1720      Z       0.0724
       Tot       1.7670
    Quadrupole Moments (Debye-Ang)
        XX     -66.4550     XY      -4.8307     YY    -117.0139
        XZ      -1.2894     YZ       3.9227     ZZ    -108.3211

 Total job time:  51.71s(wall), 350.36s(cpu)
        *  Thank you very much for using Q-Chem.  Have a nice day.  *
