 Q-Chem 5.4, Q-Chem, Inc., Pleasanton, CA (2021)
 Q-Chem 5.4.0 for Intel X86 EM64T Linux

User input:
--------------------------------------------------------------
$molecule
-2 1
C                  0.6552010000     -1.7550260000     -0.9369840000
C                 -0.4772500000     -1.1461290000     -0.2995460000
C                 -0.4129980000      0.0551500000      0.4094680000
C                  0.7908320000      0.8333860000      0.5853030000
C                  1.9017330000      0.1929200000     -0.0783030000
C                  1.8861430000     -0.9917700000     -0.7985690000
O                  0.6191890000     -2.8588280000     -1.5785760000
O                  0.8564080000      1.9217030000      1.2299620000
Br                -2.1394870000     -2.1316350000     -0.4897090000
Br                -1.9786150000      0.8183900000      1.2627010000
Br                 3.5927970000      1.1837200000      0.1187520000
C                  3.0908440000     -1.5891500000     -1.4826490000
C                  3.8260950000     -2.6411260000     -0.6285050000
C                  5.0089280000     -3.2850990000     -1.3618210000
C                  5.7636310000     -4.3366640000     -0.5373110000
C                  6.9462270000     -4.9756350000     -1.2767070000
C                  7.7031680000     -6.0214560000     -0.4506250000
H                  3.7958840000     -0.8025340000     -1.7669630000
H                  2.7308150000     -2.0873270000     -2.3891950000
H                  3.1021340000     -3.4121720000     -0.3451510000
H                  4.1811160000     -2.1689310000      0.2956190000
H                  5.7146440000     -2.5006130000     -1.6709800000
H                  4.6443800000     -3.7498670000     -2.2881770000
H                  5.0626560000     -5.1237400000     -0.2295500000
H                  6.1267970000     -3.8754890000      0.3909710000
H                  7.6435090000     -4.1871190000     -1.5887790000
H                  6.5824990000     -5.4391610000     -2.2028630000
H                  8.1131610000     -5.5819290000      0.4658310000
H                  8.5409720000     -6.4579890000     -1.0068130000
H                  7.0438180000     -6.8443800000     -0.1523540000
$end
$rem
MAX_SCF_CYCLES=200
BASIS  =  6-311++G(d,p)
GUI  =  2
JOB_TYPE  =  SP
METHOD  =  B3LYP
SOLVENT_METHOD = COSMO
$end
$solvent
dielectric 37.219
opticaldielectric 1.43
$end

--------------------------------------------------------------

             Standard Nuclear Orientation (Angstroms)
    I     Atom           X                Y                Z
 ----------------------------------------------------------------
    1      C      -0.2270938411    -1.1238368074    -0.6133634970
    2      C      -1.5968843229    -0.9683794113    -0.2145714937
    3      C      -2.1679365540     0.2582007916     0.1308279311
    4      C      -1.4591822787     1.5165391715     0.1255566154
    5      C      -0.0908434389     1.3180306611    -0.2902724877
    6      C       0.5181637334     0.1252567476    -0.6493229163
    7      O       0.3165178540    -2.2380766138    -0.9204009416
    8      O      -1.9703555928     2.6316782951     0.4409704841
    9      Br     -2.6221142802    -2.6170897419    -0.1818046351
   10      Br     -4.0235209338     0.3991060044     0.6773174288
   11      Br      0.9566504462     2.9860423273    -0.3168508088
   12      C       1.9547069693     0.0017369184    -1.0934165928
   13      C       2.9232011785    -0.3668342652     0.0480665476
   14      C       4.3681329630    -0.5518421795    -0.4309863682
   15      C       5.3584777566    -0.9181145260     0.6826760876
   16      C       6.8020246581    -1.1003555289     0.1963796317
   17      C       7.7916460012    -1.4603073107     1.3100209673
   18      H       2.2897739384     0.9323173406    -1.5607823892
   19      H       1.9928319541    -0.8020639144    -1.8364358127
   20      H       2.5647870976    -1.2928956545     0.5094455706
   21      H       2.8889567982     0.4164775204     0.8150497056
   22      H       4.7086795537     0.3714123026    -0.9215593241
   23      H       4.3910777627    -1.3336415642    -1.2025453324
   24      H       5.0234805077    -1.8417580340     1.1728096682
   25      H       5.3355370922    -0.1395808649     1.4570393487
   26      H       7.1338086790    -0.1781666085    -0.2984289793
   27      H       6.8251342146    -1.8806676836    -0.5753056905
   28      H       7.8215135867    -0.6817749807     2.0808420764
   29      H       8.8125642202    -1.5831146068     0.9299340669
   30      H       7.5105464304    -2.3979729118     1.8026447321
 ----------------------------------------------------------------

   36   -8338.1606310004      7.45e-06  Convergence criterion met
 Total energy in the final basis set =    -8338.1606310004
    6   -8338.4238258267      2.50e-06  Convergence criterion met
 Total energy in the final basis set =    -8338.4238258267

                    Orbital Energies (a.u.)
 --------------------------------------------------------------

 Alpha MOs
 -- Occupied --
********-482.8109-482.8064 -62.4645 -62.4637 -62.4593 -56.2848 -56.2840
-56.2813 -56.2810 -56.2805 -56.2802 -56.2794 -56.2761 -56.2758 -19.0360
-19.0310 -10.2034 -10.1966 -10.1952 -10.1947 -10.1924 -10.1555 -10.1542
-10.1522 -10.1508 -10.1496 -10.1479 -10.1472  -8.6732  -8.6724  -8.6679
 -6.5040  -6.5031  -6.4982  -6.4924  -6.4917  -6.4915  -6.4907  -6.4874
 -6.4865  -2.6151  -2.6141  -2.6119  -2.6112  -2.6111  -2.6103  -2.6093
 -2.6065  -2.6058  -2.6019  -2.6019  -2.6012  -2.6011  -2.5971  -2.5970
 -0.9655  -0.9557  -0.8316  -0.8066  -0.7924  -0.7703  -0.7610  -0.7448
 -0.7136  -0.6714  -0.6558  -0.6231  -0.5776  -0.5658  -0.5411  -0.5342
 -0.4833  -0.4656  -0.4351  -0.4314  -0.4203  -0.4108  -0.3970  -0.3921
 -0.3886  -0.3775  -0.3731  -0.3696  -0.3602  -0.3483  -0.3432  -0.3347
 -0.3328  -0.3197  -0.3173  -0.3140  -0.3113  -0.3033  -0.2892  -0.2879
 -0.2834  -0.2706  -0.2612  -0.2399  -0.2195  -0.2138  -0.2106  -0.1354

          Ground-State Mulliken Net Atomic Charges

     Atom                 Charge (a.u.)
  ----------------------------------------
      1 C                    -1.054997
      2 C                    -0.290595
      3 C                     0.611946
      4 C                    -0.941125
      5 C                     0.443042
      6 C                     1.942491
      7 O                    -0.613107
      8 O                    -0.576617
      9 Br                   -0.245582
     10 Br                   -0.237465
     11 Br                   -0.203091
     12 C                    -0.821201
     13 C                    -0.550140
     14 C                    -0.172538
     15 C                    -0.259540
     16 C                    -0.194309
     17 C                    -0.704737
     18 H                     0.160016
     19 H                     0.186098
     20 H                     0.196719
     21 H                     0.122266
     22 H                     0.116871
     23 H                     0.119632
     24 H                     0.123074
     25 H                     0.128225
     26 H                     0.136986
     27 H                     0.136414
     28 H                     0.146125
     29 H                     0.148804
     30 H                     0.146323
  ----------------------------------------
  Sum of atomic charges =    -2.000010

                    Cartesian Multipole Moments
 -----------------------------------------------------------------
    Charge (ESU x 10^10)
                -9.6065
    Dipole Moment (Debye)
         X      11.2242      Y      -2.3549      Z       1.3252
       Tot      11.5449
    Quadrupole Moments (Debye-Ang)
        XX    -186.6777     XY      13.2917     YY    -207.1335
        XZ       5.2429     YZ     -10.7207     ZZ    -154.6904

 Total job time:  203.13s(wall), 1592.75s(cpu)
        *  Thank you very much for using Q-Chem.  Have a nice day.  *
