 Gaussian 16, Revision A.03,
 Gaussian 16:  ES64L-G16RevA.03 25-Dec-2016

 ----------------------------------------------------------------------
 #P UB3LYP/6-311++G(d,p) nosym opt freq SCRF=(PCM,Solvent=n,n-DiMethylF
 ormamide)
 ----------------------------------------------------------------------

 --------
 Oxidized
 --------
 Symbolic Z-matrix:
 Charge =  0 Multiplicity = 1

 SCF Done:  E(UB3LYP) =  -3777.49802576     A.U. after   15 cycles
 SCF Done:  E(UB3LYP) =  -3777.49816656     A.U. after   12 cycles
 SCF Done:  E(UB3LYP) =  -3777.49818297     A.U. after   11 cycles
 SCF Done:  E(UB3LYP) =  -3777.49819148     A.U. after   10 cycles
 SCF Done:  E(UB3LYP) =  -3777.49819270     A.U. after    9 cycles
 SCF Done:  E(UB3LYP) =  -3777.49819327     A.U. after    9 cycles
 SCF Done:  E(UB3LYP) =  -3777.49819347     A.U. after    9 cycles
 SCF Done:  E(UB3LYP) =  -3777.49819408     A.U. after   10 cycles
 SCF Done:  E(UB3LYP) =  -3777.49819490     A.U. after   11 cycles
 SCF Done:  E(UB3LYP) =  -3777.49819603     A.U. after    9 cycles
 SCF Done:  E(UB3LYP) =  -3777.49819730     A.U. after   11 cycles
 SCF Done:  E(UB3LYP) =  -3777.49819742     A.U. after   10 cycles
 SCF Done:  E(UB3LYP) =  -3777.49819760     A.U. after    9 cycles
 SCF Done:  E(UB3LYP) =  -3777.49819758     A.U. after    9 cycles
 SCF Done:  E(UB3LYP) =  -3777.49819756     A.U. after    8 cycles
 Optimization completed.
    -- Stationary point found.
 Normal termination of Gaussian 16 at Sat Feb 10 16:42:29 2024.

 ----------------------------------------------------------------------
 #P Geom=AllCheck Guess=TCheck SCRF=Check GenChk UB3LYP/6-311++G(d,p) F
 req
 ----------------------------------------------------------------------

 Structure from the checkpoint file:  "160.chk"
 --------
 Oxidized
 --------
 Charge =  0 Multiplicity = 1

                          Input orientation:
 ---------------------------------------------------------------------
 Center     Atomic      Atomic             Coordinates (Angstroms)
 Number     Number       Type             X           Y           Z
 ---------------------------------------------------------------------
      1          6           0       -1.772168    1.884272   -5.154434
      2          6           0       -1.664946    0.551496   -5.535615
      3          6           0       -1.290424   -0.417464   -4.600692
      4          6           0       -1.502235    2.265721   -3.835408
      5          6           0       -1.125033    1.291011   -2.898661
      6          6           0       -1.022896   -0.048336   -3.287421
      7          6           0       -1.636002    3.708150   -3.469398
      8          6           0       -0.834593    1.672394   -1.494966
      9          6           0       -1.297517    4.111764   -2.063051
     10          6           0       -0.930245    3.106120   -1.134830
     11          6           0       -1.337610    5.439521   -1.617110
     12          6           0       -1.032066    5.807139   -0.275582
     13          6           0       -0.679836    4.756492    0.601955
     14          6           0       -0.628701    3.447310    0.184937
     15          8           0       -2.016426    4.508488   -4.308905
     16          8           0       -0.519726    0.826969   -0.661911
     17          1           0       -2.063594    2.642847   -5.869075
     18          1           0       -1.873286    0.265090   -6.559749
     19          1           0       -1.208740   -1.456195   -4.898408
     20          1           0       -0.732896   -0.785480   -2.549718
     21         35           0       -0.253683    5.166336    2.424565
     22          1           0       -0.351962    2.659197    0.871394
     23          7           0       -1.104196    7.091924    0.145009
     24         17           0       -1.754512    6.786673   -2.663067
     25          1           0       -1.221592    7.833477   -0.526475
     26          1           0       -0.750935    7.336476    1.056606
 ---------------------------------------------------------------------

 SCF Done:  E(UB3LYP) =  -3777.49819756     A.U. after    1 cycles

 Alpha  occ. eigenvalues -- -482.85181-101.57279 -62.50460 -56.32497 -56.32108
 Alpha  occ. eigenvalues --  -56.32096 -19.13398 -19.12754 -14.35297 -10.29129
 Alpha  occ. eigenvalues --  -10.28219 -10.27053 -10.26800 -10.25599 -10.22926
 Alpha  occ. eigenvalues --  -10.21121 -10.21085 -10.21025 -10.20922 -10.19968
 Alpha  occ. eigenvalues --  -10.19918 -10.19857 -10.19850  -9.48760  -8.71431
 Alpha  occ. eigenvalues --   -7.25226  -7.24262  -7.24172  -6.54571  -6.53276
 Alpha  occ. eigenvalues --   -6.53256  -2.65664  -2.65291  -2.65280  -2.64250
 Alpha  occ. eigenvalues --   -2.64248  -1.07065  -1.06068  -0.97459  -0.90251
 Alpha  occ. eigenvalues --   -0.88976  -0.87680  -0.83555  -0.79829  -0.77988
 Alpha  occ. eigenvalues --   -0.76596  -0.76014  -0.69220  -0.67047  -0.64889
 Alpha  occ. eigenvalues --   -0.62662  -0.59538  -0.57856  -0.56772  -0.54446
 Alpha  occ. eigenvalues --   -0.52834  -0.50294  -0.48910  -0.48221  -0.46582
 Alpha  occ. eigenvalues --   -0.46531  -0.46104  -0.45691  -0.45228  -0.44622
 Alpha  occ. eigenvalues --   -0.43444  -0.42452  -0.42174  -0.39310  -0.38401
 Alpha  occ. eigenvalues --   -0.38265  -0.37042  -0.37015  -0.34614  -0.34432
 Alpha  occ. eigenvalues --   -0.32786  -0.31537  -0.28693  -0.28632  -0.27973
 Alpha  occ. eigenvalues --   -0.27297  -0.27226  -0.23935
 Alpha virt. eigenvalues --   -0.11997  -0.07791  -0.04015  -0.03558  -0.02981
 Alpha virt. eigenvalues --   -0.00875  -0.00133   0.00406   0.01420   0.01685
 Alpha virt. eigenvalues --    0.02463   0.02803   0.03395   0.03542   0.03977

  Beta  occ. eigenvalues -- -482.85181-101.57279 -62.50460 -56.32497 -56.32108
  Beta  occ. eigenvalues --  -56.32096 -19.13398 -19.12754 -14.35297 -10.29129
  Beta  occ. eigenvalues --  -10.28219 -10.27053 -10.26800 -10.25599 -10.22926
  Beta  occ. eigenvalues --  -10.21121 -10.21085 -10.21025 -10.20922 -10.19968
  Beta  occ. eigenvalues --  -10.19918 -10.19857 -10.19850  -9.48760  -8.71431
  Beta  occ. eigenvalues --   -7.25226  -7.24262  -7.24172  -6.54571  -6.53276
  Beta  occ. eigenvalues --   -6.53256  -2.65664  -2.65291  -2.65280  -2.64250
  Beta  occ. eigenvalues --   -2.64248  -1.07065  -1.06068  -0.97459  -0.90251
  Beta  occ. eigenvalues --   -0.88976  -0.87680  -0.83555  -0.79829  -0.77988
  Beta  occ. eigenvalues --   -0.76596  -0.76014  -0.69220  -0.67047  -0.64889
  Beta  occ. eigenvalues --   -0.62662  -0.59538  -0.57856  -0.56772  -0.54446
  Beta  occ. eigenvalues --   -0.52834  -0.50294  -0.48910  -0.48221  -0.46582
  Beta  occ. eigenvalues --   -0.46531  -0.46104  -0.45691  -0.45228  -0.44622
  Beta  occ. eigenvalues --   -0.43444  -0.42452  -0.42174  -0.39310  -0.38401
  Beta  occ. eigenvalues --   -0.38265  -0.37042  -0.37015  -0.34614  -0.34432
  Beta  occ. eigenvalues --   -0.32786  -0.31537  -0.28693  -0.28632  -0.27973
  Beta  occ. eigenvalues --   -0.27297  -0.27226  -0.23935
  Beta virt. eigenvalues --   -0.11997  -0.07791  -0.04015  -0.03558  -0.02981
  Beta virt. eigenvalues --   -0.00875  -0.00133   0.00406   0.01420   0.01685
  Beta virt. eigenvalues --    0.02463   0.02803   0.03395   0.03542   0.03977

 Mulliken charges and spin densities:
               1          2
     1  C    0.210171   0.000000
     2  C   -0.471174  -0.000000
     3  C   -0.385426  -0.000000
     4  C   -0.026391   0.000000
     5  C    0.066640  -0.000000
     6  C    0.135776   0.000000
     7  C   -1.189005   0.000000
     8  C   -0.683954   0.000000
     9  C    0.803370  -0.000000
    10  C    0.209704   0.000000
    11  C    0.306243   0.000000
    12  C   -1.008684   0.000000
    13  C    0.567904  -0.000000
    14  C    0.350763  -0.000000
    15  O   -0.171342  -0.000000
    16  O   -0.287151  -0.000000
    17  H    0.185785   0.000000
    18  H    0.208280  -0.000000
    19  H    0.209542  -0.000000
    20  H    0.183956   0.000000
    21  Br  -0.128995   0.000000
    22  H    0.236517   0.000000
    23  N   -0.184843  -0.000000
    24  Cl   0.308918   0.000000
    25  H    0.271551   0.000000
    26  H    0.281843   0.000000
 Sum of Mulliken charges =  -0.00000  -0.00000

 Dipole moment (field-independent basis, Debye):
    X=              0.5665    Y=              1.6478    Z=              0.0675  Tot=              1.7437
 Quadrupole moment (field-independent basis, Debye-Ang):
   XX=           -133.2455   YY=            -97.0434   ZZ=           -120.2366
   XY=              6.2379   XZ=             -1.1613   YZ=             23.9025

  Exact polarizability: 158.928 -23.393 422.702  56.885  57.802 393.324
 Approx polarizability: 189.469 -38.705 495.314  67.102  24.878 441.042

                      1                      2                      3
                      A                      A                      A
 Frequencies --     14.9434                35.9813                82.3371
 Red. masses --      8.8094                11.4768                 8.1534
 Frc consts  --      0.0012                 0.0088                 0.0326
 IR Inten    --      9.5547                 0.1329                 0.9031

                      4                      5                      6
                      A                      A                      A
 Frequencies --    105.3658               120.9655               126.3067
 Red. masses --      4.7456                 8.7973                12.5485
 Frc consts  --      0.0310                 0.0758                 0.1179
 IR Inten    --      0.1218                 2.4065                 0.6115

                      7                      8                      9
                      A                      A                      A
 Frequencies --    182.4879               197.4653               218.6983
 Red. masses --      5.9931                11.9302                 6.6699
 Frc consts  --      0.1176                 0.2741                 0.1880
 IR Inten    --      0.3357                 4.8976                48.6626

                     10                     11                     12
                      A                      A                      A
 Frequencies --    229.9937               270.7566               282.5951
 Red. masses --      1.3347                 6.1997                 7.7632
 Frc consts  --      0.0416                 0.2678                 0.3653
 IR Inten    --    397.4472                 1.3085                 1.3683

                     13                     14                     15
                      A                      A                      A
 Frequencies --    326.5656               328.5393               349.9798
 Red. masses --      7.8810                 6.7487                 8.1261
 Frc consts  --      0.4952                 0.4292                 0.5864
 IR Inten    --      3.8739                 2.3701                 6.8458

                     16                     17                     18
                      A                      A                      A
 Frequencies --    368.2527               398.2496               427.4538
 Red. masses --      8.4648                11.7916                 3.2958
 Frc consts  --      0.6763                 1.1019                 0.3548
 IR Inten    --      3.9798                47.0085                 2.1763

                     19                     20                     21
                      A                      A                      A
 Frequencies --    452.4923               468.1628               470.0301
 Red. masses --      4.2219                 8.1282                 1.2667
 Frc consts  --      0.5093                 1.0496                 0.1649
 IR Inten    --      0.6212                17.0692                 5.3649

                     22                     23                     24
                      A                      A                      A
 Frequencies --    482.8584               517.9739               551.9385
 Red. masses --      8.0639                 3.5639                 4.9606
 Frc consts  --      1.1077                 0.5634                 0.8904
 IR Inten    --      1.0250                 1.3868                 7.3361

                     25                     26                     27
                      A                      A                      A
 Frequencies --    581.6031               628.4398               672.0390
 Red. masses --      6.4373                 6.4104                 6.6296
 Frc consts  --      1.2829                 1.4916                 1.7641
 IR Inten    --      1.1060                62.4908                11.6351

                     28                     29                     30
                      A                      A                      A
 Frequencies --    695.3835               706.3227               723.3405
 Red. masses --      5.8386                 7.0496                 4.1639
 Frc consts  --      1.6634                 2.0721                 1.2836
 IR Inten    --      0.0874                17.2929                68.1410

                     31                     32                     33
                      A                      A                      A
 Frequencies --    736.2664               769.5311               778.7744
 Red. masses --      2.8406                 7.2296                 8.9448
 Frc consts  --      0.9072                 2.5224                 3.1963
 IR Inten    --     58.4675                71.8916                90.4688

                     34                     35                     36
                      A                      A                      A
 Frequencies --    802.9987               813.8606               882.7610
 Red. masses --      3.9848                 2.3790                 6.6430
 Frc consts  --      1.5139                 0.9284                 3.0500
 IR Inten    --      1.7023                13.4691                 9.0413

                     37                     38                     39
                      A                      A                      A
 Frequencies --    914.1274               935.1276               983.5201
 Red. masses --      1.4059                 1.3924                 8.9173
 Frc consts  --      0.6922                 0.7174                 5.0822
 IR Inten    --      0.2695                15.7812                30.0831

                     40                     41                     42
                      A                      A                      A
 Frequencies --   1002.5827              1021.5388              1023.7355
 Red. masses --      1.3858                 3.4316                 1.3327
 Frc consts  --      0.8207                 2.1099                 0.8229
 IR Inten    --      2.5170               206.1257                 0.2351

                     43                     44                     45
                      A                      A                      A
 Frequencies --   1057.4930              1080.2132              1116.1030
 Red. masses --      1.8772                 2.1012                 2.1713
 Frc consts  --      1.2369                 1.4446                 1.5936
 IR Inten    --     26.2959                84.0262                23.2188

                     46                     47                     48
                      A                      A                      A
 Frequencies --   1152.9493              1177.6239              1201.4395
 Red. masses --      5.4369                 1.1249                 1.8821
 Frc consts  --      4.2582                 0.9191                 1.6006
 IR Inten    --    221.3186                13.5331                78.6520

                     49                     50                     51
                      A                      A                      A
 Frequencies --   1232.9964              1268.9117              1301.2518
 Red. masses --      2.2277                 2.8712                 2.1785
 Frc consts  --      1.9954                 2.7238                 2.1733
 IR Inten    --      9.2676              1141.4704                 8.4424

                     52                     53                     54
                      A                      A                      A
 Frequencies --   1336.8884              1348.1707              1361.7525
 Red. masses --      4.3135                 6.2971                 7.6267
 Frc consts  --      4.5423                 6.7434                 8.3326
 IR Inten    --    828.6912               309.8418                47.6843

                     55                     56                     57
                      A                      A                      A
 Frequencies --   1416.6608              1476.5118              1484.6890
 Red. masses --      7.8515                 2.7660                 3.6473
 Frc consts  --      9.2840                 3.5529                 4.7369
 IR Inten    --     26.4970                46.0459                82.8987

                     58                     59                     60
                      A                      A                      A
 Frequencies --   1505.9398              1553.7442              1570.6857
 Red. masses --      2.6383                 6.6740                 5.6029
 Frc consts  --      3.5252                 9.4929                 8.1440
 IR Inten    --     41.1049               124.8459               362.1102

                     61                     62                     63
                      A                      A                      A
 Frequencies --   1614.4514              1621.0200              1626.2942
 Red. masses --      5.7180                 4.4623                 1.5581
 Frc consts  --      8.7810                 6.9085                 2.4279
 IR Inten    --     58.2960               336.7634               446.8043

                     64                     65                     66
                      A                      A                      A
 Frequencies --   1678.7037              1706.5809              3179.0145
 Red. masses --     11.4831                12.1485                 1.0875
 Frc consts  --     19.0660                20.8463                 6.4754
 IR Inten    --    187.6470               495.8940                 3.6077

                     67                     68                     69
                      A                      A                      A
 Frequencies --   3191.6066              3204.9756              3208.6659
 Red. masses --      1.0918                 1.0930                 1.0945
 Frc consts  --      6.5523                 6.6151                 6.6391
 IR Inten    --     12.2838                 5.7672                18.1564

                     70                     71                     72
                      A                      A                      A
 Frequencies --   3216.7254              3585.6843              3700.4823
 Red. masses --      1.0914                 1.0460                 1.1043
 Frc consts  --      6.6534                 7.9239                 8.9092
 IR Inten    --      6.4342               246.9877               140.1424

 - Thermochemistry -
 -------------------
 Temperature   298.150 Kelvin.  Pressure   1.00000 Atm.
 Atom     1 has atomic number  6 and mass  12.00000

 Molecular mass:   334.93487 amu.
 Principal axes and moments of inertia in atomic units:
                           1         2         3
     Eigenvalues --  3628.94077********************
           X            0.13138  -0.24574   0.96039
           Y            0.58055   0.80435   0.12640
           Z            0.80355  -0.54095  -0.24835
 This molecule is an asymmetric top.
 Rotational symmetry number  1.
 Warning -- assumption of classical behavior for rotation
           may cause significant error
 Rotational temperatures (Kelvin)      0.02387     0.00806     0.00602
 Rotational constants (GHZ):           0.49732     0.16789     0.12554
 Zero-point vibrational energy     459728.3 (Joules/Mol)
                                  109.87771 (Kcal/Mol)
 Warning -- explicit consideration of  25 degrees of freedom as
           vibrations may cause significant error
 Vibrational temperatures:     21.50    51.77   118.46   151.60   174.04
          (Kelvin)            181.73   262.56   284.11   314.66   330.91
                              389.56   406.59   469.86   472.69   503.54
                              529.83   572.99   615.01   651.04   673.58
                              676.27   694.73   745.25   794.12   836.80
                              904.18   966.91  1000.50  1016.24  1040.73
                             1059.32  1107.18  1120.48  1155.34  1170.96
                             1270.10  1315.23  1345.44  1415.07  1442.49
                             1469.77  1472.93  1521.50  1554.19  1605.82
                             1658.84  1694.34  1728.60  1774.01  1825.68
                             1872.21  1923.48  1939.72  1959.26  2038.26
                             2124.37  2136.14  2166.71  2235.49  2259.87
                             2322.84  2332.29  2339.87  2415.28  2455.39
                             4573.89  4592.01  4611.25  4616.55  4628.15
                             5159.00  5324.17

 Zero-point correction=                           0.175101 (Hartree/Particle)
 Thermal correction to Energy=                    0.190885
 Thermal correction to Enthalpy=                  0.191829
 Thermal correction to Gibbs Free Energy=         0.129707
 Sum of electronic and zero-point Energies=          -3777.323096
 Sum of electronic and thermal Energies=             -3777.307313
 Sum of electronic and thermal Enthalpies=           -3777.306369
 Sum of electronic and thermal Free Energies=        -3777.368490

                     E (Thermal)             CV                S
                      KCal/Mol        Cal/Mol-Kelvin    Cal/Mol-Kelvin
 Total                  119.782             60.127            130.746
 Electronic               0.000              0.000              0.000
 Translational            0.889              2.981             43.321
 Rotational               0.889              2.981             34.682
 Vibrational            118.004             54.165             52.742
 Vibration     1          0.593              1.986              7.213
 Vibration     2          0.594              1.982              5.469
 Vibration     3          0.600              1.961              3.834
 Vibration     4          0.605              1.945              3.353
 Vibration     5          0.609              1.932              3.085
 Vibration     6          0.611              1.927              3.002
 Vibration     7          0.630              1.864              2.303
 Vibration     8          0.637              1.843              2.157
 Vibration     9          0.646              1.813              1.970
 Vibration    10          0.652              1.795              1.879
 Vibration    11          0.674              1.727              1.591
 Vibration    12          0.682              1.706              1.518
 Vibration    13          0.710              1.622              1.277
 Vibration    14          0.712              1.618              1.267
 Vibration    15          0.727              1.575              1.166
 Vibration    16          0.741              1.538              1.087
 Vibration    17          0.765              1.474              0.969
 Vibration    18          0.789              1.410              0.867
 Vibration    19          0.811              1.355              0.788
 Vibration    20          0.825              1.321              0.743
 Vibration    21          0.827              1.317              0.737
 Vibration    22          0.839              1.288              0.702
 Vibration    23          0.873              1.210              0.615
 Vibration    24          0.907              1.135              0.540
 Vibration    25          0.938              1.071              0.482

 Optimization completed.
    -- Stationary point found.
 Normal termination of Gaussian 16 at Sat Feb 10 17:27:55 2024.
