 Gaussian 16, Revision A.03,
 Gaussian 16:  ES64L-G16RevA.03 25-Dec-2016

 ----------------------------------------------------------------
 #P UB3LYP/6-311++G(d,p) SCRF=(PCM,Solvent=n,n-DiMethylFormamide)
 ----------------------------------------------------------------

 ------------------
 Radical PCM in DMF
 ------------------
 Symbolic Z-matrix:
 Charge = -1 Multiplicity = 2

                         Standard orientation:
 ---------------------------------------------------------------------
 Center     Atomic      Atomic             Coordinates (Angstroms)
 Number     Number       Type             X           Y           Z
 ---------------------------------------------------------------------
      1          7           0        4.201491   -2.199022   -0.000589
      2          6           0        3.602624   -1.202619   -0.000297
      3          6           0        2.862406    0.000003    0.000013
      4          6           0        3.602569    1.202629    0.000107
      5          7           0        4.201420    2.199039    0.000231
      6          6           0        1.433056   -0.000005    0.000165
      7          6           0        0.686431   -1.212415    0.000434
      8          6           0       -0.686415   -1.212424    0.000399
      9          6           0       -1.433046   -0.000010    0.000084
     10          6           0       -0.686423    1.212419   -0.000086
     11          6           0        0.686426    1.212430   -0.000004
     12          6           0       -2.862374   -0.000006   -0.000055
     13          6           0       -3.602593    1.202597   -0.000207
     14          7           0       -4.201483    2.198989   -0.000242
     15          6           0       -3.602599   -1.202611    0.000032
     16          7           0       -4.201488   -2.198995   -0.000047
     17          1           0        1.219176   -2.156641    0.000686
     18          1           0       -1.219133   -2.156666    0.000775
     19          1           0       -1.219153    2.156661   -0.000267
     20          1           0        1.219174    2.156652   -0.000163
 ---------------------------------------------------------------------

 SCF Done:  E(UB3LYP) =  -678.952201567     A.U. after   18 cycles

 The electronic state is 2-A.
 Alpha  occ. eigenvalues --  -14.32022 -14.32022 -14.32022 -14.32022 -10.23189
 Alpha  occ. eigenvalues --  -10.23188 -10.22446 -10.22446 -10.22441 -10.22441
 Alpha  occ. eigenvalues --  -10.21784 -10.21783 -10.19278 -10.19276 -10.19214
 Alpha  occ. eigenvalues --  -10.19214  -0.92973  -0.92841  -0.91651  -0.91650
 Alpha  occ. eigenvalues --   -0.88736  -0.84151  -0.79754  -0.77017  -0.72952
 Alpha  occ. eigenvalues --   -0.64547  -0.63115  -0.59495  -0.56195  -0.55274
 Alpha  occ. eigenvalues --   -0.51885  -0.46089  -0.45845  -0.44045  -0.43181
 Alpha  occ. eigenvalues --   -0.41986  -0.40608  -0.38981  -0.38827  -0.38574
 Alpha  occ. eigenvalues --   -0.38350  -0.37873  -0.36111  -0.35937  -0.35926
 Alpha  occ. eigenvalues --   -0.35671  -0.35344  -0.34525  -0.34295  -0.31286
 Alpha  occ. eigenvalues --   -0.28039  -0.24454  -0.18913
 Alpha virt. eigenvalues --   -0.03333  -0.03029  -0.01371  -0.00880  -0.00379
 Alpha virt. eigenvalues --    0.00878   0.01220   0.02248   0.02685   0.02819
 Alpha virt. eigenvalues --    0.03164   0.04052   0.04471   0.04552   0.04592

  Beta  occ. eigenvalues --  -14.31812 -14.31812 -14.31811 -14.31811 -10.22822
  Beta  occ. eigenvalues --  -10.22822 -10.22523 -10.22522 -10.22516 -10.22516
  Beta  occ. eigenvalues --  -10.21683 -10.21682 -10.19219 -10.19217 -10.19154
  Beta  occ. eigenvalues --  -10.19154  -0.92625  -0.92499  -0.91336  -0.91334
  Beta  occ. eigenvalues --   -0.88350  -0.83530  -0.79038  -0.76856  -0.72252
  Beta  occ. eigenvalues --   -0.64293  -0.62925  -0.59268  -0.55935  -0.55162
  Beta  occ. eigenvalues --   -0.51690  -0.45942  -0.45682  -0.43991  -0.42071
  Beta  occ. eigenvalues --   -0.40798  -0.40424  -0.38662  -0.38550  -0.38268
  Beta  occ. eigenvalues --   -0.38039  -0.36951  -0.35992  -0.35568  -0.35233
  Beta  occ. eigenvalues --   -0.35198  -0.35179  -0.34397  -0.34171  -0.29843
  Beta  occ. eigenvalues --   -0.27599  -0.21872
  Beta virt. eigenvalues --   -0.13634  -0.02532  -0.02012  -0.01272  -0.00797
  Beta virt. eigenvalues --   -0.00351   0.00926   0.01225   0.02857   0.02911
  Beta virt. eigenvalues --    0.03181   0.03366   0.04077   0.04482   0.04606

 Mulliken charges and spin densities:
               1          2
     1  N   -0.308085   0.108951
     2  C   -1.401866  -0.070608
     3  C    2.359063   0.296803
     4  C   -1.401879  -0.070609
     5  N   -0.308096   0.108958
     6  C    1.592920   0.119151
     7  C   -0.667854   0.008712
     8  C   -0.667873   0.008720
     9  C    1.592908   0.119146
    10  C   -0.667925   0.008715
    11  C   -0.667908   0.008707
    12  C    2.359107   0.296801
    13  C   -1.401874  -0.070610
    14  N   -0.308092   0.108960
    15  C   -1.401889  -0.070609
    16  N   -0.308091   0.108955
    17  H    0.151855  -0.005036
    18  H    0.151861  -0.005036
    19  H    0.151862  -0.005036
    20  H    0.151854  -0.005036
 Sum of Mulliken charges =  -1.00000   1.00000

 Dipole moment (field-independent basis, Debye):
    X=              0.0001    Y=             -0.0001    Z=              0.0014  Tot=              0.0014
 Quadrupole moment (field-independent basis, Debye-Ang):
   XX=           -203.2158   YY=           -128.4503   ZZ=            -95.5075
   XY=             -0.0000   XZ=              0.0005   YZ=             -0.0055

 Normal termination of Gaussian 16 at Sat Jan 13 19:18:41 2024.
