 Q-Chem 5.4, Q-Chem, Inc., Pleasanton, CA (2021)
 Q-Chem 5.4.0 for Intel X86 EM64T Linux

User input:
--------------------------------------------------------------
$molecule
-2 1
C                  2.2354570000     -0.0726360000      0.0772680000
C                  0.7293830000      0.0063960000      0.0269650000
C                  0.0815080000      1.2440390000      0.0821640000
C                 -1.3410250000      1.4188320000      0.0412000000
O                 -1.9312600000      2.5763620000      0.0932040000
C                 -2.0456750000      0.1757170000     -0.0637010000
C                 -1.3683670000     -1.0452830000     -0.1168290000
Br                -2.5046640000     -2.6846670000     -0.2623740000
C                  0.0372400000     -1.2595260000     -0.0789080000
O                  0.6589620000     -2.3928380000     -0.1280580000
H                  2.5767110000     -0.6823990000      0.9267310000
H                  2.6786890000      0.9284860000      0.1581140000
H                  2.6408020000     -0.5703100000     -0.8159370000
H                  0.6819290000      2.1526550000      0.1619210000
H                 -3.1296900000      0.2051720000     -0.1017600000
$end
$rem
MAX_SCF_CYCLES=200
BASIS  =  6-311++G(d,p)
GUI  =  2
JOB_TYPE  =  SP
METHOD  =  B3LYP
SOLVENT_METHOD = COSMO
$end
$solvent
dielectric 37.219
opticaldielectric 1.43
$end

--------------------------------------------------------------

             Standard Nuclear Orientation (Angstroms)
    I     Atom           X                Y                Z
 ----------------------------------------------------------------
    1      C       2.5760475282    -2.1980198973     0.0000749686
    2      C       1.7664798491    -0.9245853792    -0.0001330029
    3      C       2.4023228913     0.3205060747     0.0000618187
    4      C       1.7195510540     1.5813206511     0.0000443146
    5      O       2.3233358389     2.7330156652     0.0000303896
    6      C       0.2942015147     1.4355487945    -0.0000036534
    7      C      -0.3109555016     0.1761066046    -0.0002630344
    8      Br     -2.3108011264     0.1526225582     0.0000450377
    9      C       0.3297446647    -1.0937644086    -0.0001602242
   10      O      -0.2359522501    -2.2570945539     0.0000145832
   11      H       2.3393887822    -2.8233247090     0.8734815906
   12      H       3.6518796428    -1.9793413645     0.0010241742
   13      H       2.3405875160    -2.8228525252    -0.8739627428
   14      H       3.4936909158     0.3574577537     0.0000550879
   15      H      -0.3109281439     2.3362277797    -0.0002613331
 ----------------------------------------------------------------

   11   -2994.4216039577      6.88e-06  Convergence criterion met
 Total energy in the final basis set =    -2994.4216039577
    6   -2994.7185660235      4.97e-06  Convergence criterion met
 Total energy in the final basis set =    -2994.7185660235

                    Orbital Energies (a.u.)
 --------------------------------------------------------------

 Alpha MOs
 -- Occupied --
******** -62.4548 -56.2749 -56.2717 -56.2715 -19.0269 -19.0266 -10.1847
-10.1828 -10.1803 -10.1433 -10.1427 -10.1329 -10.1278  -8.6633  -6.4932
 -6.4828  -6.4823  -2.6044  -2.6015  -2.6011  -2.5929  -2.5928  -0.9415
 -0.9359  -0.8034  -0.7657  -0.7172  -0.6622  -0.6441  -0.5446  -0.5271
 -0.4503  -0.4370  -0.3982  -0.3949  -0.3760  -0.3677  -0.3601  -0.3567
 -0.3343  -0.3234  -0.3184  -0.2872  -0.2704  -0.2341  -0.2122  -0.2084
 -0.2060  -0.1307

          Ground-State Mulliken Net Atomic Charges

     Atom                 Charge (a.u.)
  ----------------------------------------
      1 C                    -0.443441
      2 C                     1.368739
      3 C                    -0.730817
      4 C                    -0.326228
      5 O                    -0.778673
      6 C                    -0.197671
      7 C                     1.040152
      8 Br                   -0.318853
      9 C                    -1.680957
     10 O                    -0.690376
     11 H                     0.152087
     12 H                     0.141658
     13 H                     0.151891
     14 H                     0.127466
     15 H                     0.185023
  ----------------------------------------
  Sum of atomic charges =    -2.000000

                    Cartesian Multipole Moments
 -----------------------------------------------------------------
    Charge (ESU x 10^10)
                -9.6064
    Dipole Moment (Debye)
         X      -5.9170      Y      -3.1664      Z      -0.0027
       Tot       6.7110
    Quadrupole Moments (Debye-Ang)
        XX    -108.8557     XY     -28.6737     YY    -129.4225
        XZ      -0.0032     YZ      -0.0028     ZZ     -80.3472

 Total job time:  48.56s(wall), 134.34s(cpu)
        *  Thank you very much for using Q-Chem.  Have a nice day.  *
