 Q-Chem 5.4, Q-Chem, Inc., Pleasanton, CA (2021)
 Q-Chem 5.4.0 for Intel X86 EM64T Linux

User input:
--------------------------------------------------------------
$molecule
0 1
C                  0.3110660000      1.8087550000     -2.1458290000
C                 -1.1428580000      2.0948220000     -2.0349620000
C                 -2.0428760000      1.1224430000     -1.8427610000
C                 -1.6210410000     -0.2950340000     -1.7309010000
C                 -0.1702340000     -0.5842800000     -1.8360540000
C                  0.7478910000      0.3864920000     -1.9838900000
O                  1.1019290000      2.7010310000     -2.3971250000
O                 -2.4323330000     -1.1890320000     -1.5557010000
C                  3.2770850000      0.7833050000     -1.3912770000
C                  4.4892130000      0.9199060000     -2.0849140000
C                  3.1474070000      1.3104750000     -0.0881910000
C                  4.2486430000      1.9787320000      0.4574150000
C                  5.5599050000      1.6063490000     -1.5306910000
C                  5.4357990000      2.1411040000     -0.2504650000
H                 -1.4203210000      3.1379750000     -2.1406740000
H                 -3.1078730000      1.3133790000     -1.7706060000
H                  0.1166780000     -1.6284110000     -1.7727760000
H                  4.5664390000      0.4849500000     -3.0735280000
H                  4.1726010000      2.3733640000      1.4651220000
H                  6.4818920000      1.7198590000     -2.0887280000
H                  6.2637570000      2.6751770000      0.2022930000
C                  2.2134400000      0.0190010000     -2.1121480000
O                  2.4960340000     -0.9083390000     -2.8490370000
C                  1.9099890000      1.1522740000      0.7669090000
H                  1.5067060000      0.1386290000      0.7344960000
H                  1.1131820000      1.8380510000      0.4627210000
H                  2.1450080000      1.3797840000      1.8081130000
$end

$rem
BASIS  =  6-311++G(d,p)
GUI  =  2
JOB_TYPE  =  SP
METHOD  =  B3LYP
SCF_CONVERGENCE  = 8
SOLVENT_METHOD = sm12
$end

$smx
solvent dimethylformamide
charges CM5
$end

--------------------------------------------------------------

             Standard Nuclear Orientation (Angstroms)
    I     Atom           X                Y                Z
 ----------------------------------------------------------------
    1      C       0.3110660000     1.8087550000    -2.1458290000
    2      C      -1.1428580000     2.0948220000    -2.0349620000
    3      C      -2.0428760000     1.1224430000    -1.8427610000
    4      C      -1.6210410000    -0.2950340000    -1.7309010000
    5      C      -0.1702340000    -0.5842800000    -1.8360540000
    6      C       0.7478910000     0.3864920000    -1.9838900000
    7      O       1.1019290000     2.7010310000    -2.3971250000
    8      O      -2.4323330000    -1.1890320000    -1.5557010000
    9      C       3.2770850000     0.7833050000    -1.3912770000
   10      C       4.4892130000     0.9199060000    -2.0849140000
   11      C       3.1474070000     1.3104750000    -0.0881910000
   12      C       4.2486430000     1.9787320000     0.4574150000
   13      C       5.5599050000     1.6063490000    -1.5306910000
   14      C       5.4357990000     2.1411040000    -0.2504650000
   15      H      -1.4203210000     3.1379750000    -2.1406740000
   16      H      -3.1078730000     1.3133790000    -1.7706060000
   17      H       0.1166780000    -1.6284110000    -1.7727760000
   18      H       4.5664390000     0.4849500000    -3.0735280000
   19      H       4.1726010000     2.3733640000     1.4651220000
   20      H       6.4818920000     1.7198590000    -2.0887280000
   21      H       6.2637570000     2.6751770000     0.2022930000
   22      C       2.2134400000     0.0190010000    -2.1121480000
   23      O       2.4960340000    -0.9083390000    -2.8490370000
   24      C       1.9099890000     1.1522740000     0.7669090000
   25      H       1.5067060000     0.1386290000     0.7344960000
   26      H       1.1131820000     1.8380510000     0.4627210000
   27      H       2.1450080000     1.3797840000     1.8081130000
 ----------------------------------------------------------------

   15    -765.3460826506      9.29e-09  Convergence criterion met
 Total energy in the final basis set =     -765.3696792995

                    Orbital Energies (a.u.)
 --------------------------------------------------------------

 Alpha MOs
 -- Occupied --
-19.1466 -19.1451 -19.1351 -10.2946 -10.2902 -10.2883 -10.2287 -10.2222
-10.2153 -10.2142 -10.2057 -10.1990 -10.1898 -10.1892 -10.1843 -10.1840
-10.1770  -1.0795  -1.0742  -1.0692  -0.8778  -0.8723  -0.8099  -0.7888
 -0.7732  -0.7219  -0.7042  -0.6737  -0.6332  -0.6223  -0.6087  -0.5660
 -0.5323  -0.5244  -0.5085  -0.4939  -0.4836  -0.4771  -0.4599  -0.4561
 -0.4515  -0.4450  -0.4413  -0.4323  -0.4270  -0.4214  -0.4136  -0.4068
 -0.3962  -0.3706  -0.3662  -0.3574  -0.3182  -0.3102  -0.2993  -0.2940
 -0.2721  -0.2670  -0.2614

          Ground-State Mulliken Net Atomic Charges

     Atom                 Charge (a.u.)
  ----------------------------------------
      1 C                    -1.577223
      2 C                     0.678658
      3 C                     0.750415
      4 C                    -0.557546
      5 C                     0.276547
      6 C                     1.720173
      7 O                    -0.259860
      8 O                    -0.314254
      9 C                     0.071164
     10 C                    -0.772145
     11 C                     0.247203
     12 C                    -0.018780
     13 C                    -0.354865
     14 C                    -0.070725
     15 H                     0.353168
     16 H                     0.353191
     17 H                     0.293478
     18 H                     0.196081
     19 H                     0.232635
     20 H                     0.257058
     21 H                     0.285847
     22 C                    -2.220937
     23 O                    -0.253595
     24 C                     0.044319
     25 H                     0.189388
     26 H                     0.204071
     27 H                     0.246535
  ----------------------------------------
  Sum of atomic charges =     0.000000

                    Cartesian Multipole Moments
 -----------------------------------------------------------------
    Charge (ESU x 10^10)
                -0.0000
    Dipole Moment (Debye)
         X      -0.2916      Y       3.0592      Z       2.6878
       Tot       4.0826
    Quadrupole Moments (Debye-Ang)
        XX     -92.2840     XY      -2.4923     YY    -103.4883
        XZ       9.0239     YZ      -1.5566     ZZ    -103.1085

 Total job time:  593.95s(wall), 4656.83s(cpu)
        *  Thank you very much for using Q-Chem.  Have a nice day.  *
