 Q-Chem 5.4, Q-Chem, Inc., Pleasanton, CA (2021)
 Q-Chem 5.4.0 for Intel X86 EM64T Linux

User input:
--------------------------------------------------------------
$molecule
0 1
Cl                -2.5544670000      1.7869850000      0.7012950000
C                 -1.2058120000      0.7551000000      0.4278660000
C                 -1.2634520000     -0.5845490000      0.5604880000
Cl                -2.6933220000     -1.4234380000      1.0193420000
C                 -0.0629760000     -1.4484820000      0.3123130000
O                 -0.1142030000     -2.6481780000      0.4309120000
C                  1.2057510000     -0.7551130000     -0.0903110000
C                  1.2635650000      0.5844720000     -0.2229760000
Cl                 2.6934000000      1.4237650000     -0.6818440000
C                  0.0630240000      1.4485410000      0.0251910000
O                  0.1143560000      2.6481450000     -0.0934010000
Cl                 2.5541360000     -1.7872470000     -0.3636330000
$end

$rem
BASIS  =  6-311++G(d,p)
GUI  =  2
JOB_TYPE  =  SP
METHOD  =  B3LYP
SCF_CONVERGENCE  = 8
SOLVENT_METHOD = sm12
$end

$smx
solvent dimethylformamide
charges CM5
$end

--------------------------------------------------------------

             Standard Nuclear Orientation (Angstroms)
    I     Atom           X                Y                Z
 ----------------------------------------------------------------
    1      Cl     -2.5544670000     1.7869850000     0.7012950000
    2      C      -1.2058120000     0.7551000000     0.4278660000
    3      C      -1.2634520000    -0.5845490000     0.5604880000
    4      Cl     -2.6933220000    -1.4234380000     1.0193420000
    5      C      -0.0629760000    -1.4484820000     0.3123130000
    6      O      -0.1142030000    -2.6481780000     0.4309120000
    7      C       1.2057510000    -0.7551130000    -0.0903110000
    8      C       1.2635650000     0.5844720000    -0.2229760000
    9      Cl      2.6934000000     1.4237650000    -0.6818440000
   10      C       0.0630240000     1.4485410000     0.0251910000
   11      O       0.1143560000     2.6481450000    -0.0934010000
   12      Cl      2.5541360000    -1.7872470000    -0.3636330000
 ----------------------------------------------------------------

   14   -2220.0294425472      4.54e-09  Convergence criterion met
 Total energy in the final basis set =    -2220.0418035899

                    Orbital Energies (a.u.)
 --------------------------------------------------------------

 Alpha MOs
 -- Occupied --
********-101.5953-101.5952-101.5952 -19.1720 -19.1720 -10.3288 -10.3288
-10.2995 -10.2994 -10.2987 -10.2987  -9.5097  -9.5097  -9.5097  -9.5097
 -7.2748  -7.2748  -7.2747  -7.2747  -7.2649  -7.2649  -7.2648  -7.2648
 -7.2634  -7.2634  -7.2633  -7.2633  -1.1124  -1.1100  -0.9581  -0.9457
 -0.8976  -0.8953  -0.8436  -0.7713  -0.7299  -0.6433  -0.6423  -0.5890
 -0.5328  -0.5108  -0.5039  -0.4966  -0.4832  -0.4777  -0.4633  -0.4610
 -0.4338  -0.3986  -0.3776  -0.3699  -0.3682  -0.3608  -0.3475  -0.3408
 -0.3262  -0.3164  -0.3129  -0.2896

          Ground-State Mulliken Net Atomic Charges

     Atom                 Charge (a.u.)
  ----------------------------------------
      1 Cl                    0.414112
      2 C                     0.795319
      3 C                     0.802908
      4 Cl                    0.411555
      5 C                    -2.283710
      6 O                    -0.140654
      7 C                     0.794923
      8 C                     0.803490
      9 Cl                    0.411552
     10 C                    -2.282774
     11 O                    -0.140645
     12 Cl                    0.413925
  ----------------------------------------
  Sum of atomic charges =     0.000000

                    Cartesian Multipole Moments
 -----------------------------------------------------------------
    Charge (ESU x 10^10)
                -0.0000
    Dipole Moment (Debye)
         X      -0.0006      Y       0.0006      Z       0.0001
       Tot       0.0009
    Quadrupole Moments (Debye-Ang)
        XX     -90.2993     XY      -0.8437     YY    -108.1698
        XZ      -0.4546     YZ       1.6174     ZZ     -92.2735

 Total job time:  118.26s(wall), 677.68s(cpu)
        *  Thank you very much for using Q-Chem.  Have a nice day.  *
