 Q-Chem 5.4, Q-Chem, Inc., Pleasanton, CA (2021)
 Q-Chem 5.4.0 for Intel X86 EM64T Linux

User input:
--------------------------------------------------------------
$molecule
-1 2
C                  5.6730680000     -5.1030470000      1.2822580000
C                  6.6816350000     -5.0195950000      0.3482890000
C                  6.5914370000     -4.0630490000     -0.6985630000
C                  4.5454710000     -4.2570650000      1.2250450000
C                  4.4553180000     -3.2977820000      0.1750560000
C                  5.4854130000     -3.2188030000     -0.7715260000
C                  3.4904840000     -4.3782800000      2.2415790000
C                  2.3825520000     -3.4684100000      2.0920660000
C                  2.2918970000     -2.5422720000      1.0814630000
C                  3.2991840000     -2.3845040000      0.0627130000
O                  3.5576080000     -5.2221840000      3.1744410000
O                  3.2103740000     -1.5364410000     -0.8588220000
C                  7.6353260000     -3.9743200000     -1.6681400000
N                  8.4925410000     -3.9168470000     -2.4463100000
H                  5.7151030000     -5.8229430000      2.0915080000
H                  7.5446420000     -5.6736020000      0.3997200000
H                  5.3941670000     -2.4815060000     -1.5603560000
H                  1.5967130000     -3.5496870000      2.8379170000
H                  1.4347960000     -1.8785540000      1.0129520000
$end
$rem
MAX_SCF_CYCLES=200
BASIS  =  6-311++G(d,p)
GUI  =  2
JOB_TYPE  =  SP
METHOD  =  B3LYP
SOLVENT_METHOD = COSMO
$end
$solvent
dielectric 37.219
opticaldielectric 1.43
$end

--------------------------------------------------------------

             Standard Nuclear Orientation (Angstroms)
    I     Atom           X                Y                Z
 ----------------------------------------------------------------
    1      C      -0.3379321126    -1.8152925927    -0.0001949926
    2      C      -1.6874775994    -1.5410724477    -0.0000781321
    3      C      -2.1292942989    -0.1905862237    -0.0000334240
    4      C       0.6227911059    -0.7821204098    -0.0002586997
    5      C       0.1793820857     0.5722121853    -0.0002765007
    6      C      -1.1953264706     0.8433712601    -0.0001512351
    7      C       2.0541309006    -1.1172299611    -0.0002697619
    8      C       2.9515904462     0.0107314388     0.0002916789
    9      C       2.5282292646     1.3176490534     0.0002121164
   10      C       1.1377145695     1.6969087282    -0.0004095098
   11      O       2.4593870823    -2.3099907193     0.0002819582
   12      O       0.7569863330     2.8933077514     0.0000505705
   13      C      -3.5275562693     0.0966768280     0.0001664789
   14      N      -4.6668068170     0.3106333873     0.0003428688
   15      H       0.0278955543    -2.8356223789    -0.0002094881
   16      H      -2.4189656945    -2.3411202895    -0.0000189594
   17      H      -1.5078196482     1.8809325747    -0.0001569484
   18      H       4.0120634142    -0.2255723763     0.0007273728
   19      H       3.2459770394     2.1329253494     0.0006096023
 ----------------------------------------------------------------

   10    -627.6141871745      6.74e-06  Convergence criterion met
 Total energy in the final basis set =     -627.6141871745
    5    -627.6936432850      5.50e-06  Convergence criterion met
 Total energy in the final basis set =     -627.6936432850

                    Orbital Energies (a.u.)
 --------------------------------------------------------------

 Alpha MOs
 -- Occupied --
-19.0904 -19.0885 -14.3249 -10.2355 -10.2321 -10.2276 -10.2199 -10.1959
-10.1938 -10.1892 -10.1882 -10.1832 -10.1728 -10.1715  -1.0158  -1.0117
 -0.9266  -0.8781  -0.8201  -0.7753  -0.7620  -0.6922  -0.6552  -0.6308
 -0.5777  -0.5554  -0.5181  -0.4892  -0.4762  -0.4421  -0.4395  -0.4336
 -0.4305  -0.4173  -0.4014  -0.3996  -0.3903  -0.3901  -0.3677  -0.3637
 -0.3489  -0.3464  -0.2886  -0.2730  -0.2650  -0.2577  -0.2507  -0.1661

 Beta MOs
 -- Occupied --
-19.0843 -19.0819 -14.3245 -10.2342 -10.2306 -10.2277 -10.2195 -10.1961
-10.1932 -10.1883 -10.1876 -10.1833 -10.1717 -10.1700  -1.0052  -1.0001
 -0.9261  -0.8763  -0.8149  -0.7734  -0.7599  -0.6837  -0.6522  -0.6281
 -0.5760  -0.5524  -0.5158  -0.4865  -0.4737  -0.4410  -0.4377  -0.4303
 -0.4195  -0.4128  -0.3990  -0.3914  -0.3894  -0.3658  -0.3639  -0.3624
 -0.3457  -0.3418  -0.2671  -0.2601  -0.2585  -0.2519  -0.2449

          Ground-State Mulliken Net Atomic Charges

     Atom                 Charge (a.u.)    Spin (a.u.)
  --------------------------------------------------------
      1 C                     0.415749       0.035261
      2 C                    -0.883285       0.043669
      3 C                     1.947771       0.031485
      4 C                     0.159645       0.048259
      5 C                    -0.113594       0.026306
      6 C                     0.254778       0.001238
      7 C                    -0.544457       0.087377
      8 C                     0.065937       0.096868
      9 C                     0.039015       0.119689
     10 C                    -0.429476       0.079568
     11 O                    -0.509413       0.235665
     12 O                    -0.500152       0.214186
     13 C                    -1.651937      -0.011786
     14 N                    -0.290147       0.015818
     15 H                     0.188291      -0.001803
     16 H                     0.232650      -0.003332
     17 H                     0.197385      -0.000869
     18 H                     0.209394      -0.008057
     19 H                     0.211845      -0.009540
  --------------------------------------------------------
  Sum of atomic charges =    -1.000000

                    Cartesian Multipole Moments
 -----------------------------------------------------------------
    Charge (ESU x 10^10)
                -4.8032
    Dipole Moment (Debye)
         X      -0.4229      Y      -2.1734      Z      -0.0015
       Tot       2.2142
    Quadrupole Moments (Debye-Ang)
        XX    -128.5900     XY      15.5601     YY    -113.1083
        XZ       0.0037     YZ       0.0002     ZZ     -84.2126

 Total job time:  75.23s(wall), 333.49s(cpu)
        *  Thank you very much for using Q-Chem.  Have a nice day.  *
