 Q-Chem 5.4, Q-Chem, Inc., Pleasanton, CA (2021)
 Q-Chem 5.4.0 for Intel X86 EM64T Linux

User input:
--------------------------------------------------------------
$molecule
0 1
C                  5.4244660000      4.5780260000     -2.1552950000
O                  4.7180020000      3.4936730000     -1.5626330000
C                  5.3658770000      2.3416130000     -1.2993110000
C                  6.7260720000      2.1677400000     -1.5835040000
C                  7.3607510000      0.9635230000     -1.2983680000
C                  6.6581170000     -0.0872770000     -0.7283940000
C                  5.3025590000      0.0643000000     -0.4389880000
C                  4.6118480000     -1.1238180000      0.1770750000
O                  5.2605940000     -2.1305200000      0.4068340000
C                  3.1644160000     -1.0056310000      0.4712850000
C                  2.4416830000     -2.0712510000      1.0240920000
O                  3.0808520000     -3.2307880000      1.3122850000
C                  1.0514100000     -1.9474890000      1.2904860000
C                  0.3253250000     -3.1312270000      1.8932450000
C                 -1.2116420000     -3.0213080000      1.8978290000
O                 -1.7443220000     -3.3932470000      0.6303880000
C                 -1.6202260000     -1.5881190000      2.2893970000
C                 -1.0700050000     -0.5660270000      1.2962500000
O                 -1.7662100000     -0.6942010000      0.0241850000
C                 -2.6873940000      0.3188240000     -0.2814010000
C                 -3.1258130000      0.1563720000     -1.7359460000
C                 -4.5771600000      0.6358220000     -1.9544820000
N                 -4.7710400000      0.9820990000     -3.3598050000
C                 -4.9094520000      1.7515740000     -0.9487500000
O                 -4.0063680000      2.8298410000     -1.2222210000
C                 -4.8080290000      1.1947550000      0.4911150000
C                 -4.6210840000      2.2666880000      1.5627890000
O                 -3.8008710000      0.1729790000      0.6097840000
C                  0.4065880000     -0.7498330000      1.0265750000
C                  1.1202970000      0.3379920000      0.4759100000
O                  0.4294860000      1.4664180000      0.2506460000
C                  2.4946690000      0.2192250000      0.1918100000
C                  3.1927880000      1.3840460000     -0.3865000000
O                  2.5629020000      2.4361970000     -0.5900360000
C                  4.6288490000      1.2715180000     -0.7133850000
C                 -1.7936810000     -3.9842920000      2.9624750000
C                 -3.0636060000     -4.7192710000      2.6160930000
O                 -1.2460920000     -4.1001380000      4.0384820000
H                  4.6891620000      5.3726640000     -2.2655810000
H                  5.8191550000      4.3083110000     -3.1402380000
H                  6.2400950000      4.9240590000     -1.5121210000
H                  7.2941070000      2.9723320000     -2.0281860000
H                  8.4149100000      0.8525850000     -1.5269820000
H                  7.1314380000     -1.0319910000     -0.4982940000
H                  2.4564550000     -3.8610620000      1.6874830000
H                  0.6565650000     -3.2796190000      2.9283940000
H                  0.5647990000     -4.0440640000      1.3335390000
H                 -1.8856840000     -2.5906940000      0.1038650000
H                 -1.2236860000     -1.3734040000      3.2863100000
H                 -2.7067860000     -1.4903550000      2.3231860000
H                 -1.2409860000      0.4424920000      1.6768260000
H                 -2.2179560000      1.2934250000     -0.1135150000
H                 -2.4479240000      0.7267410000     -2.3745430000
H                 -3.0426830000     -0.8928520000     -2.0252400000
H                 -5.2531620000     -0.1946000000     -1.7270970000
H                 -4.2610720000      1.8326090000     -3.5801460000
H                 -5.7506890000      1.1506360000     -3.5659430000
H                 -5.9417870000      2.0914280000     -1.1074160000
H                 -4.2873150000      3.6161760000     -0.7454610000
H                 -5.7487570000      0.6667880000      0.6824300000
H                 -3.6686310000      2.7885050000      1.4444300000
H                 -4.6362000000      1.8065510000      2.5524820000
H                 -5.4310290000      3.0038040000      1.5233700000
H                  1.0893360000      2.1154090000     -0.1264380000
H                 -2.8730750000     -5.4106720000      1.7910040000
H                 -3.4177330000     -5.2596110000      3.4929030000
H                 -3.8254230000     -4.0243830000      2.2537090000
$end
$rem
MAX_SCF_CYCLES=200
BASIS  =  6-311++G(d,p)
GUI  =  2
JOB_TYPE  =  SP
METHOD  =  B3LYP
SCF_ALGORITHM = DIIS_GDM
THRESH = 14
SOLVENT_METHOD = PCM
$end
$pcm
theory = CPCM
$end
$solvent
dielectric 37.219
opticaldielectric 1.43
$end

--------------------------------------------------------------

             Standard Nuclear Orientation (Angstroms)
    I     Atom           X                Y                Z
 ----------------------------------------------------------------
    1      C       5.4244660000     4.5780260000    -2.1552950000
    2      O       4.7180020000     3.4936730000    -1.5626330000
    3      C       5.3658770000     2.3416130000    -1.2993110000
    4      C       6.7260720000     2.1677400000    -1.5835040000
    5      C       7.3607510000     0.9635230000    -1.2983680000
    6      C       6.6581170000    -0.0872770000    -0.7283940000
    7      C       5.3025590000     0.0643000000    -0.4389880000
    8      C       4.6118480000    -1.1238180000     0.1770750000
    9      O       5.2605940000    -2.1305200000     0.4068340000
   10      C       3.1644160000    -1.0056310000     0.4712850000
   11      C       2.4416830000    -2.0712510000     1.0240920000
   12      O       3.0808520000    -3.2307880000     1.3122850000
   13      C       1.0514100000    -1.9474890000     1.2904860000
   14      C       0.3253250000    -3.1312270000     1.8932450000
   15      C      -1.2116420000    -3.0213080000     1.8978290000
   16      O      -1.7443220000    -3.3932470000     0.6303880000
   17      C      -1.6202260000    -1.5881190000     2.2893970000
   18      C      -1.0700050000    -0.5660270000     1.2962500000
   19      O      -1.7662100000    -0.6942010000     0.0241850000
   20      C      -2.6873940000     0.3188240000    -0.2814010000
   21      C      -3.1258130000     0.1563720000    -1.7359460000
   22      C      -4.5771600000     0.6358220000    -1.9544820000
   23      N      -4.7710400000     0.9820990000    -3.3598050000
   24      C      -4.9094520000     1.7515740000    -0.9487500000
   25      O      -4.0063680000     2.8298410000    -1.2222210000
   26      C      -4.8080290000     1.1947550000     0.4911150000
   27      C      -4.6210840000     2.2666880000     1.5627890000
   28      O      -3.8008710000     0.1729790000     0.6097840000
   29      C       0.4065880000    -0.7498330000     1.0265750000
   30      C       1.1202970000     0.3379920000     0.4759100000
   31      O       0.4294860000     1.4664180000     0.2506460000
   32      C       2.4946690000     0.2192250000     0.1918100000
   33      C       3.1927880000     1.3840460000    -0.3865000000
   34      O       2.5629020000     2.4361970000    -0.5900360000
   35      C       4.6288490000     1.2715180000    -0.7133850000
   36      C      -1.7936810000    -3.9842920000     2.9624750000
   37      C      -3.0636060000    -4.7192710000     2.6160930000
   38      O      -1.2460920000    -4.1001380000     4.0384820000
   39      H       4.6891620000     5.3726640000    -2.2655810000
   40      H       5.8191550000     4.3083110000    -3.1402380000
   41      H       6.2400950000     4.9240590000    -1.5121210000
   42      H       7.2941070000     2.9723320000    -2.0281860000
   43      H       8.4149100000     0.8525850000    -1.5269820000
   44      H       7.1314380000    -1.0319910000    -0.4982940000
   45      H       2.4564550000    -3.8610620000     1.6874830000
   46      H       0.6565650000    -3.2796190000     2.9283940000
   47      H       0.5647990000    -4.0440640000     1.3335390000
   48      H      -1.8856840000    -2.5906940000     0.1038650000
   49      H      -1.2236860000    -1.3734040000     3.2863100000
   50      H      -2.7067860000    -1.4903550000     2.3231860000
   51      H      -1.2409860000     0.4424920000     1.6768260000
   52      H      -2.2179560000     1.2934250000    -0.1135150000
   53      H      -2.4479240000     0.7267410000    -2.3745430000
   54      H      -3.0426830000    -0.8928520000    -2.0252400000
   55      H      -5.2531620000    -0.1946000000    -1.7270970000
   56      H      -4.2610720000     1.8326090000    -3.5801460000
   57      H      -5.7506890000     1.1506360000    -3.5659430000
   58      H      -5.9417870000     2.0914280000    -1.1074160000
   59      H      -4.2873150000     3.6161760000    -0.7454610000
   60      H      -5.7487570000     0.6667880000     0.6824300000
   61      H      -3.6686310000     2.7885050000     1.4444300000
   62      H      -4.6362000000     1.8065510000     2.5524820000
   63      H      -5.4310290000     3.0038040000     1.5233700000
   64      H       1.0893360000     2.1154090000    -0.1264380000
   65      H      -2.8730750000    -5.4106720000     1.7910040000
   66      H      -3.4177330000    -5.2596110000     3.4929030000
   67      H      -3.8254230000    -4.0243830000     2.2537090000
 ----------------------------------------------------------------

   17   -1853.8872672697      6.97e-06  Convergence criterion met
 Total energy in the final basis set =    -1853.8872672697

                    Orbital Energies (a.u.)
 --------------------------------------------------------------

 Alpha MOs
 -- Occupied --
-19.1709 -19.1706 -19.1557 -19.1512 -19.1319 -19.1318 -19.1299 -19.1293
-19.1283 -19.1211 -14.2955 -10.2864 -10.2789 -10.2756 -10.2740 -10.2656
-10.2644 -10.2620 -10.2517 -10.2462 -10.2266 -10.2239 -10.2234 -10.2160
-10.2088 -10.2078 -10.2073 -10.2065 -10.2058 -10.2046 -10.1972 -10.1922
-10.1918 -10.1860 -10.1843 -10.1713 -10.1676 -10.1600  -1.0933  -1.0895
 -1.0873  -1.0820  -1.0688  -1.0583  -1.0532  -1.0398  -1.0339  -1.0162
 -0.8928  -0.8912  -0.8809  -0.8429  -0.8019  -0.7940  -0.7820  -0.7748
 -0.7738  -0.7673  -0.7510  -0.7464  -0.7159  -0.7036  -0.6891  -0.6826
 -0.6652  -0.6483  -0.6345  -0.6204  -0.6176  -0.6127  -0.5916  -0.5896
 -0.5679  -0.5592  -0.5499  -0.5437  -0.5404  -0.5345  -0.5192  -0.5137
 -0.5116  -0.5053  -0.4986  -0.4931  -0.4911  -0.4853  -0.4830  -0.4790
 -0.4738  -0.4720  -0.4677  -0.4649  -0.4616  -0.4570  -0.4523  -0.4468
 -0.4444  -0.4416  -0.4351  -0.4273  -0.4266  -0.4241  -0.4179  -0.4132
 -0.4119  -0.4088  -0.4026  -0.3988  -0.3937  -0.3918  -0.3909  -0.3851
 -0.3836  -0.3833  -0.3813  -0.3792  -0.3767  -0.3716  -0.3682  -0.3643
 -0.3507  -0.3471  -0.3438  -0.3401  -0.3361  -0.3314  -0.3297  -0.3069
 -0.2980  -0.2873  -0.2819  -0.2817  -0.2751  -0.2668  -0.2655  -0.2618
 -0.2495  -0.2481  -0.2299

          Ground-State Mulliken Net Atomic Charges

     Atom                 Charge (a.u.)
  ----------------------------------------
      1 C                    -0.292621
      2 O                    -0.164893
      3 C                     0.140830
      4 C                    -0.107837
      5 C                    -0.445528
      6 C                    -0.013229
      7 C                     0.192758
      8 C                    -0.518502
      9 O                    -0.306723
     10 C                    -0.046160
     11 C                    -0.215671
     12 O                    -0.244609
     13 C                     0.183605
     14 C                    -0.914181
     15 C                     0.640436
     16 O                    -0.180707
     17 C                    -0.895156
     18 C                    -0.353173
     19 O                     0.167756
     20 C                    -0.583361
     21 C                    -0.558467
     22 C                    -0.447945
     23 N                    -0.368814
     24 C                    -0.190571
     25 O                    -0.267499
     26 C                     0.073394
     27 C                    -0.633525
     28 O                    -0.108219
     29 C                     0.536618
     30 C                    -0.312265
     31 O                    -0.378467
     32 C                     0.918389
     33 C                    -0.499536
     34 O                    -0.345044
     35 C                     0.185471
     36 C                     0.206024
     37 C                    -0.573335
     38 O                    -0.343273
     39 H                     0.211721
     40 H                     0.176785
     41 H                     0.177968
     42 H                     0.225067
     43 H                     0.237482
     44 H                     0.186278
     45 H                     0.371670
     46 H                     0.284837
     47 H                     0.248877
     48 H                     0.318243
     49 H                     0.227911
     50 H                     0.261346
     51 H                     0.297212
     52 H                     0.293322
     53 H                     0.222223
     54 H                     0.162180
     55 H                     0.233778
     56 H                     0.267843
     57 H                     0.277980
     58 H                     0.246761
     59 H                     0.310820
     60 H                     0.215875
     61 H                     0.186649
     62 H                     0.161984
     63 H                     0.179107
     64 H                     0.491067
     65 H                     0.202748
     66 H                     0.192465
     67 H                     0.193832
  ----------------------------------------
  Sum of atomic charges =     0.000000

                    Cartesian Multipole Moments
 -----------------------------------------------------------------
    Charge (ESU x 10^10)
                 0.0000
    Dipole Moment (Debye)
         X      -3.8819      Y       8.0173      Z      -1.2199
       Tot       8.9908
    Quadrupole Moments (Debye-Ang)
        XX    -158.9331     XY      18.1940     YY    -210.0474
        XZ     -23.6889     YZ      -2.8220     ZZ    -236.5663

 Total job time:  1423.16s(wall), 10325.13s(cpu)
        *  Thank you very much for using Q-Chem.  Have a nice day.  *
