 Q-Chem 5.4, Q-Chem, Inc., Pleasanton, CA (2021)
 Q-Chem 5.4.0 for Intel X86 EM64T Linux

User input:
--------------------------------------------------------------
$molecule
0 1
C                 -1.1483300000      0.3406510000     -2.9901310000
C                 -1.9905490000      0.8155620000     -1.8726550000
C                  0.3021540000      0.3717300000     -2.7094940000
C                  0.7820600000      0.4388360000     -1.4509210000
C                 -0.1990650000      0.2440400000     -0.3384690000
C                 -1.5233560000      0.8850430000     -0.6094600000
C                  0.0481730000     -0.5445570000      0.7576540000
C                 -0.9332520000     -0.7396730000      1.8697930000
C                  1.3725190000     -1.1852290000      1.0290200000
C                 -0.4538350000     -0.6725860000      3.1285370000
C                  1.8392620000     -1.1156400000      2.2923860000
C                  0.9965570000     -0.6410730000      3.4096320000
O                 -1.6009300000      0.1003050000     -4.1027220000
O                  1.4487440000     -0.4006880000      4.5223810000
C                  2.2132080000      0.8634770000     -1.1934930000
C                  2.3300650000      2.4015110000     -1.1145310000
C                  3.7670110000      2.8683130000     -0.8547510000
C                  3.8961460000      4.3925900000     -0.7835320000
C                  2.0855630000     -2.0247810000     -0.0109480000
C                  1.6137030000     -3.4943850000      0.0443360000
C                  2.3128800000     -4.3751000000     -0.9975940000
C                  1.8587530000     -5.8366920000     -0.9455160000
C                 -2.3640870000     -1.1649490000      1.6116790000
C                 -2.4796700000     -2.7028960000      1.5293400000
C                 -3.9163470000     -3.1703340000      1.2692150000
C                 -4.0442060000     -4.6945520000      1.1945230000
C                 -2.2355610000      1.7250210000      0.4306670000
C                 -1.7587140000      3.1931460000      0.3790810000
C                 -2.4576480000      4.0743770000      1.4207460000
C                 -1.9983530000      5.5344860000      1.3725640000
H                 -2.9687910000      1.2023990000     -2.1406080000
H                  0.9559260000      0.4425130000     -3.5731890000
H                 -1.1078720000     -0.7437790000      3.9919940000
H                  2.8175850000     -1.5020790000      2.5606320000
H                  2.8512040000      0.4994020000     -2.0051240000
H                  2.6007620000      0.4501280000     -0.2634080000
H                  1.6772330000      2.7751970000     -0.3170130000
H                  1.9606980000      2.8402620000     -2.0479670000
H                  4.4200080000      2.4826140000     -1.6470570000
H                  4.1279790000      2.4262800000      0.0814080000
H                  3.5734800000      4.8616470000     -1.7181780000
H                  4.9306890000      4.6948630000     -0.6002360000
H                  3.2824250000      4.8047470000      0.0233830000
H                  3.1643250000     -1.9903860000      0.1718570000
H                  1.9138620000     -1.6555910000     -1.0210750000
H                  0.5298080000     -3.5343330000     -0.1151230000
H                  1.7936780000     -3.8938340000      1.0484770000
H                  3.3975760000     -4.3234470000     -0.8436980000
H                  2.1263090000     -3.9693720000     -1.9989260000
H                  2.0625400000     -6.2802910000      0.0339690000
H                  2.3754380000     -6.4396010000     -1.6970340000
H                  0.7839400000     -5.9242610000     -1.1319460000
H                 -2.7522340000     -0.7498990000      0.6825910000
H                 -3.0021710000     -0.8031730000      2.4242700000
H                 -2.1094700000     -3.1434340000      2.4616040000
H                 -1.8269380000     -3.0742090000      0.7306230000
H                 -4.2781750000     -2.7264410000      0.3342700000
H                 -4.5692640000     -2.7870380000      2.0627500000
H                 -3.4305920000     -5.1042980000      0.3862990000
H                 -5.0785920000     -4.9972900000      1.0111050000
H                 -3.7206090000     -5.1655040000      2.1278930000
H                 -2.0672780000      1.3535430000      1.4405280000
H                 -3.3140280000      1.6944760000      0.2454500000
H                 -1.9348090000      3.5949280000     -0.6248200000
H                 -0.6751160000      3.2292090000      0.5414550000
H                 -2.2751420000      3.6661830000      2.4218250000
H                 -3.5420960000      4.0267400000      1.2638560000
H                 -0.9237640000      5.6180080000      1.5621130000
H                 -2.5150260000      6.1378160000      2.1237530000
H                 -2.1979200000      5.9805530000      0.3933300000
$end
$rem
MAX_SCF_CYCLES=200
BASIS  =  6-311++G(d,p)
GUI  =  2
JOB_TYPE  =  SP
METHOD  =  B3LYP
SCF_ALGORITHM = DIIS_GDM
THRESH = 14
SOLVENT_METHOD = PCM
$end
$pcm
theory = CPCM
$end
$solvent
dielectric 37.219
opticaldielectric 1.43
$end

--------------------------------------------------------------

             Standard Nuclear Orientation (Angstroms)
    I     Atom           X                Y                Z
 ----------------------------------------------------------------
    1      C      -1.1483300000     0.3406510000    -2.9901310000
    2      C      -1.9905490000     0.8155620000    -1.8726550000
    3      C       0.3021540000     0.3717300000    -2.7094940000
    4      C       0.7820600000     0.4388360000    -1.4509210000
    5      C      -0.1990650000     0.2440400000    -0.3384690000
    6      C      -1.5233560000     0.8850430000    -0.6094600000
    7      C       0.0481730000    -0.5445570000     0.7576540000
    8      C      -0.9332520000    -0.7396730000     1.8697930000
    9      C       1.3725190000    -1.1852290000     1.0290200000
   10      C      -0.4538350000    -0.6725860000     3.1285370000
   11      C       1.8392620000    -1.1156400000     2.2923860000
   12      C       0.9965570000    -0.6410730000     3.4096320000
   13      O      -1.6009300000     0.1003050000    -4.1027220000
   14      O       1.4487440000    -0.4006880000     4.5223810000
   15      C       2.2132080000     0.8634770000    -1.1934930000
   16      C       2.3300650000     2.4015110000    -1.1145310000
   17      C       3.7670110000     2.8683130000    -0.8547510000
   18      C       3.8961460000     4.3925900000    -0.7835320000
   19      C       2.0855630000    -2.0247810000    -0.0109480000
   20      C       1.6137030000    -3.4943850000     0.0443360000
   21      C       2.3128800000    -4.3751000000    -0.9975940000
   22      C       1.8587530000    -5.8366920000    -0.9455160000
   23      C      -2.3640870000    -1.1649490000     1.6116790000
   24      C      -2.4796700000    -2.7028960000     1.5293400000
   25      C      -3.9163470000    -3.1703340000     1.2692150000
   26      C      -4.0442060000    -4.6945520000     1.1945230000
   27      C      -2.2355610000     1.7250210000     0.4306670000
   28      C      -1.7587140000     3.1931460000     0.3790810000
   29      C      -2.4576480000     4.0743770000     1.4207460000
   30      C      -1.9983530000     5.5344860000     1.3725640000
   31      H      -2.9687910000     1.2023990000    -2.1406080000
   32      H       0.9559260000     0.4425130000    -3.5731890000
   33      H      -1.1078720000    -0.7437790000     3.9919940000
   34      H       2.8175850000    -1.5020790000     2.5606320000
   35      H       2.8512040000     0.4994020000    -2.0051240000
   36      H       2.6007620000     0.4501280000    -0.2634080000
   37      H       1.6772330000     2.7751970000    -0.3170130000
   38      H       1.9606980000     2.8402620000    -2.0479670000
   39      H       4.4200080000     2.4826140000    -1.6470570000
   40      H       4.1279790000     2.4262800000     0.0814080000
   41      H       3.5734800000     4.8616470000    -1.7181780000
   42      H       4.9306890000     4.6948630000    -0.6002360000
   43      H       3.2824250000     4.8047470000     0.0233830000
   44      H       3.1643250000    -1.9903860000     0.1718570000
   45      H       1.9138620000    -1.6555910000    -1.0210750000
   46      H       0.5298080000    -3.5343330000    -0.1151230000
   47      H       1.7936780000    -3.8938340000     1.0484770000
   48      H       3.3975760000    -4.3234470000    -0.8436980000
   49      H       2.1263090000    -3.9693720000    -1.9989260000
   50      H       2.0625400000    -6.2802910000     0.0339690000
   51      H       2.3754380000    -6.4396010000    -1.6970340000
   52      H       0.7839400000    -5.9242610000    -1.1319460000
   53      H      -2.7522340000    -0.7498990000     0.6825910000
   54      H      -3.0021710000    -0.8031730000     2.4242700000
   55      H      -2.1094700000    -3.1434340000     2.4616040000
   56      H      -1.8269380000    -3.0742090000     0.7306230000
   57      H      -4.2781750000    -2.7264410000     0.3342700000
   58      H      -4.5692640000    -2.7870380000     2.0627500000
   59      H      -3.4305920000    -5.1042980000     0.3862990000
   60      H      -5.0785920000    -4.9972900000     1.0111050000
   61      H      -3.7206090000    -5.1655040000     2.1278930000
   62      H      -2.0672780000     1.3535430000     1.4405280000
   63      H      -3.3140280000     1.6944760000     0.2454500000
   64      H      -1.9348090000     3.5949280000    -0.6248200000
   65      H      -0.6751160000     3.2292090000     0.5414550000
   66      H      -2.2751420000     3.6661830000     2.4218250000
   67      H      -3.5420960000     4.0267400000     1.2638560000
   68      H      -0.9237640000     5.6180080000     1.5621130000
   69      H      -2.5150260000     6.1378160000     2.1237530000
   70      H      -2.1979200000     5.9805530000     0.3933300000
 ----------------------------------------------------------------

   13   -1241.8253980743      8.78e-06  Convergence criterion met
 Total energy in the final basis set =    -1241.8253980743

                    Orbital Energies (a.u.)
 --------------------------------------------------------------

 Alpha MOs
 -- Occupied --
-19.1183 -19.1183 -10.2654 -10.2654 -10.2219 -10.2213 -10.2133 -10.2133
-10.2132 -10.2132 -10.1794 -10.1794 -10.1793 -10.1793 -10.1773 -10.1773
-10.1773 -10.1773 -10.1674 -10.1674 -10.1673 -10.1673 -10.1632 -10.1632
-10.1631 -10.1631 -10.1541 -10.1541 -10.1541 -10.1541  -1.0491  -1.0491
 -0.8944  -0.8613  -0.8269  -0.8161  -0.7978  -0.7958  -0.7777  -0.7747
 -0.7719  -0.7377  -0.7366  -0.7156  -0.7149  -0.6844  -0.6562  -0.6538
 -0.6406  -0.6362  -0.5975  -0.5921  -0.5849  -0.5842  -0.5819  -0.5786
 -0.5691  -0.5664  -0.5330  -0.5174  -0.4884  -0.4821  -0.4756  -0.4712
 -0.4693  -0.4641  -0.4559  -0.4517  -0.4452  -0.4433  -0.4420  -0.4384
 -0.4320  -0.4314  -0.4249  -0.4227  -0.4213  -0.4156  -0.4133  -0.4097
 -0.4083  -0.4044  -0.3938  -0.3905  -0.3865  -0.3864  -0.3809  -0.3791
 -0.3633  -0.3604  -0.3580  -0.3576  -0.3515  -0.3455  -0.3436  -0.3429
 -0.3353  -0.3348  -0.3321  -0.3319  -0.3307  -0.3280  -0.3275  -0.3269
 -0.3232  -0.3190  -0.2920  -0.2693  -0.2681  -0.2575  -0.2524  -0.2453

          Ground-State Mulliken Net Atomic Charges

     Atom                 Charge (a.u.)
  ----------------------------------------
      1 C                    -0.508637
      2 C                    -0.302670
      3 C                    -0.302837
      4 C                     1.164903
      5 C                    -0.003046
      6 C                     1.157494
      7 C                    -0.002582
      8 C                     1.167854
      9 C                     1.155435
     10 C                    -0.304251
     11 C                    -0.301663
     12 C                    -0.508613
     13 O                    -0.370879
     14 O                    -0.370870
     15 C                    -0.470534
     16 C                    -0.640044
     17 C                    -0.239524
     18 C                    -0.674823
     19 C                    -0.470287
     20 C                    -0.640809
     21 C                    -0.237239
     22 C                    -0.674742
     23 C                    -0.473360
     24 C                    -0.638145
     25 C                    -0.241165
     26 C                    -0.674663
     27 C                    -0.473961
     28 C                    -0.636790
     29 C                    -0.239713
     30 C                    -0.674319
     31 H                     0.239865
     32 H                     0.240180
     33 H                     0.240127
     34 H                     0.239935
     35 H                     0.224100
     36 H                     0.151108
     37 H                     0.051457
     38 H                     0.198313
     39 H                     0.157525
     40 H                     0.135200
     41 H                     0.144696
     42 H                     0.156030
     43 H                     0.151355
     44 H                     0.224421
     45 H                     0.147827
     46 H                     0.048587
     47 H                     0.198251
     48 H                     0.157228
     49 H                     0.135612
     50 H                     0.144653
     51 H                     0.156030
     52 H                     0.151396
     53 H                     0.151693
     54 H                     0.223845
     55 H                     0.198461
     56 H                     0.052423
     57 H                     0.135093
     58 H                     0.157591
     59 H                     0.151411
     60 H                     0.156014
     61 H                     0.144677
     62 H                     0.148399
     63 H                     0.224063
     64 H                     0.198549
     65 H                     0.049437
     66 H                     0.135469
     67 H                     0.157322
     68 H                     0.151492
     69 H                     0.156016
     70 H                     0.144627
  ----------------------------------------
  Sum of atomic charges =     0.000000

                    Cartesian Multipole Moments
 -----------------------------------------------------------------
    Charge (ESU x 10^10)
                -0.0000
    Dipole Moment (Debye)
         X       0.0045      Y      -0.0008      Z      -0.0014
       Tot       0.0048
    Quadrupole Moments (Debye-Ang)
        XX    -177.4218     XY      -3.5287     YY    -179.2042
        XZ     -29.5714     YZ      -2.6556     ZZ    -245.5902

 Total job time:  1148.00s(wall), 8156.81s(cpu)
        *  Thank you very much for using Q-Chem.  Have a nice day.  *
