 Gaussian 16, Revision A.03,
 Gaussian 16:  ES64L-G16RevA.03 25-Dec-2016

 ----------------------------------------------------------------------
 #P UB3LYP/6-311++G(d,p) nosym opt freq SCRF=(PCM,Solvent=n,n-DiMethylF
 ormamide)
 ----------------------------------------------------------------------

 --------
 Oxidized
 --------
 Symbolic Z-matrix:
 Charge =  0 Multiplicity = 1

 SCF Done:  E(UB3LYP) =  -988.876688300     A.U. after   17 cycles
 SCF Done:  E(UB3LYP) =  -988.876917721     A.U. after   13 cycles
 SCF Done:  E(UB3LYP) =  -988.876869015     A.U. after   13 cycles
 SCF Done:  E(UB3LYP) =  -988.876969410     A.U. after   12 cycles
 SCF Done:  E(UB3LYP) =  -988.877025012     A.U. after   12 cycles
 SCF Done:  E(UB3LYP) =  -988.877040572     A.U. after   12 cycles
 SCF Done:  E(UB3LYP) =  -988.877057847     A.U. after   12 cycles
 SCF Done:  E(UB3LYP) =  -988.877063155     A.U. after   12 cycles
 SCF Done:  E(UB3LYP) =  -988.877064774     A.U. after   12 cycles
 SCF Done:  E(UB3LYP) =  -988.877065374     A.U. after   11 cycles
 SCF Done:  E(UB3LYP) =  -988.877065498     A.U. after   10 cycles
 Optimization completed.
    -- Stationary point found.
 Normal termination of Gaussian 16 at Sun Feb 11 00:51:48 2024.

 ----------------------------------------------------------------------
 #P Geom=AllCheck Guess=TCheck SCRF=Check GenChk UB3LYP/6-311++G(d,p) F
 req
 ----------------------------------------------------------------------

 Structure from the checkpoint file:  "270.chk"
 --------
 Oxidized
 --------
 Charge =  0 Multiplicity = 1

                          Input orientation:
 ---------------------------------------------------------------------
 Center     Atomic      Atomic             Coordinates (Angstroms)
 Number     Number       Type             X           Y           Z
 ---------------------------------------------------------------------
      1          6           0       -0.996885    3.995652   -0.117056
      2          6           0       -2.245470    3.381584   -0.172949
      3          6           0       -2.336215    1.989455   -0.189695
      4          6           0        0.162391    3.217217   -0.075089
      5          6           0        0.072390    1.815489   -0.088330
      6          6           0       -1.180880    1.208985   -0.149458
      7          6           0        1.486460    3.871343   -0.034261
      8          6           0        2.711944    2.996845    0.015785
      9          6           0        2.596181    1.629962    0.081007
     10          6           0        1.304111    0.964295   -0.030323
     11          8           0        1.629321    5.085582   -0.056386
     12          8           0        1.213887   -0.262565   -0.078503
     13          7           0        3.871463    3.684090    0.035353
     14         16           0        4.006782    0.543229    0.197113
     15          1           0       -0.908596    5.074734   -0.108193
     16          1           0       -3.144168    3.985809   -0.205190
     17          1           0       -3.307328    1.510528   -0.234002
     18          1           0       -1.240397    0.128274   -0.161806
     19          1           0        3.817339    4.684106   -0.101355
     20          1           0        4.749362    3.228703   -0.160135
     21          1           0        4.763455    1.353843    0.967052
 ---------------------------------------------------------------------

 SCF Done:  E(UB3LYP) =  -988.877065498     A.U. after    1 cycles

 Alpha  occ. eigenvalues --  -88.87098 -19.14629 -19.12455 -14.35685 -10.29581
 Alpha  occ. eigenvalues --  -10.28067 -10.25995 -10.22418 -10.21167 -10.21116
 Alpha  occ. eigenvalues --  -10.20181 -10.20050 -10.19857 -10.19840  -7.95739
 Alpha  occ. eigenvalues --   -5.92105  -5.91748  -5.91148  -1.08112  -1.05695
 Alpha  occ. eigenvalues --   -0.96024  -0.89247  -0.83727  -0.79378  -0.78085
 Alpha  occ. eigenvalues --   -0.74034  -0.69338  -0.65063  -0.63580  -0.59975
 Alpha  occ. eigenvalues --   -0.58096  -0.55027  -0.52013  -0.50861  -0.49307
 Alpha  occ. eigenvalues --   -0.46935  -0.46573  -0.45636  -0.45382  -0.44302
 Alpha  occ. eigenvalues --   -0.43353  -0.42249  -0.39720  -0.38487  -0.37611
 Alpha  occ. eigenvalues --   -0.36973  -0.36226  -0.30243  -0.29548  -0.28780
 Alpha  occ. eigenvalues --   -0.28084  -0.27913  -0.23046
 Alpha virt. eigenvalues --   -0.12427  -0.05651  -0.02739  -0.01414  -0.00112
 Alpha virt. eigenvalues --    0.01029   0.01313   0.02034   0.02250   0.02458
 Alpha virt. eigenvalues --    0.03786   0.04110   0.04728   0.05061   0.05592

  Beta  occ. eigenvalues --  -88.87098 -19.14629 -19.12455 -14.35685 -10.29581
  Beta  occ. eigenvalues --  -10.28067 -10.25995 -10.22418 -10.21167 -10.21116
  Beta  occ. eigenvalues --  -10.20181 -10.20050 -10.19857 -10.19840  -7.95739
  Beta  occ. eigenvalues --   -5.92105  -5.91748  -5.91148  -1.08112  -1.05695
  Beta  occ. eigenvalues --   -0.96024  -0.89247  -0.83727  -0.79378  -0.78085
  Beta  occ. eigenvalues --   -0.74034  -0.69338  -0.65063  -0.63580  -0.59975
  Beta  occ. eigenvalues --   -0.58096  -0.55027  -0.52013  -0.50861  -0.49307
  Beta  occ. eigenvalues --   -0.46935  -0.46573  -0.45636  -0.45382  -0.44302
  Beta  occ. eigenvalues --   -0.43353  -0.42249  -0.39720  -0.38487  -0.37611
  Beta  occ. eigenvalues --   -0.36973  -0.36226  -0.30243  -0.29548  -0.28780
  Beta  occ. eigenvalues --   -0.28084  -0.27913  -0.23046
  Beta virt. eigenvalues --   -0.12427  -0.05651  -0.02739  -0.01414  -0.00112
  Beta virt. eigenvalues --    0.01029   0.01313   0.02034   0.02250   0.02458
  Beta virt. eigenvalues --    0.03786   0.04110   0.04728   0.05061   0.05592

 Mulliken charges and spin densities:
               1          2
     1  C    0.111805   0.000000
     2  C   -0.342220   0.000000
     3  C   -0.352653  -0.000000
     4  C    0.394949  -0.000000
     5  C    0.580217  -0.000000
     6  C    0.190916   0.000000
     7  C   -1.211628   0.000000
     8  C   -0.044165  -0.000000
     9  C    1.956002  -0.000000
    10  C   -1.390810   0.000000
    11  O   -0.285883   0.000000
    12  O   -0.285668   0.000000
    13  N   -0.320467   0.000000
    14  S   -0.478133   0.000000
    15  H    0.183523  -0.000000
    16  H    0.212216  -0.000000
    17  H    0.213129  -0.000000
    18  H    0.181867  -0.000000
    19  H    0.314974  -0.000000
    20  H    0.288393  -0.000000
    21  H    0.083632   0.000000
 Sum of Mulliken charges =  -0.00000  -0.00000

 Dipole moment (field-independent basis, Debye):
    X=              0.0225    Y=              4.0402    Z=              0.0250  Tot=              4.0403
 Quadrupole moment (field-independent basis, Debye-Ang):
   XX=            -58.5966   YY=            -86.2168   ZZ=            -90.2843
   XY=             10.4366   XZ=              1.9866   YZ=             -0.8712

  Exact polarizability: 287.731   1.011 291.209   9.666  -2.710 109.504
 Approx polarizability: 309.373  20.357 391.004  10.881   0.076 126.983

                      1                      2                      3
                      A                      A                      A
 Frequencies --     55.1676                87.4337               115.8398
 Red. masses --      9.2351                 5.1679                 3.1126
 Frc consts  --      0.0166                 0.0233                 0.0246
 IR Inten    --     11.6541                13.3444                12.9306

                      4                      5                      6
                      A                      A                      A
 Frequencies --    122.8095               168.5478               231.0650
 Red. masses --      3.2921                 6.7603                 2.4545
 Frc consts  --      0.0293                 0.1132                 0.0772
 IR Inten    --     13.1778                 0.9894                48.5865

                      7                      8                      9
                      A                      A                      A
 Frequencies --    270.3129               275.5162               305.3219
 Red. masses --      6.4978                 2.9647                 4.8746
 Frc consts  --      0.2797                 0.1326                 0.2677
 IR Inten    --      7.9661                76.1019                 4.9761

                     10                     11                     12
                      A                      A                      A
 Frequencies --    364.6793               386.6549               401.4008
 Red. masses --      3.7483                 2.9696                 3.1669
 Frc consts  --      0.2937                 0.2616                 0.3006
 IR Inten    --     64.8123                64.1811                78.2367

                     13                     14                     15
                      A                      A                      A
 Frequencies --    417.2667               424.1018               450.3698
 Red. masses --      3.9898                 2.8306                 4.4310
 Frc consts  --      0.4093                 0.3000                 0.5295
 IR Inten    --     79.6394                41.4341                32.1389

                     16                     17                     18
                      A                      A                      A
 Frequencies --    496.9716               527.5229               588.9531
 Red. masses --     10.3528                 1.9417                 2.7361
 Frc consts  --      1.5065                 0.3184                 0.5592
 IR Inten    --      3.2808                46.0635                 6.5759

                     19                     20                     21
                      A                      A                      A
 Frequencies --    592.9029               669.4779               691.7485
 Red. masses --      3.0552                 6.5701                 4.4316
 Frc consts  --      0.6328                 1.7350                 1.2494
 IR Inten    --     10.5966                10.7871                20.6233

                     22                     23                     24
                      A                      A                      A
 Frequencies --    698.6611               733.6750               780.8219
 Red. masses --      4.9586                 2.5552                 5.0721
 Frc consts  --      1.4261                 0.8104                 1.8220
 IR Inten    --      2.7442                83.7391                 6.3497

                     25                     26                     27
                      A                      A                      A
 Frequencies --    806.3170               816.3833               831.3568
 Red. masses --      2.1881                 4.2651                 3.8242
 Frc consts  --      0.8382                 1.6748                 1.5573
 IR Inten    --     26.5868                23.4672                58.6544

                     28                     29                     30
                      A                      A                      A
 Frequencies --    911.8018               946.7811               997.4235
 Red. masses --      1.3606                 1.4040                 1.3876
 Frc consts  --      0.6665                 0.7415                 0.8133
 IR Inten    --      0.0750                 8.7543                 2.3371

                     31                     32                     33
                      A                      A                      A
 Frequencies --   1013.8386              1021.1830              1057.6038
 Red. masses --      4.7068                 1.3317                 2.0274
 Frc consts  --      2.8504                 0.8182                 1.3361
 IR Inten    --    149.2327                 0.0800                25.1688

                     34                     35                     36
                      A                      A                      A
 Frequencies --   1095.3025              1123.0747              1178.6786
 Red. masses --      2.6927                 1.8310                 1.1657
 Frc consts  --      1.9033                 1.3607                 0.9542
 IR Inten    --     48.1200                76.0353                14.6541

                     37                     38                     39
                      A                      A                      A
 Frequencies --   1193.1661              1240.5930              1287.4759
 Red. masses --      2.4099                 2.3394                 2.6969
 Frc consts  --      2.0214                 2.1213                 2.6339
 IR Inten    --     14.9069                99.7696               490.1669

                     40                     41                     42
                      A                      A                      A
 Frequencies --   1321.8625              1359.1047              1372.5047
 Red. masses --      3.4848                 5.6084                 5.5356
 Frc consts  --      3.5876                 6.1037                 6.1438
 IR Inten    --    147.1958               221.8669               411.5459

                     43                     44                     45
                      A                      A                      A
 Frequencies --   1481.5885              1504.6161              1580.6113
 Red. masses --      2.3500                 2.7087                 2.5352
 Frc consts  --      3.0392                 3.6130                 3.7317
 IR Inten    --      4.0731                30.2409               112.6626

                     46                     47                     48
                      A                      A                      A
 Frequencies --   1598.5002              1619.9357              1628.0053
 Red. masses --      2.4441                 5.4536                 4.8452
 Frc consts  --      3.6795                 8.4320                 7.5662
 IR Inten    --   1481.6822               137.4856               313.8797

                     49                     50                     51
                      A                      A                      A
 Frequencies --   1663.3726              1702.5970              2647.9127
 Red. masses --      9.9014                 7.9218                 1.0386
 Frc consts  --     16.1408                13.5299                 4.2907
 IR Inten    --    115.7705               360.3276                 2.2258

                     52                     53                     54
                      A                      A                      A
 Frequencies --   3179.4188              3191.6170              3203.0213
 Red. masses --      1.0875                 1.0912                 1.0934
 Frc consts  --      6.4767                 6.5492                 6.6090
 IR Inten    --      3.7588                 9.5585                 5.8694

                     55                     56                     57
                      A                      A                      A
 Frequencies --   3206.9134              3561.4352              3681.8292
 Red. masses --      1.0950                 1.0463                 1.1036
 Frc consts  --      6.6348                 7.8189                 8.8140
 IR Inten    --     14.9594               203.3242               120.6685

 - Thermochemistry -
 -------------------
 Temperature   298.150 Kelvin.  Pressure   1.00000 Atm.
 Atom     1 has atomic number  6 and mass  12.00000

 Molecular mass:   205.01975 amu.
 Principal axes and moments of inertia in atomic units:
                           1         2         3
     Eigenvalues --  1718.246333487.672695197.88584
           X            0.96017   0.27463  -0.05156
           Y           -0.27425   0.96155   0.01440
           Z            0.05353   0.00031   0.99857
 This molecule is an asymmetric top.
 Rotational symmetry number  1.
 Warning -- assumption of classical behavior for rotation
           may cause significant error
 Rotational temperatures (Kelvin)      0.05041     0.02483     0.01666
 Rotational constants (GHZ):           1.05034     0.51746     0.34721
 Zero-point vibrational energy     388086.8 (Joules/Mol)
                                   92.75497 (Kcal/Mol)
 Warning -- explicit consideration of  19 degrees of freedom as
           vibrations may cause significant error
 Vibrational temperatures:     79.37   125.80   166.67   176.70   242.50
          (Kelvin)            332.45   388.92   396.41   439.29   524.69
                              556.31   577.53   600.35   610.19   647.98
                              715.03   758.99   847.37   853.06   963.23
                              995.27  1005.22  1055.59  1123.43  1160.11
                             1174.59  1196.14  1311.88  1362.21  1435.07
                             1458.69  1469.25  1521.66  1575.90  1615.85
                             1695.86  1716.70  1784.94  1852.39  1901.87
                             1955.45  1974.73  2131.68  2164.81  2274.15
                             2299.89  2330.73  2342.34  2393.22  2449.66
                             3809.76  4574.47  4592.03  4608.43  4614.03
                             5124.11  5297.33

 Zero-point correction=                           0.147814 (Hartree/Particle)
 Thermal correction to Energy=                    0.159811
 Thermal correction to Enthalpy=                  0.160756
 Thermal correction to Gibbs Free Energy=         0.109456
 Sum of electronic and zero-point Energies=           -988.729251
 Sum of electronic and thermal Energies=              -988.717254
 Sum of electronic and thermal Enthalpies=            -988.716310
 Sum of electronic and thermal Free Energies=         -988.767610

                     E (Thermal)             CV                S
                      KCal/Mol        Cal/Mol-Kelvin    Cal/Mol-Kelvin
 Total                  100.283             46.155            107.969
 Electronic               0.000              0.000              0.000
 Translational            0.889              2.981             41.858
 Rotational               0.889              2.981             31.810
 Vibrational             98.506             40.194             34.301
 Vibration     1          0.596              1.976              4.623
 Vibration     2          0.601              1.958              3.717
 Vibration     3          0.608              1.936              3.169
 Vibration     4          0.610              1.930              3.056
 Vibration     5          0.625              1.881              2.452
 Vibration     6          0.653              1.794              1.871
 Vibration     7          0.674              1.728              1.594
 Vibration     8          0.677              1.719              1.561
 Vibration     9          0.696              1.664              1.388
 Vibration    10          0.738              1.545              1.102
 Vibration    11          0.755              1.499              1.013
 Vibration    12          0.767              1.467              0.958
 Vibration    13          0.780              1.433              0.901
 Vibration    14          0.786              1.418              0.878
 Vibration    15          0.809              1.360              0.795
 Vibration    16          0.852              1.257              0.666
 Vibration    17          0.882              1.189              0.593
 Vibration    18          0.946              1.055              0.469
 Vibration    19          0.950              1.047              0.462

 Optimization completed.
    -- Stationary point found.
 Normal termination of Gaussian 16 at Sun Feb 11 01:17:51 2024.
