 Gaussian 16, Revision A.03,
 Gaussian 16:  ES64L-G16RevA.03 25-Dec-2016

 ----------------------------------------------------------------------
 #P UB3LYP/6-311++G(d,p) nosym opt freq SCRF=(PCM,Solvent=n,n-DiMethylF
 ormamide)
 ----------------------------------------------------------------------

 -------
 Reduced
 -------
 Symbolic Z-matrix:
 Charge = -2 Multiplicity = 1

 SCF Done:  E(UB3LYP) =  -3112.66973830     A.U. after   18 cycles
 SCF Done:  E(UB3LYP) =  -3112.67042539     A.U. after   13 cycles
 SCF Done:  E(UB3LYP) =  -3112.67065024     A.U. after   13 cycles
 SCF Done:  E(UB3LYP) =  -3112.67023335     A.U. after   13 cycles
 SCF Done:  E(UB3LYP) =  -3112.67082166     A.U. after   11 cycles
 SCF Done:  E(UB3LYP) =  -3112.67083519     A.U. after   12 cycles
 SCF Done:  E(UB3LYP) =  -3112.67083594     A.U. after   10 cycles
 SCF Done:  E(UB3LYP) =  -3112.67083709     A.U. after   10 cycles
 Optimization completed.
    -- Stationary point found.
 Normal termination of Gaussian 16 at Sat Feb 10 10:52:09 2024.

 ----------------------------------------------------------------------
 #P Geom=AllCheck Guess=TCheck SCRF=Check GenChk UB3LYP/6-311++G(d,p) F
 req
 ----------------------------------------------------------------------

 Structure from the checkpoint file:  "004-an.chk"
 -------
 Reduced
 -------
 Charge = -2 Multiplicity = 1

                          Input orientation:
 ---------------------------------------------------------------------
 Center     Atomic      Atomic             Coordinates (Angstroms)
 Number     Number       Type             X           Y           Z
 ---------------------------------------------------------------------
      1          6           0       -1.223780    1.969114   -0.437691
      2          6           0       -2.461016    1.247206   -0.420936
      3          6           0       -2.661645   -0.069368    0.007686
      4          6           0       -1.537030   -0.836273    0.501293
      5          6           0       -0.294057   -0.144342    0.496468
      6          6           0       -0.163858    1.172692    0.051696
      7         35           0        1.634473    1.970568    0.114337
      8          6           0       -4.065277   -0.709946   -0.050944
      9          6           0       -5.149079    0.242016   -0.594375
     10          6           0       -4.503739   -1.145060    1.368043
     11          6           0       -4.030903   -1.947342   -0.979907
     12          8           0       -1.130458    3.202923   -0.859639
     13          8           0       -1.616386   -2.073842    0.927034
     14          1           0       -3.306285    1.818324   -0.790097
     15          1           0        0.578130   -0.680070    0.856767
     16          1           0       -5.263748    1.133803    0.028887
     17          1           0       -6.112556   -0.278157   -0.608198
     18          1           0       -4.935326    0.568439   -1.616363
     19          1           0       -4.599604   -0.272594    2.023586
     20          1           0       -3.767457   -1.825264    1.796388
     21          1           0       -5.478754   -1.646087    1.333212
     22          1           0       -3.800696   -1.647433   -2.008033
     23          1           0       -5.005017   -2.451210   -0.988453
     24          1           0       -3.269175   -2.649744   -0.641253
 ---------------------------------------------------------------------

 SCF Done:  E(UB3LYP) =  -3112.67083709     A.U. after    1 cycles

 Alpha  occ. eigenvalues -- -482.80001 -62.45285 -56.27273 -56.26960 -56.26943
 Alpha  occ. eigenvalues --  -19.01490 -19.00769 -10.17417 -10.17363 -10.16906
 Alpha  occ. eigenvalues --  -10.16451 -10.14058 -10.13326 -10.13293 -10.13276
 Alpha  occ. eigenvalues --  -10.12537 -10.12294  -8.66238  -6.49225  -6.48180
 Alpha  occ. eigenvalues --   -6.48133  -2.60345  -2.60052  -2.60017  -2.59187
 Alpha  occ. eigenvalues --   -2.59187  -0.92392  -0.91665  -0.80547  -0.78992
 Alpha  occ. eigenvalues --   -0.74675  -0.68269  -0.66685  -0.66283  -0.64598
 Alpha  occ. eigenvalues --   -0.56714  -0.54106  -0.49481  -0.44299  -0.44072
 Alpha  occ. eigenvalues --   -0.41870  -0.40859  -0.40211  -0.39617  -0.37885
 Alpha  occ. eigenvalues --   -0.36075  -0.35506  -0.35244  -0.34665  -0.33582
 Alpha  occ. eigenvalues --   -0.32171  -0.31479  -0.30528  -0.30134  -0.29870
 Alpha  occ. eigenvalues --   -0.28488  -0.26719  -0.21951  -0.20647  -0.19641
 Alpha  occ. eigenvalues --   -0.18632  -0.11971
 Alpha virt. eigenvalues --    0.00022   0.00356   0.01560   0.01753   0.01885
 Alpha virt. eigenvalues --    0.02371   0.03221   0.03834   0.04413   0.04696
 Alpha virt. eigenvalues --    0.05411   0.05827   0.06142   0.06551   0.06902

  Beta  occ. eigenvalues -- -482.80001 -62.45285 -56.27273 -56.26960 -56.26943
  Beta  occ. eigenvalues --  -19.01490 -19.00769 -10.17417 -10.17363 -10.16906
  Beta  occ. eigenvalues --  -10.16451 -10.14058 -10.13326 -10.13293 -10.13276
  Beta  occ. eigenvalues --  -10.12537 -10.12294  -8.66238  -6.49225  -6.48180
  Beta  occ. eigenvalues --   -6.48133  -2.60345  -2.60052  -2.60017  -2.59187
  Beta  occ. eigenvalues --   -2.59187  -0.92392  -0.91665  -0.80547  -0.78992
  Beta  occ. eigenvalues --   -0.74675  -0.68269  -0.66685  -0.66283  -0.64598
  Beta  occ. eigenvalues --   -0.56714  -0.54106  -0.49481  -0.44299  -0.44072
  Beta  occ. eigenvalues --   -0.41870  -0.40859  -0.40211  -0.39617  -0.37885
  Beta  occ. eigenvalues --   -0.36075  -0.35506  -0.35244  -0.34665  -0.33582
  Beta  occ. eigenvalues --   -0.32171  -0.31479  -0.30528  -0.30134  -0.29870
  Beta  occ. eigenvalues --   -0.28488  -0.26719  -0.21951  -0.20647  -0.19641
  Beta  occ. eigenvalues --   -0.18632  -0.11971
  Beta virt. eigenvalues --    0.00022   0.00356   0.01560   0.01753   0.01885
  Beta virt. eigenvalues --    0.02371   0.03221   0.03834   0.04413   0.04696
  Beta virt. eigenvalues --    0.05411   0.05827   0.06142   0.06551   0.06902

 Mulliken charges and spin densities:
               1          2
     1  C   -0.742803  -0.000000
     2  C   -0.415906   0.000000
     3  C    0.962583  -0.000000
     4  C   -0.792905   0.000000
     5  C   -0.404964  -0.000000
     6  C    0.655915  -0.000000
     7  Br  -0.275209   0.000000
     8  C    0.673488   0.000000
     9  C   -0.522877   0.000000
    10  C   -0.676191  -0.000000
    11  C   -0.681118  -0.000000
    12  O   -0.706056   0.000000
    13  O   -0.673510  -0.000000
    14  H    0.158453   0.000000
    15  H    0.174684  -0.000000
    16  H    0.125058  -0.000000
    17  H    0.159311   0.000000
    18  H    0.124502   0.000000
    19  H    0.119201   0.000000
    20  H    0.177829   0.000000
    21  H    0.132388   0.000000
    22  H    0.119274  -0.000000
    23  H    0.131769   0.000000
    24  H    0.177085  -0.000000
 Sum of Mulliken charges =  -2.00000  -0.00000

 Dipole moment (field-independent basis, Debye):
    X=              9.7727    Y=             -7.3537    Z=             -0.3048  Tot=             12.2343
 Quadrupole moment (field-independent basis, Debye-Ang):
   XX=           -124.9244   YY=           -163.4028   ZZ=           -108.5761
   XY=             -2.9671   XZ=              1.6352   YZ=             17.4481

  Exact polarizability: 288.690  34.408 270.071  11.907 -30.733 178.184
 Approx polarizability: 296.401  27.736 297.816  13.670 -38.171 191.738

                      1                      2                      3
                      A                      A                      A
 Frequencies --     59.3207                75.6787               147.4231
 Red. masses --      5.6955                 3.6321                 6.3308
 Frc consts  --      0.0118                 0.0123                 0.0811
 IR Inten    --     14.8095                 1.6019                15.8138

                      4                      5                      6
                      A                      A                      A
 Frequencies --    169.0032               180.9286               209.8274
 Red. masses --      9.5101                 3.9610                 7.1694
 Frc consts  --      0.1600                 0.0764                 0.1860
 IR Inten    --     15.5088                 2.4845                 2.7861

                      7                      8                      9
                      A                      A                      A
 Frequencies --    221.3622               238.3451               275.8156
 Red. masses --      5.2116                 1.0407                 1.1916
 Frc consts  --      0.1505                 0.0348                 0.0534
 IR Inten    --      0.3171                 0.3145                 2.0920

                     10                     11                     12
                      A                      A                      A
 Frequencies --    293.1993               299.4828               324.6498
 Red. masses --      3.3865                 3.9877                 2.0807
 Frc consts  --      0.1715                 0.2107                 0.1292
 IR Inten    --      2.4187                 0.3555                12.1068

                     13                     14                     15
                      A                      A                      A
 Frequencies --    330.5022               369.8300               407.8275
 Red. masses --      1.3250                 3.2469                 2.6926
 Frc consts  --      0.0853                 0.2617                 0.2639
 IR Inten    --      5.0316                 0.1302                 3.1527

                     16                     17                     18
                      A                      A                      A
 Frequencies --    416.2501               449.4274               480.8610
 Red. masses --      3.3139                 4.1346                 9.6208
 Frc consts  --      0.3383                 0.4920                 1.3107
 IR Inten    --      0.8700                14.2048                 5.6760

                     19                     20                     21
                      A                      A                      A
 Frequencies --    502.4853               566.6988               624.1514
 Red. masses --      3.0337                 4.0454                 4.7265
 Frc consts  --      0.4513                 0.7654                 1.0848
 IR Inten    --      7.8737                 8.8003                 4.7829

                     22                     23                     24
                      A                      A                      A
 Frequencies --    669.4825               697.6488               717.6530
 Red. masses --      4.2635                 6.7231                 2.2157
 Frc consts  --      1.1259                 1.9279                 0.6723
 IR Inten    --      0.5110                42.9304                 0.2584

                     25                     26                     27
                      A                      A                      A
 Frequencies --    804.0121               808.7197               818.7827
 Red. masses --      5.9554                 2.3286                 3.3248
 Frc consts  --      2.2682                 0.8973                 1.3133
 IR Inten    --    327.3948                26.3450                75.6634

                     28                     29                     30
                      A                      A                      A
 Frequencies --    857.5482               921.8341               926.8961
 Red. masses --      1.5895                 1.7757                 1.7328
 Frc consts  --      0.6887                 0.8890                 0.8771
 IR Inten    --     54.2373                 0.7405                 4.7376

                     31                     32                     33
                      A                      A                      A
 Frequencies --    936.8803               952.6050              1031.6293
 Red. masses --      3.8476                 1.2071                 1.5441
 Frc consts  --      1.9898                 0.6454                 0.9682
 IR Inten    --     27.9264                 0.5447                74.4530

                     34                     35                     36
                      A                      A                      A
 Frequencies --   1044.0458              1068.9595              1162.7424
 Red. masses --      1.3819                 2.1051                 9.9180
 Frc consts  --      0.8875                 1.4172                 7.9003
 IR Inten    --      0.4043               144.4552               151.0656

                     37                     38                     39
                      A                      A                      A
 Frequencies --   1209.3515              1210.5666              1227.7685
 Red. masses --      2.5051                 2.7142                 1.7876
 Frc consts  --      2.1586                 2.3435                 1.5877
 IR Inten    --     84.6917                13.5885               245.1351

                     40                     41                     42
                      A                      A                      A
 Frequencies --   1255.4894              1272.3360              1322.0466
 Red. masses --      1.6744                 3.2148                 9.2233
 Frc consts  --      1.5550                 3.0663                 9.4979
 IR Inten    --    174.7191               188.8540                76.7753

                     43                     44                     45
                      A                      A                      A
 Frequencies --   1362.3544              1363.9227              1375.9348
 Red. masses --      1.5983                 2.9201                 1.2771
 Frc consts  --      1.7477                 3.2006                 1.4246
 IR Inten    --    259.7502               602.1351                 8.3526

                     46                     47                     48
                      A                      A                      A
 Frequencies --   1402.4037              1437.5933              1463.5106
 Red. masses --      1.3005                 2.6384                 5.7069
 Frc consts  --      1.5069                 3.2126                 7.2018
 IR Inten    --     10.6502               988.8421                96.8235

                     49                     50                     51
                      A                      A                      A
 Frequencies --   1465.6995              1485.4082              1486.4523
 Red. masses --      1.0686                 1.1126                 1.0546
 Frc consts  --      1.3526                 1.4464                 1.3729
 IR Inten    --      1.6889                15.1303                 3.0143

                     52                     53                     54
                      A                      A                      A
 Frequencies --   1488.0605              1501.3700              1515.7309
 Red. masses --      1.0476                 1.0519                 1.0605
 Frc consts  --      1.3667                 1.3971                 1.4355
 IR Inten    --      2.4275                 6.3537                 8.3990

                     55                     56                     57
                      A                      A                      A
 Frequencies --   1594.6011              2994.5660              2999.0317
 Red. masses --      7.2958                 1.0388                 1.0385
 Frc consts  --     10.9302                 5.4885                 5.5031
 IR Inten    --     21.7031                93.6469               116.8860

                     58                     59                     60
                      A                      A                      A
 Frequencies --   3012.3098              3050.0563              3052.6763
 Red. masses --      1.0357                 1.0999                 1.0990
 Frc consts  --      5.5372                 6.0286                 6.0342
 IR Inten    --    107.4768                52.5141                83.0392

                     61                     62                     63
                      A                      A                      A
 Frequencies --   3068.2111              3077.1055              3108.2862
 Red. masses --      1.1006                 1.1017                 1.0984
 Frc consts  --      6.1043                 6.1461                 6.2526
 IR Inten    --    137.8332                77.8879                 0.9245

                     64                     65                     66
                      A                      A                      A
 Frequencies --   3109.5634              3152.5718              3157.0742
 Red. masses --      1.0980                 1.0886                 1.0866
 Frc consts  --      6.2556                 6.3747                 6.3811
 IR Inten    --     23.4411                59.6545                25.4981

 - Thermochemistry -
 -------------------
 Temperature   298.150 Kelvin.  Pressure   1.00000 Atm.
 Atom     1 has atomic number  6 and mass  12.00000

 Molecular mass:   241.99424 amu.
 Principal axes and moments of inertia in atomic units:
                           1         2         3
     Eigenvalues --  1354.377016173.221777128.03165
           X            0.87283  -0.45275  -0.18217
           Y            0.48802   0.80798   0.33016
           Z           -0.00229  -0.37708   0.92618
 This molecule is an asymmetric top.
 Rotational symmetry number  1.
 Warning -- assumption of classical behavior for rotation
           may cause significant error
 Rotational temperatures (Kelvin)      0.06395     0.01403     0.01215
 Rotational constants (GHZ):           1.33252     0.29235     0.25319
 Zero-point vibrational energy     480208.3 (Joules/Mol)
                                  114.77254 (Kcal/Mol)
 Warning -- explicit consideration of  20 degrees of freedom as
           vibrations may cause significant error
 Vibrational temperatures:     85.35   108.88   212.11   243.16   260.32
          (Kelvin)            301.89   318.49   342.93   396.84   421.85
                              430.89   467.10   475.52   532.10   586.77
                              598.89   646.63   691.85   722.96   815.35
                              898.01   963.24  1003.76  1032.54  1156.79
                             1163.57  1178.05  1233.82  1326.31  1333.60
                             1347.96  1370.59  1484.28  1502.15  1537.99
                             1672.93  1739.99  1741.74  1766.48  1806.37
                             1830.61  1902.13  1960.12  1962.38  1979.66
                             2017.75  2068.38  2105.67  2108.81  2137.17
                             2138.67  2140.99  2160.14  2180.80  2294.28
                             4308.51  4314.94  4334.04  4388.35  4392.12
                             4414.47  4427.27  4472.13  4473.97  4535.85
                             4542.33

 Zero-point correction=                           0.182902 (Hartree/Particle)
 Thermal correction to Energy=                    0.195918
 Thermal correction to Enthalpy=                  0.196862
 Thermal correction to Gibbs Free Energy=         0.143455
 Sum of electronic and zero-point Energies=          -3112.487935
 Sum of electronic and thermal Energies=             -3112.474919
 Sum of electronic and thermal Enthalpies=           -3112.473975
 Sum of electronic and thermal Free Energies=        -3112.527382

                     E (Thermal)             CV                S
                      KCal/Mol        Cal/Mol-Kelvin    Cal/Mol-Kelvin
 Total                  122.940             49.920            112.405
 Electronic               0.000              0.000              0.000
 Translational            0.889              2.981             42.352
 Rotational               0.889              2.981             32.455
 Vibrational            121.163             43.958             37.598
 Vibration     1          0.597              1.974              4.480
 Vibration     2          0.599              1.965              4.000
 Vibration     3          0.617              1.905              2.705
 Vibration     4          0.625              1.881              2.447
 Vibration     5          0.630              1.866              2.319
 Vibration     6          0.642              1.826              2.045
 Vibration     7          0.648              1.809              1.948
 Vibration     8          0.656              1.782              1.815
 Vibration     9          0.677              1.718              1.559
 Vibration    10          0.688              1.686              1.455
 Vibration    11          0.692              1.675              1.420
 Vibration    12          0.709              1.626              1.287
 Vibration    13          0.713              1.615              1.258
 Vibration    14          0.742              1.534              1.080
 Vibration    15          0.772              1.453              0.934
 Vibration    16          0.779              1.435              0.905
 Vibration    17          0.808              1.362              0.798
 Vibration    18          0.837              1.293              0.708
 Vibration    19          0.858              1.244              0.652
 Vibration    20          0.923              1.103              0.511

 Optimization completed.
    -- Stationary point found.
 Normal termination of Gaussian 16 at Sat Feb 10 11:46:48 2024.
