 Gaussian 16, Revision A.03,
 Gaussian 16:  ES64L-G16RevA.03 25-Dec-2016

 ----------------------------------------------------------------
 #P UB3LYP/6-311++G(d,p) SCRF=(PCM,Solvent=n,n-DiMethylFormamide)
 ----------------------------------------------------------------

 ------------------
 Quinone PCM in DMF
 ------------------
 Symbolic Z-matrix:
 Charge =  0 Multiplicity = 1

                         Standard orientation:
 ---------------------------------------------------------------------
 Center     Atomic      Atomic             Coordinates (Angstroms)
 Number     Number       Type             X           Y           Z
 ---------------------------------------------------------------------
      1          6           0       -1.128141   -0.857941   -0.141008
      2          6           0       -1.400257    0.446134    0.039767
      3          6           0       -0.247672    1.396314    0.193528
      4          8           0       -0.439909    2.591505    0.359734
      5          6           0        1.128134    0.858103    0.139594
      6          6           0        1.400249   -0.445971   -0.041181
      7          6           0        0.247670   -1.396122   -0.195145
      8          8           0        0.439904   -2.591329   -0.361240
      9          1           0        1.906592    1.602898    0.258137
     10          6           0        2.776574   -1.048169   -0.104108
     11          6           0        3.949833   -0.079542    0.053533
     12          6           0        5.308414   -0.786486   -0.024510
     13          6           0        6.499676    0.165812    0.133229
     14          6           0        7.854821   -0.547784    0.052358
     15          6           0        9.086533    0.343725    0.300709
     16          6           0       10.358380   -0.510929    0.395513
     17          6           0        9.249715    1.433674   -0.768672
     18          6           0       -2.776581    1.048320    0.102797
     19          6           0       -3.949858    0.079582   -0.054022
     20          6           0       -5.308439    0.786497    0.024293
     21          6           0       -6.499723   -0.165898   -0.132696
     22          6           0       -7.854864    0.547667   -0.051490
     23          6           0       -9.086635   -0.343952   -0.299145
     24          6           0      -10.358565    0.510616   -0.393580
     25          6           0       -9.249302   -1.433700    0.770519
     26          1           0       -1.906598   -1.602753   -0.259435
     27          1           0        2.860398   -1.590816   -1.053790
     28          1           0        2.831816   -1.834960    0.658296
     29          1           0        3.872423    0.444221    1.013936
     30          1           0        3.901281    0.692063   -0.724237
     31          1           0        5.388920   -1.311552   -0.984779
     32          1           0        5.358527   -1.561854    0.750403
     33          1           0        6.422100    0.684202    1.098032
     34          1           0        6.437061    0.942721   -0.637060
     35          1           0        7.956281   -1.026274   -0.931619
     36          1           0        7.863846   -1.363150    0.786789
     37          1           0        8.944992    0.841245    1.270331
     38          1           0       10.275524   -1.264024    1.184857
     39          1           0       11.235990    0.105580    0.611430
     40          1           0       10.546641   -1.036517   -0.547332
     41          1           0       10.137007    2.042919   -0.572706
     42          1           0        8.390865    2.108225   -0.805383
     43          1           0        9.367739    0.987121   -1.762631
     44          1           0       -2.832072    1.834711   -0.660009
     45          1           0       -2.860143    1.591463    1.052214
     46          1           0       -3.900954   -0.691731    0.724018
     47          1           0       -3.872814   -0.444538   -1.014260
     48          1           0       -5.358871    1.561610   -0.750852
     49          1           0       -5.388608    1.311869    0.984421
     50          1           0       -6.436771   -0.942583    0.637790
     51          1           0       -6.422511   -0.684564   -1.097382
     52          1           0       -7.864204    1.362851   -0.786119
     53          1           0       -7.955966    1.026395    0.932408
     54          1           0       -8.945475   -0.841656   -1.268729
     55          1           0      -11.236232   -0.105979   -0.609017
     56          1           0      -10.276078    1.263569   -1.183099
     57          1           0      -10.546463    1.036372    0.549246
     58          1           0      -10.136645   -2.043031    0.575049
     59          1           0       -9.366925   -0.986960    1.764441
     60          1           0       -8.390399   -2.108197    0.806994
 ---------------------------------------------------------------------

 SCF Done:  E(UB3LYP) =  -1010.77320581     A.U. after   13 cycles

 The electronic state is 1-A.
 Alpha  occ. eigenvalues --  -19.13994 -19.13994 -10.28404 -10.28403 -10.21775
 Alpha  occ. eigenvalues --  -10.21774 -10.20089 -10.20089 -10.18328 -10.18328
 Alpha  occ. eigenvalues --  -10.17063 -10.17063 -10.17044 -10.17044 -10.16458
 Alpha  occ. eigenvalues --  -10.16458 -10.16112 -10.16112 -10.15934 -10.15934
 Alpha  occ. eigenvalues --  -10.15376 -10.15375 -10.15350 -10.15350  -1.07142
 Alpha  occ. eigenvalues --   -1.06959  -0.86825  -0.83298  -0.81675  -0.81273
 Alpha  occ. eigenvalues --   -0.79522  -0.78119  -0.75095  -0.73715  -0.71035
 Alpha  occ. eigenvalues --   -0.69439  -0.68150  -0.68149  -0.66265  -0.64244
 Alpha  occ. eigenvalues --   -0.61190  -0.60809  -0.58436  -0.57817  -0.57452
 Alpha  occ. eigenvalues --   -0.55645  -0.55566  -0.52216  -0.49893  -0.48808
 Alpha  occ. eigenvalues --   -0.48592  -0.47844  -0.46794  -0.46400  -0.45609
 Alpha  occ. eigenvalues --   -0.45054  -0.44227  -0.44193  -0.43933  -0.43403
 Alpha  occ. eigenvalues --   -0.43215  -0.42878  -0.42063  -0.41535  -0.41300
 Alpha  occ. eigenvalues --   -0.40934  -0.39192  -0.39026  -0.38397  -0.38324
 Alpha  occ. eigenvalues --   -0.37693  -0.37666  -0.37133  -0.37038  -0.35503
 Alpha  occ. eigenvalues --   -0.35372  -0.34836  -0.34749  -0.33972  -0.33866
 Alpha  occ. eigenvalues --   -0.32841  -0.32836  -0.31938  -0.31931  -0.31751
 Alpha  occ. eigenvalues --   -0.31750  -0.30962  -0.30842  -0.30409  -0.29018
 Alpha  occ. eigenvalues --   -0.28333  -0.27538
 Alpha virt. eigenvalues --   -0.13110  -0.02199  -0.00835  -0.00524  -0.00147
 Alpha virt. eigenvalues --   -0.00065   0.00368   0.00732   0.00798   0.01070
 Alpha virt. eigenvalues --    0.01070   0.01861   0.02017   0.02619   0.02667

  Beta  occ. eigenvalues --  -19.13994 -19.13994 -10.28404 -10.28403 -10.21775
  Beta  occ. eigenvalues --  -10.21774 -10.20089 -10.20089 -10.18328 -10.18328
  Beta  occ. eigenvalues --  -10.17063 -10.17063 -10.17044 -10.17044 -10.16458
  Beta  occ. eigenvalues --  -10.16458 -10.16112 -10.16112 -10.15934 -10.15934
  Beta  occ. eigenvalues --  -10.15376 -10.15375 -10.15350 -10.15350  -1.07142
  Beta  occ. eigenvalues --   -1.06959  -0.86825  -0.83298  -0.81675  -0.81273
  Beta  occ. eigenvalues --   -0.79522  -0.78119  -0.75095  -0.73715  -0.71035
  Beta  occ. eigenvalues --   -0.69439  -0.68150  -0.68149  -0.66265  -0.64244
  Beta  occ. eigenvalues --   -0.61190  -0.60809  -0.58436  -0.57817  -0.57452
  Beta  occ. eigenvalues --   -0.55645  -0.55566  -0.52216  -0.49893  -0.48808
  Beta  occ. eigenvalues --   -0.48592  -0.47844  -0.46794  -0.46400  -0.45609
  Beta  occ. eigenvalues --   -0.45054  -0.44227  -0.44193  -0.43933  -0.43403
  Beta  occ. eigenvalues --   -0.43215  -0.42878  -0.42063  -0.41535  -0.41300
  Beta  occ. eigenvalues --   -0.40934  -0.39192  -0.39026  -0.38397  -0.38324
  Beta  occ. eigenvalues --   -0.37693  -0.37666  -0.37133  -0.37038  -0.35503
  Beta  occ. eigenvalues --   -0.35372  -0.34836  -0.34749  -0.33972  -0.33866
  Beta  occ. eigenvalues --   -0.32841  -0.32836  -0.31938  -0.31931  -0.31751
  Beta  occ. eigenvalues --   -0.31750  -0.30962  -0.30842  -0.30409  -0.29018
  Beta  occ. eigenvalues --   -0.28333  -0.27538
  Beta virt. eigenvalues --   -0.13110  -0.02199  -0.00835  -0.00524  -0.00147
  Beta virt. eigenvalues --   -0.00065   0.00368   0.00732   0.00798   0.01070
  Beta virt. eigenvalues --    0.01070   0.01861   0.02017   0.02619   0.02667

 Mulliken charges and spin densities:
               1          2
     1  C   -0.709468  -0.000000
     2  C    1.010897   0.000000
     3  C   -0.916859  -0.000000
     4  O   -0.254914   0.000000
     5  C   -0.709501   0.000000
     6  C    1.011014  -0.000000
     7  C   -0.916776  -0.000000
     8  O   -0.254915   0.000000
     9  H    0.227272  -0.000000
    10  C   -0.206066  -0.000000
    11  C    0.183508   0.000000
    12  C   -0.436603  -0.000000
    13  C    0.186815  -0.000000
    14  C   -0.725536  -0.000000
    15  C    0.493689  -0.000000
    16  C   -0.649765   0.000000
    17  C   -0.686774  -0.000000
    18  C   -0.206152  -0.000000
    19  C    0.183762   0.000000
    20  C   -0.436706   0.000000
    21  C    0.186917   0.000000
    22  C   -0.725544  -0.000000
    23  C    0.493701   0.000000
    24  C   -0.649785  -0.000000
    25  C   -0.686773  -0.000000
    26  H    0.227275   0.000000
    27  H    0.209598   0.000000
    28  H    0.207608   0.000000
    29  H    0.132866  -0.000000
    30  H    0.130497  -0.000000
    31  H    0.142481   0.000000
    32  H    0.132054  -0.000000
    33  H    0.138373   0.000000
    34  H    0.107364  -0.000000
    35  H    0.137404  -0.000000
    36  H    0.131645  -0.000000
    37  H    0.140664  -0.000000
    38  H    0.135319  -0.000000
    39  H    0.159266   0.000000
    40  H    0.140506   0.000000
    41  H    0.146968   0.000000
    42  H    0.145292   0.000000
    43  H    0.145733  -0.000000
    44  H    0.207646   0.000000
    45  H    0.209568   0.000000
    46  H    0.130536   0.000000
    47  H    0.132819   0.000000
    48  H    0.132059   0.000000
    49  H    0.142481  -0.000000
    50  H    0.107354   0.000000
    51  H    0.138383   0.000000
    52  H    0.131647   0.000000
    53  H    0.137401   0.000000
    54  H    0.140666  -0.000000
    55  H    0.159265   0.000000
    56  H    0.135320  -0.000000
    57  H    0.140505  -0.000000
    58  H    0.146970   0.000000
    59  H    0.145736   0.000000
    60  H    0.145293  -0.000000
 Sum of Mulliken charges =  -0.00000  -0.00000

 Dipole moment (field-independent basis, Debye):
    X=             -0.0000    Y=             -0.0000    Z=              0.0000  Tot=              0.0001
 Quadrupole moment (field-independent basis, Debye-Ang):
   XX=           -140.9259   YY=           -175.0692   ZZ=           -151.8171
   XY=              3.1203   XZ=              2.6461   YZ=             -2.6807

 Normal termination of Gaussian 16 at Sun Jan 21 07:08:18 2024.
