 Gaussian 16, Revision A.03,
 Gaussian 16:  ES64L-G16RevA.03 25-Dec-2016

 ----------------------------------------------------------------------
 #P UB3LYP/6-311++G(d,p) nosym opt freq SCRF=(PCM,Solvent=n,n-DiMethylF
 ormamide)
 ----------------------------------------------------------------------

 -------
 Reduced
 -------
 Symbolic Z-matrix:
 Charge = -2 Multiplicity = 1

 SCF Done:  E(UB3LYP) =  -804.964357859     A.U. after   17 cycles
 SCF Done:  E(UB3LYP) =  -804.965674529     A.U. after   15 cycles
 SCF Done:  E(UB3LYP) =  -804.966127833     A.U. after   14 cycles
 SCF Done:  E(UB3LYP) =  -804.966166090     A.U. after   14 cycles
 SCF Done:  E(UB3LYP) =  -804.966227731     A.U. after   13 cycles
 SCF Done:  E(UB3LYP) =  -804.966239734     A.U. after   13 cycles
 SCF Done:  E(UB3LYP) =  -804.966246966     A.U. after   12 cycles
 SCF Done:  E(UB3LYP) =  -804.966247230     A.U. after   12 cycles
 SCF Done:  E(UB3LYP) =  -804.966248591     A.U. after   12 cycles
 SCF Done:  E(UB3LYP) =  -804.966249100     A.U. after   10 cycles
 SCF Done:  E(UB3LYP) =  -804.966249644     A.U. after   11 cycles
 SCF Done:  E(UB3LYP) =  -804.966250253     A.U. after   10 cycles
 SCF Done:  E(UB3LYP) =  -804.966250901     A.U. after   11 cycles
 SCF Done:  E(UB3LYP) =  -804.966251135     A.U. after   11 cycles
 SCF Done:  E(UB3LYP) =  -804.966251169     A.U. after   10 cycles
 Optimization completed.
    -- Stationary point found.
 Normal termination of Gaussian 16 at Sat Feb 10 13:48:56 2024.

 ----------------------------------------------------------------------
 #P Geom=AllCheck Guess=TCheck SCRF=Check GenChk UB3LYP/6-311++G(d,p) F
 req
 ----------------------------------------------------------------------

 Structure from the checkpoint file:  "078-an.chk"
 -------
 Reduced
 -------
 Charge = -2 Multiplicity = 1

                          Input orientation:
 ---------------------------------------------------------------------
 Center     Atomic      Atomic             Coordinates (Angstroms)
 Number     Number       Type             X           Y           Z
 ---------------------------------------------------------------------
      1          6           0        0.481606    1.724013   -2.028465
      2          6           0       -0.855790    1.990013   -2.511309
      3          6           0       -1.788670    1.007994   -2.737295
      4          6           0       -1.530833   -0.398449   -2.516949
      5          6           0       -0.241504   -0.673865   -2.048432
      6          6           0        0.766495    0.320410   -1.800424
      7          8           0        1.298290    2.694183   -1.835814
      8          8           0       -2.456598   -1.298170   -2.754080
      9          6           0        3.216526    0.786626   -1.060254
     10          6           0        4.138206    1.048441   -2.090002
     11          6           0        3.459013    1.244195    0.247681
     12          6           0        4.618913    1.983069    0.504525
     13          6           0        5.289987    1.787245   -1.799339
     14          6           0        5.532918    2.257558   -0.510534
     15          1           0       -1.105557    3.032767   -2.695465
     16          1           0       -2.777244    1.282891   -3.103178
     17          1           0        0.030029   -1.708428   -1.862582
     18          1           0        4.805511    2.344135    1.511433
     19          1           0        6.001670    1.994335   -2.592882
     20          1           0        6.430179    2.829052   -0.297562
     21          6           0        2.048525   -0.145639   -1.324719
     22          8           0        2.294957   -1.357827   -1.105563
     23          6           0        2.478839    0.966042    1.364435
     24          1           0        2.344833   -0.107884    1.522738
     25          1           0        1.492289    1.380537    1.136481
     26          1           0        2.822596    1.405576    2.303135
     27          6           0        3.886923    0.566188   -3.500089
     28          1           0        2.982852    1.023563   -3.913211
     29          1           0        3.742683   -0.517419   -3.535902
     30          1           0        4.724825    0.818068   -4.153557
 ---------------------------------------------------------------------

 SCF Done:  E(UB3LYP) =  -804.966251169     A.U. after    1 cycles

 Alpha  occ. eigenvalues --  -19.07136 -19.03162 -19.01440 -10.22181 -10.19185
 Alpha  occ. eigenvalues --  -10.17198 -10.17182 -10.17171 -10.16527 -10.16258
 Alpha  occ. eigenvalues --  -10.16009 -10.16000 -10.15483 -10.15442 -10.14234
 Alpha  occ. eigenvalues --  -10.13474 -10.13237 -10.11653  -0.99419  -0.94840
 Alpha  occ. eigenvalues --   -0.91987  -0.85132  -0.78609  -0.77327  -0.75615
 Alpha  occ. eigenvalues --   -0.71893  -0.68790  -0.67090  -0.65707  -0.61597
 Alpha  occ. eigenvalues --   -0.57877  -0.56458  -0.54657  -0.51734  -0.47253
 Alpha  occ. eigenvalues --   -0.46903  -0.44484  -0.43499  -0.42991  -0.41728
 Alpha  occ. eigenvalues --   -0.40728  -0.40469  -0.39828  -0.39565  -0.39178
 Alpha  occ. eigenvalues --   -0.38480  -0.37418  -0.36327  -0.36123  -0.34332
 Alpha  occ. eigenvalues --   -0.34068  -0.33968  -0.33087  -0.32430  -0.31969
 Alpha  occ. eigenvalues --   -0.31618  -0.24798  -0.23510  -0.23139  -0.22122
 Alpha  occ. eigenvalues --   -0.21988  -0.19735  -0.19470  -0.13006
 Alpha virt. eigenvalues --   -0.03342  -0.00346   0.00007   0.00041   0.00862
 Alpha virt. eigenvalues --    0.01283   0.01772   0.02237   0.03315   0.03689
 Alpha virt. eigenvalues --    0.03908   0.04342   0.05134   0.05318   0.05707

  Beta  occ. eigenvalues --  -19.07136 -19.03162 -19.01440 -10.22181 -10.19185
  Beta  occ. eigenvalues --  -10.17198 -10.17182 -10.17171 -10.16527 -10.16258
  Beta  occ. eigenvalues --  -10.16009 -10.16000 -10.15483 -10.15442 -10.14234
  Beta  occ. eigenvalues --  -10.13474 -10.13237 -10.11653  -0.99419  -0.94840
  Beta  occ. eigenvalues --   -0.91987  -0.85132  -0.78609  -0.77327  -0.75615
  Beta  occ. eigenvalues --   -0.71893  -0.68790  -0.67090  -0.65707  -0.61597
  Beta  occ. eigenvalues --   -0.57877  -0.56458  -0.54657  -0.51734  -0.47253
  Beta  occ. eigenvalues --   -0.46903  -0.44484  -0.43499  -0.42991  -0.41728
  Beta  occ. eigenvalues --   -0.40728  -0.40469  -0.39828  -0.39565  -0.39178
  Beta  occ. eigenvalues --   -0.38480  -0.37418  -0.36327  -0.36123  -0.34332
  Beta  occ. eigenvalues --   -0.34068  -0.33968  -0.33087  -0.32430  -0.31969
  Beta  occ. eigenvalues --   -0.31618  -0.24798  -0.23510  -0.23139  -0.22122
  Beta  occ. eigenvalues --   -0.21988  -0.19735  -0.19470  -0.13006
  Beta virt. eigenvalues --   -0.03342  -0.00346   0.00007   0.00041   0.00862
  Beta virt. eigenvalues --    0.01283   0.01772   0.02237   0.03315   0.03689
  Beta virt. eigenvalues --    0.03908   0.04342   0.05134   0.05318   0.05707

 Mulliken charges and spin densities:
               1          2
     1  C   -0.979056   0.000000
     2  C   -0.250663  -0.000000
     3  C   -0.013273  -0.000000
     4  C   -0.605467  -0.000000
     5  C   -0.030215  -0.000000
     6  C    0.851788   0.000000
     7  O   -0.485938   0.000000
     8  O   -0.744146  -0.000000
     9  C    0.865796   0.000000
    10  C    0.249266  -0.000000
    11  C    0.179384  -0.000000
    12  C   -0.325672   0.000000
    13  C   -0.298286   0.000000
    14  C   -0.305095   0.000000
    15  H    0.157724  -0.000000
    16  H    0.157875   0.000000
    17  H    0.158428   0.000000
    18  H    0.149786  -0.000000
    19  H    0.147255  -0.000000
    20  H    0.181054   0.000000
    21  C   -0.542627   0.000000
    22  O   -0.411363  -0.000000
    23  C   -0.517826   0.000000
    24  H    0.170066   0.000000
    25  H    0.165482   0.000000
    26  H    0.151175  -0.000000
    27  C   -0.566555  -0.000000
    28  H    0.171445   0.000000
    29  H    0.168916  -0.000000
    30  H    0.150742  -0.000000
 Sum of Mulliken charges =  -2.00000   0.00000

 Dipole moment (field-independent basis, Debye):
    X=             -0.2805    Y=             -0.0212    Z=             19.4016  Tot=             19.4037
 Quadrupole moment (field-independent basis, Debye-Ang):
   XX=           -161.4405   YY=           -152.2958   ZZ=           -153.5297
   XY=            -17.1693   XZ=            -15.3611   YZ=             -1.9244

  Exact polarizability: 380.645  14.629 308.717  47.354  -3.565 256.188
 Approx polarizability: 402.517   1.966 374.900  48.077 -12.297 283.007

                      1                      2                      3
                      A                      A                      A
 Frequencies --     28.2961                35.0376                57.9992
 Red. masses --      3.4130                 4.6003                 1.8853
 Frc consts  --      0.0016                 0.0033                 0.0037
 IR Inten    --      0.5419                 0.6204                 1.9772

                      4                      5                      6
                      A                      A                      A
 Frequencies --     77.6213                82.9527               103.2693
 Red. masses --      1.7296                 1.4162                 4.5103
 Frc consts  --      0.0061                 0.0057                 0.0283
 IR Inten    --      4.1741                 2.8424                 9.3403

                      7                      8                      9
                      A                      A                      A
 Frequencies --    130.6508               158.5302               179.0561
 Red. masses --      2.7195                 7.3071                 5.4017
 Frc consts  --      0.0274                 0.1082                 0.1020
 IR Inten    --     14.4636                20.7935                 0.2047

                     10                     11                     12
                      A                      A                      A
 Frequencies --    200.6724               230.3512               240.9219
 Red. masses --      6.6757                 2.8833                 4.7255
 Frc consts  --      0.1584                 0.0901                 0.1616
 IR Inten    --      1.9224                 0.0847                27.6095

                     13                     14                     15
                      A                      A                      A
 Frequencies --    315.2185               335.9331               349.5152
 Red. masses --      3.4819                 5.6529                 8.7717
 Frc consts  --      0.2038                 0.3759                 0.6313
 IR Inten    --      0.0446                 0.1067                 0.0135

                     16                     17                     18
                      A                      A                      A
 Frequencies --    400.0883               419.0189               430.9930
 Red. masses --      5.2813                 3.2089                 7.2828
 Frc consts  --      0.4981                 0.3319                 0.7971
 IR Inten    --     16.3796                 0.2204                 5.4202

                     19                     20                     21
                      A                      A                      A
 Frequencies --    463.3280               479.0081               519.1962
 Red. masses --      3.2850                11.3704                 3.1056
 Frc consts  --      0.4155                 1.5371                 0.4932
 IR Inten    --      1.9482                28.8724                 0.5976

                     22                     23                     24
                      A                      A                      A
 Frequencies --    531.6672               542.3059               567.6833
 Red. masses --      4.8729                 4.9209                 2.3596
 Frc consts  --      0.8115                 0.8527                 0.4480
 IR Inten    --      0.4096                33.4508                20.2257

                     25                     26                     27
                      A                      A                      A
 Frequencies --    579.5003               632.9802               660.8310
 Red. masses --      4.5459                 4.4641                 6.7372
 Frc consts  --      0.8995                 1.0538                 1.7334
 IR Inten    --      6.7225                 0.5471                38.5128

                     28                     29                     30
                      A                      A                      A
 Frequencies --    725.9737               741.6132               771.7995
 Red. masses --      3.5881                 5.1732                 1.2608
 Frc consts  --      1.1142                 1.6763                 0.4425
 IR Inten    --      0.5504                58.9780                84.1666

                     31                     32                     33
                      A                      A                      A
 Frequencies --    774.8010               782.6653               812.9537
 Red. masses --      3.3743                 5.2883                 6.1053
 Frc consts  --      1.1935                 1.9086                 2.3773
 IR Inten    --      8.4189                10.0068               181.9328

                     34                     35                     36
                      A                      A                      A
 Frequencies --    836.1354               842.8314               856.2193
 Red. masses --      2.1754                 1.9163                 6.7252
 Frc consts  --      0.8961                 0.8020                 2.9049
 IR Inten    --     30.8886                67.2061                33.9052

                     37                     38                     39
                      A                      A                      A
 Frequencies --    900.5609               925.9042               958.6321
 Red. masses --      1.3099                 2.6525                 1.3089
 Frc consts  --      0.6259                 1.3398                 0.7087
 IR Inten    --      0.0055                 7.6596                 0.7300

                     40                     41                     42
                      A                      A                      A
 Frequencies --    973.6927               979.2780              1005.8814
 Red. masses --      1.4325                 2.2842                 1.6082
 Frc consts  --      0.8002                 1.2906                 0.9587
 IR Inten    --     21.7409                55.1234                 1.0788

                     43                     44                     45
                      A                      A                      A
 Frequencies --   1049.8970              1051.4736              1054.9070
 Red. masses --      1.7748                 1.6111                 1.5286
 Frc consts  --      1.1526                 1.0494                 1.0023
 IR Inten    --      1.5778                 0.8855                 0.2169

                     46                     47                     48
                      A                      A                      A
 Frequencies --   1083.8320              1111.9007              1139.2732
 Red. masses --      3.0877                 1.7456                 1.5417
 Frc consts  --      2.1370                 1.2716                 1.1790
 IR Inten    --    151.1871                25.1626               437.9951

                     49                     50                     51
                      A                      A                      A
 Frequencies --   1178.6861              1193.7730              1225.0626
 Red. masses --      1.2121                 2.2508                 2.7700
 Frc consts  --      0.9922                 1.8899                 2.4493
 IR Inten    --      1.1504               139.0379               613.5433

                     52                     53                     54
                      A                      A                      A
 Frequencies --   1257.1521              1268.1340              1269.4800
 Red. masses --      5.1942                 2.7931                 1.8757
 Frc consts  --      4.8366                 2.6464                 1.7810
 IR Inten    --    140.5522               157.5124                44.8105

                     55                     56                     57
                      A                      A                      A
 Frequencies --   1310.9684              1314.1763              1359.8446
 Red. masses --      6.3675                 2.6940                 7.1754
 Frc consts  --      6.4477                 2.7413                 7.8176
 IR Inten    --      4.7215               305.0808               617.0743

                     58                     59                     60
                      A                      A                      A
 Frequencies --   1400.3325              1403.9502              1433.0956
 Red. masses --      1.2484                 1.2616                 3.6430
 Frc consts  --      1.4424                 1.4651                 4.4081
 IR Inten    --      1.9096                 2.2840                 1.5015

                     61                     62                     63
                      A                      A                      A
 Frequencies --   1447.9397              1458.8878              1472.6087
 Red. masses --      2.3790                 3.5809                 1.1226
 Frc consts  --      2.9386                 4.4904                 1.4343
 IR Inten    --    619.9470              1069.3556                29.4583

                     64                     65                     66
                      A                      A                      A
 Frequencies --   1472.8835              1476.1595              1485.8267
 Red. masses --      1.0643                 1.3690                 4.2595
 Frc consts  --      1.3604                 1.7576                 5.5405
 IR Inten    --     20.5932                 1.6839               804.0254

                     67                     68                     69
                      A                      A                      A
 Frequencies --   1496.1038              1499.2889              1523.6329
 Red. masses --      1.5423                 1.4218                 8.4678
 Frc consts  --      2.0339                 1.8830                11.5820
 IR Inten    --     28.5764                23.6223               773.9433

                     70                     71                     72
                      A                      A                      A
 Frequencies --   1608.4770              1621.2988              1623.8347
 Red. masses --      6.8938                 6.5792                 5.3968
 Frc consts  --     10.5084                10.1894                 8.3843
 IR Inten    --     15.5969                 8.9691                 1.0819

                     73                     74                     75
                      A                      A                      A
 Frequencies --   3022.1892              3024.3493              3073.4551
 Red. masses --      1.0364                 1.0361                 1.1000
 Frc consts  --      5.5772                 5.5835                 6.1218
 IR Inten    --     60.2074                37.3668                23.4880

                     76                     77                     78
                      A                      A                      A
 Frequencies --   3074.8436              3096.2828              3097.0584
 Red. masses --      1.1001                 1.1017                 1.1017
 Frc consts  --      6.1279                 6.2231                 6.2260
 IR Inten    --     25.1945                40.0687                45.6186

                     79                     80                     81
                      A                      A                      A
 Frequencies --   3108.1300              3133.9026              3145.3273
 Red. masses --      1.0845                 1.0932                 1.0855
 Frc consts  --      6.1730                 6.3258                 6.3272
 IR Inten    --     64.4106               126.1296                 2.1388

                     82                     83                     84
                      A                      A                      A
 Frequencies --   3151.8368              3152.1698              3172.6527
 Red. masses --      1.0903                 1.0866                 1.0962
 Frc consts  --      6.3815                 6.3611                 6.5010
 IR Inten    --     55.0275                46.7856                55.9867

 - Thermochemistry -
 -------------------
 Temperature   298.150 Kelvin.  Pressure   1.00000 Atm.
 Atom     1 has atomic number  6 and mass  12.00000

 Molecular mass:   240.07864 amu.
 Principal axes and moments of inertia in atomic units:
                           1         2         3
     Eigenvalues --  2050.627616817.170706867.51014
           X            0.92741  -0.03256  -0.37263
           Y            0.24473  -0.70056   0.67032
           Z            0.28287   0.71285   0.64173
 This molecule is an asymmetric top.
 Rotational symmetry number  1.
 Warning -- assumption of classical behavior for rotation
           may cause significant error
 Rotational temperatures (Kelvin)      0.04224     0.01271     0.01261
 Rotational constants (GHZ):           0.88009     0.26473     0.26279
 Zero-point vibrational energy     593267.9 (Joules/Mol)
                                  141.79443 (Kcal/Mol)
 Warning -- explicit consideration of  25 degrees of freedom as
           vibrations may cause significant error
 Vibrational temperatures:     40.71    50.41    83.45   111.68   119.35
          (Kelvin)            148.58   187.98   228.09   257.62   288.72
                              331.42   346.63   453.53   483.33   502.87
                              575.64   602.87   620.10   666.63   689.19
                              747.01   764.95   780.26   816.77   833.77
                              910.72   950.79  1044.51  1067.02  1110.45
                             1114.77  1126.08  1169.66  1203.01  1212.65
                             1231.91  1295.71  1332.17  1379.26  1400.93
                             1408.96  1447.24  1510.57  1512.84  1517.78
                             1559.39  1599.78  1639.16  1695.87  1717.57
                             1762.59  1808.76  1824.56  1826.50  1886.19
                             1890.81  1956.51  2014.77  2019.97  2061.90
                             2083.26  2099.01  2118.76  2119.15  2123.86
                             2137.77  2152.56  2157.14  2192.17  2314.24
                             2332.69  2336.34  4348.26  4351.36  4422.02
                             4424.01  4454.86  4455.98  4471.91  4508.99
                             4525.42  4534.79  4535.27  4564.74

 Zero-point correction=                           0.225964 (Hartree/Particle)
 Thermal correction to Energy=                    0.242207
 Thermal correction to Enthalpy=                  0.243151
 Thermal correction to Gibbs Free Energy=         0.180924
 Sum of electronic and zero-point Energies=           -804.740287
 Sum of electronic and thermal Energies=              -804.724045
 Sum of electronic and thermal Enthalpies=            -804.723100
 Sum of electronic and thermal Free Energies=         -804.785328

                     E (Thermal)             CV                S
                      KCal/Mol        Cal/Mol-Kelvin    Cal/Mol-Kelvin
 Total                  151.987             61.231            130.968
 Electronic               0.000              0.000              0.000
 Translational            0.889              2.981             42.329
 Rotational               0.889              2.981             32.929
 Vibrational            150.210             55.269             55.711
 Vibration     1          0.593              1.984              5.945
 Vibration     2          0.594              1.982              5.522
 Vibration     3          0.596              1.974              4.524
 Vibration     4          0.599              1.964              3.950
 Vibration     5          0.600              1.961              3.820
 Vibration     6          0.605              1.947              3.392
 Vibration     7          0.612              1.923              2.936
 Vibration     8          0.621              1.893              2.567
 Vibration     9          0.629              1.868              2.338
 Vibration    10          0.638              1.839              2.127
 Vibration    11          0.652              1.795              1.876
 Vibration    12          0.658              1.778              1.796
 Vibration    13          0.703              1.645              1.335
 Vibration    14          0.717              1.604              1.231
 Vibration    15          0.727              1.576              1.168
 Vibration    16          0.766              1.470              0.962
 Vibration    17          0.782              1.429              0.895
 Vibration    18          0.792              1.403              0.855
 Vibration    19          0.821              1.331              0.756
 Vibration    20          0.835              1.297              0.713
 Vibration    21          0.874              1.207              0.612
 Vibration    22          0.887              1.180              0.583
 Vibration    23          0.897              1.157              0.560
 Vibration    24          0.924              1.101              0.509
 Vibration    25          0.936              1.076              0.486

                           ! Non-Optimized Parameters !
 Normal termination of Gaussian 16 at Sat Feb 10 14:58:37 2024.
