 Q-Chem 5.4, Q-Chem, Inc., Pleasanton, CA (2021)
 Q-Chem 5.4.0 for Intel X86 EM64T Linux

User input:
--------------------------------------------------------------
$molecule
-2 1
C                 -1.0649970000      0.9975610000     -3.1251160000
C                 -1.8847970000      1.2003530000     -1.9607570000
C                  0.3081560000      0.7759000000     -2.7585490000
C                  0.7309390000      0.4906310000     -1.4644710000
C                 -0.2184700000      0.2488610000     -0.4000410000
C                 -1.4742500000      0.9174260000     -0.6621930000
C                  0.0704380000     -0.5499870000      0.8191930000
C                 -0.8789770000     -0.7917390000      1.8836210000
C                  1.3262180000     -1.2185400000      1.0813630000
C                 -0.4562030000     -1.0769910000      3.1777150000
C                  1.7367580000     -1.5014600000      2.3799220000
C                  0.9169400000     -1.2986790000      3.5442790000
O                 -1.4712770000      1.1521300000     -4.3241900000
O                  1.3232380000     -1.4532090000      4.7433540000
C                  2.2106910000      0.7599940000     -1.1814740000
C                  2.5575450000      2.2564610000     -1.3305470000
C                  4.0220670000      2.5671840000     -0.9971470000
C                  4.3778800000      4.0516850000     -1.1416180000
C                  2.1117140000     -1.9256000000     -0.0255420000
C                  1.9529810000     -3.4589010000      0.0509000000
C                  2.6838690000     -4.1925800000     -1.0804590000
C                  2.5314800000     -5.7170100000     -1.0163780000
C                 -2.3587170000     -1.0611380000      1.6006100000
C                 -2.7054490000     -2.5576520000      1.7494910000
C                 -4.1699600000     -2.8684550000      1.4161140000
C                 -4.5256380000     -4.3530050000      1.5603990000
C                 -2.2597680000      1.6244800000      0.4447020000
C                 -2.1011670000      3.1577880000      0.3682040000
C                 -2.8320530000      3.8914220000      1.4995910000
C                 -2.6798120000      5.4158670000      1.4354740000
H                 -2.8389700000      1.7008730000     -2.1215840000
H                  1.0507840000      0.9483180000     -3.5367510000
H                 -1.1988670000     -1.2493540000      3.9558950000
H                  2.6909140000     -2.0020040000      2.5407760000
H                  2.8608240000      0.1881680000     -1.8590350000
H                  2.4718680000      0.4688810000     -0.1657090000
H                  1.9023160000      2.8344760000     -0.6676100000
H                  2.3336290000      2.5909500000     -2.3493740000
H                  4.6760720000      1.9728380000     -1.6496070000
H                  4.2383380000      2.2394240000      0.0272930000
H                  4.2010130000      4.4010880000     -2.1650210000
H                  5.4295800000      4.2454110000     -0.8985170000
H                  3.7635880000      4.6679490000     -0.4763250000
H                  3.1840090000     -1.6887570000      0.0279140000
H                  1.7639650000     -1.6153610000     -1.0091360000
H                  0.8841040000     -3.7016010000      0.0116650000
H                  2.3141530000     -3.8230200000      1.0188960000
H                  3.7509700000     -3.9336320000     -1.0501100000
H                  2.3121860000     -3.8303090000     -2.0470490000
H                  2.9232340000     -6.1125550000     -0.0725540000
H                  3.0638280000     -6.2157160000     -1.8352790000
H                  1.4773370000     -6.0079190000     -1.0788990000
H                 -2.6199640000     -0.7698930000      0.5849040000
H                 -3.0088440000     -0.4894500000      2.2782950000
H                 -2.4814550000     -2.8922500000      2.7682660000
H                 -2.0502010000     -3.1355210000      1.0864470000
H                 -4.3863010000     -2.5405740000      0.3917270000
H                 -4.8239880000     -2.2742530000      2.0686840000
H                 -3.9113250000     -4.9691250000      0.8949920000
H                 -5.5773330000     -4.5467890000      1.3173220000
H                 -4.3486910000     -4.7025330000      2.5837450000
H                 -1.9119610000      1.3142910000      1.4282960000
H                 -3.3320470000      1.3875540000      0.3913090000
H                 -2.4624370000      3.5218560000     -0.5997750000
H                 -1.0323100000      3.4005870000      0.4073600000
H                 -2.4602820000      3.5292050000      2.4661660000
H                 -3.8991330000      3.6323760000      1.4693110000
H                 -1.6256950000      5.7068780000      1.4979640000
H                 -3.2121890000      5.9145380000      2.2543770000
H                 -3.0716260000      5.8113550000      0.4916510000
$end
$rem
MAX_SCF_CYCLES=200
BASIS  =  6-311++G(d,p)
GUI  =  2
JOB_TYPE  =  SP
METHOD  =  B3LYP
SCF_ALGORITHM = DIIS_GDM
THRESH = 14
SOLVENT_METHOD = PCM
$end
$pcm
theory = CPCM
$end
$solvent
dielectric 37.219
opticaldielectric 1.43
$end

--------------------------------------------------------------

             Standard Nuclear Orientation (Angstroms)
    I     Atom           X                Y                Z
 ----------------------------------------------------------------
    1      C      -1.0649970000     0.9975610000    -3.1251160000
    2      C      -1.8847970000     1.2003530000    -1.9607570000
    3      C       0.3081560000     0.7759000000    -2.7585490000
    4      C       0.7309390000     0.4906310000    -1.4644710000
    5      C      -0.2184700000     0.2488610000    -0.4000410000
    6      C      -1.4742500000     0.9174260000    -0.6621930000
    7      C       0.0704380000    -0.5499870000     0.8191930000
    8      C      -0.8789770000    -0.7917390000     1.8836210000
    9      C       1.3262180000    -1.2185400000     1.0813630000
   10      C      -0.4562030000    -1.0769910000     3.1777150000
   11      C       1.7367580000    -1.5014600000     2.3799220000
   12      C       0.9169400000    -1.2986790000     3.5442790000
   13      O      -1.4712770000     1.1521300000    -4.3241900000
   14      O       1.3232380000    -1.4532090000     4.7433540000
   15      C       2.2106910000     0.7599940000    -1.1814740000
   16      C       2.5575450000     2.2564610000    -1.3305470000
   17      C       4.0220670000     2.5671840000    -0.9971470000
   18      C       4.3778800000     4.0516850000    -1.1416180000
   19      C       2.1117140000    -1.9256000000    -0.0255420000
   20      C       1.9529810000    -3.4589010000     0.0509000000
   21      C       2.6838690000    -4.1925800000    -1.0804590000
   22      C       2.5314800000    -5.7170100000    -1.0163780000
   23      C      -2.3587170000    -1.0611380000     1.6006100000
   24      C      -2.7054490000    -2.5576520000     1.7494910000
   25      C      -4.1699600000    -2.8684550000     1.4161140000
   26      C      -4.5256380000    -4.3530050000     1.5603990000
   27      C      -2.2597680000     1.6244800000     0.4447020000
   28      C      -2.1011670000     3.1577880000     0.3682040000
   29      C      -2.8320530000     3.8914220000     1.4995910000
   30      C      -2.6798120000     5.4158670000     1.4354740000
   31      H      -2.8389700000     1.7008730000    -2.1215840000
   32      H       1.0507840000     0.9483180000    -3.5367510000
   33      H      -1.1988670000    -1.2493540000     3.9558950000
   34      H       2.6909140000    -2.0020040000     2.5407760000
   35      H       2.8608240000     0.1881680000    -1.8590350000
   36      H       2.4718680000     0.4688810000    -0.1657090000
   37      H       1.9023160000     2.8344760000    -0.6676100000
   38      H       2.3336290000     2.5909500000    -2.3493740000
   39      H       4.6760720000     1.9728380000    -1.6496070000
   40      H       4.2383380000     2.2394240000     0.0272930000
   41      H       4.2010130000     4.4010880000    -2.1650210000
   42      H       5.4295800000     4.2454110000    -0.8985170000
   43      H       3.7635880000     4.6679490000    -0.4763250000
   44      H       3.1840090000    -1.6887570000     0.0279140000
   45      H       1.7639650000    -1.6153610000    -1.0091360000
   46      H       0.8841040000    -3.7016010000     0.0116650000
   47      H       2.3141530000    -3.8230200000     1.0188960000
   48      H       3.7509700000    -3.9336320000    -1.0501100000
   49      H       2.3121860000    -3.8303090000    -2.0470490000
   50      H       2.9232340000    -6.1125550000    -0.0725540000
   51      H       3.0638280000    -6.2157160000    -1.8352790000
   52      H       1.4773370000    -6.0079190000    -1.0788990000
   53      H      -2.6199640000    -0.7698930000     0.5849040000
   54      H      -3.0088440000    -0.4894500000     2.2782950000
   55      H      -2.4814550000    -2.8922500000     2.7682660000
   56      H      -2.0502010000    -3.1355210000     1.0864470000
   57      H      -4.3863010000    -2.5405740000     0.3917270000
   58      H      -4.8239880000    -2.2742530000     2.0686840000
   59      H      -3.9113250000    -4.9691250000     0.8949920000
   60      H      -5.5773330000    -4.5467890000     1.3173220000
   61      H      -4.3486910000    -4.7025330000     2.5837450000
   62      H      -1.9119610000     1.3142910000     1.4282960000
   63      H      -3.3320470000     1.3875540000     0.3913090000
   64      H      -2.4624370000     3.5218560000    -0.5997750000
   65      H      -1.0323100000     3.4005870000     0.4073600000
   66      H      -2.4602820000     3.5292050000     2.4661660000
   67      H      -3.8991330000     3.6323760000     1.4693110000
   68      H      -1.6256950000     5.7068780000     1.4979640000
   69      H      -3.2121890000     5.9145380000     2.2543770000
   70      H      -3.0716260000     5.8113550000     0.4916510000
 ----------------------------------------------------------------

   23   -1242.0745275735      6.67e-06  Convergence criterion met
 Total energy in the final basis set =    -1242.0745275735

                    Orbital Energies (a.u.)
 --------------------------------------------------------------

 Alpha MOs
 -- Occupied --
-19.0357 -19.0357 -10.1866 -10.1866 -10.1534 -10.1534 -10.1534 -10.1534
-10.1526 -10.1526 -10.1525 -10.1525 -10.1485 -10.1485 -10.1485 -10.1485
-10.1482 -10.1482 -10.1482 -10.1482 -10.1482 -10.1479 -10.1471 -10.1471
-10.1470 -10.1470 -10.1210 -10.1210 -10.1209 -10.1209  -0.9534  -0.9533
 -0.8336  -0.8099  -0.7942  -0.7882  -0.7778  -0.7747  -0.7489  -0.7401
 -0.7166  -0.7096  -0.7074  -0.6782  -0.6781  -0.6546  -0.6301  -0.6263
 -0.6113  -0.6095  -0.5743  -0.5710  -0.5666  -0.5633  -0.5494  -0.5386
 -0.5238  -0.5222  -0.4774  -0.4681  -0.4625  -0.4575  -0.4557  -0.4447
 -0.4270  -0.4244  -0.4221  -0.4189  -0.4174  -0.4145  -0.4136  -0.4065
 -0.4029  -0.3959  -0.3943  -0.3942  -0.3860  -0.3810  -0.3798  -0.3737
 -0.3702  -0.3653  -0.3640  -0.3613  -0.3543  -0.3451  -0.3436  -0.3423
 -0.3406  -0.3363  -0.3323  -0.3316  -0.3313  -0.3258  -0.3243  -0.3219
 -0.3170  -0.3168  -0.3158  -0.3120  -0.3099  -0.3097  -0.3041  -0.3017
 -0.2859  -0.2856  -0.2492  -0.2113  -0.2098  -0.1982  -0.1979  -0.1886
 -0.1282

          Ground-State Mulliken Net Atomic Charges

     Atom                 Charge (a.u.)
  ----------------------------------------
      1 C                    -0.394802
      2 C                    -0.366779
      3 C                    -0.357217
      4 C                     0.985524
      5 C                    -0.022685
      6 C                     1.014398
      7 C                    -0.022628
      8 C                     0.985483
      9 C                     1.014256
     10 C                    -0.357199
     11 C                    -0.366753
     12 C                    -0.394833
     13 O                    -0.683193
     14 O                    -0.683195
     15 C                    -0.357836
     16 C                    -0.737476
     17 C                    -0.167247
     18 C                    -0.728646
     19 C                    -0.359173
     20 C                    -0.726399
     21 C                    -0.170400
     22 C                    -0.728824
     23 C                    -0.357942
     24 C                    -0.737299
     25 C                    -0.167301
     26 C                    -0.728611
     27 C                    -0.359139
     28 C                    -0.726560
     29 C                    -0.170395
     30 C                    -0.728839
     31 H                     0.162330
     32 H                     0.161615
     33 H                     0.161615
     34 H                     0.162331
     35 H                     0.192573
     36 H                     0.110387
     37 H                     0.054575
     38 H                     0.158034
     39 H                     0.138881
     40 H                     0.139095
     41 H                     0.141789
     42 H                     0.152811
     43 H                     0.148811
     44 H                     0.192172
     45 H                     0.115193
     46 H                     0.052579
     47 H                     0.158354
     48 H                     0.138964
     49 H                     0.139165
     50 H                     0.141812
     51 H                     0.152796
     52 H                     0.148920
     53 H                     0.110352
     54 H                     0.192571
     55 H                     0.158052
     56 H                     0.054533
     57 H                     0.139093
     58 H                     0.138882
     59 H                     0.148811
     60 H                     0.152813
     61 H                     0.141788
     62 H                     0.115237
     63 H                     0.192178
     64 H                     0.158346
     65 H                     0.052599
     66 H                     0.139166
     67 H                     0.138963
     68 H                     0.148921
     69 H                     0.152794
     70 H                     0.141812
  ----------------------------------------
  Sum of atomic charges =    -2.000000

                    Cartesian Multipole Moments
 -----------------------------------------------------------------
    Charge (ESU x 10^10)
                -9.6064
    Dipole Moment (Debye)
         X       0.7110      Y       1.4461      Z      -2.0134
       Tot       2.5788
    Quadrupole Moments (Debye-Ang)
        XX    -213.3506     XY      11.7768     YY    -219.3079
        XZ     -48.5296     YZ      44.2490     ZZ    -355.5692

 Total job time:  1929.04s(wall), 13101.23s(cpu)
        *  Thank you very much for using Q-Chem.  Have a nice day.  *
