 Gaussian 16, Revision A.03,
 Gaussian 16:  ES64L-G16RevA.03 25-Dec-2016

 ----------------------------------------------------------------------
 #P UB3LYP/6-311++G(d,p) nosym opt freq SCRF=(PCM,Solvent=n,n-DiMethylF
 ormamide)
 ----------------------------------------------------------------------

 -------
 Radical
 -------
 Symbolic Z-matrix:
 Charge = -1 Multiplicity = 2

 SCF Done:  E(UB3LYP) =  -696.306409514     A.U. after   16 cycles
 SCF Done:  E(UB3LYP) =  -696.306625674     A.U. after   14 cycles
 SCF Done:  E(UB3LYP) =  -696.306819622     A.U. after   13 cycles
 SCF Done:  E(UB3LYP) =  -696.306666693     A.U. after   12 cycles
 SCF Done:  E(UB3LYP) =  -696.306835462     A.U. after   13 cycles
 SCF Done:  E(UB3LYP) =  -696.306841324     A.U. after   13 cycles
 SCF Done:  E(UB3LYP) =  -696.306846167     A.U. after   11 cycles
 SCF Done:  E(UB3LYP) =  -696.306846540     A.U. after    9 cycles
 Optimization completed.
    -- Stationary point found.
 Normal termination of Gaussian 16 at Sat Feb 10 11:14:17 2024.

 ----------------------------------------------------------------------
 #P Geom=AllCheck Guess=TCheck SCRF=Check GenChk UB3LYP/6-311++G(d,p) F
 req
 ----------------------------------------------------------------------

 Structure from the checkpoint file:  "046-rad.chk"
 -------
 Radical
 -------
 Charge = -1 Multiplicity = 2

                          Input orientation:
 ---------------------------------------------------------------------
 Center     Atomic      Atomic             Coordinates (Angstroms)
 Number     Number       Type             X           Y           Z
 ---------------------------------------------------------------------
      1          6           0        2.651320   -0.346923   -1.936953
      2          6           0        2.604612   -0.005056   -0.427618
      3          6           0        2.828800    1.513808   -0.226506
      4          6           0        3.788297   -0.732995    0.240927
      5          6           0        1.245775   -0.425280    0.170569
      6          6           0        1.173768   -1.348968    1.185522
      7          6           0       -0.062659   -1.778264    1.781485
      8          8           0       -0.092307   -2.639150    2.725214
      9          6           0       -1.263516   -1.183833    1.258867
     10          6           0       -1.270491   -0.253629    0.247320
     11          6           0        0.005385    0.171237   -0.350039
     12          8           0        0.034798    1.028172   -1.285557
     13          6           0       -2.592647    0.353996   -0.266155
     14          6           0       -2.780290    0.033568   -1.769216
     15          6           0       -3.822096   -0.207101    0.476518
     16          6           0       -2.589838    1.887791   -0.054247
     17          1           0        3.617386   -0.048784   -2.358753
     18          1           0        2.538518   -1.425157   -2.090037
     19          1           0        1.858397    0.165863   -2.478567
     20          1           0        2.044924    2.093078   -0.711698
     21          1           0        3.796759    1.808163   -0.646645
     22          1           0        2.838243    1.762442    0.839727
     23          1           0        3.728503   -1.817716    0.114722
     24          1           0        3.853672   -0.516493    1.310942
     25          1           0        4.721195   -0.397671   -0.221585
     26          1           0        2.068722   -1.805416    1.590553
     27          1           0       -2.186275   -1.516881    1.718269
     28          1           0       -3.720733    0.464973   -2.129165
     29          1           0       -2.826964   -1.048656   -1.928294
     30          1           0       -1.960033    0.437056   -2.360523
     31          1           0       -3.789907    0.009019    1.548117
     32          1           0       -4.726271    0.257862    0.072873
     33          1           0       -3.921823   -1.288725    0.348923
     34          1           0       -3.531335    2.317277   -0.413696
     35          1           0       -2.497858    2.128221    1.009938
     36          1           0       -1.764034    2.354173   -0.589022
 ---------------------------------------------------------------------

 SCF Done:  E(UB3LYP) =  -696.306846540     A.U. after    1 cycles

 Alpha  occ. eigenvalues --  -19.06814 -19.06480 -10.21287 -10.20862 -10.17983
 Alpha  occ. eigenvalues --  -10.17978 -10.16562 -10.16561 -10.14910 -10.14908
 Alpha  occ. eigenvalues --  -10.14895 -10.14895 -10.14392 -10.14385 -10.14382
 Alpha  occ. eigenvalues --  -10.14382  -0.98932  -0.98277  -0.83004  -0.81631
 Alpha  occ. eigenvalues --   -0.78075  -0.72162  -0.67952  -0.67678  -0.67421
 Alpha  occ. eigenvalues --   -0.67379  -0.66474  -0.60350  -0.57603  -0.52555
 Alpha  occ. eigenvalues --   -0.51514  -0.47343  -0.46436  -0.44913  -0.44545
 Alpha  occ. eigenvalues --   -0.43171  -0.42895  -0.42379  -0.41245  -0.40872
 Alpha  occ. eigenvalues --   -0.39881  -0.38087  -0.37723  -0.37397  -0.37313
 Alpha  occ. eigenvalues --   -0.37210  -0.36189  -0.35617  -0.35573  -0.34470
 Alpha  occ. eigenvalues --   -0.33066  -0.32562  -0.32341  -0.32236  -0.31823
 Alpha  occ. eigenvalues --   -0.31299  -0.26814  -0.24204  -0.23309  -0.22197
 Alpha  occ. eigenvalues --   -0.15331
 Alpha virt. eigenvalues --   -0.00491   0.00126   0.00393   0.01323   0.01342
 Alpha virt. eigenvalues --    0.02222   0.02505   0.03018   0.03414   0.03676
 Alpha virt. eigenvalues --    0.03745   0.04166   0.04343   0.05222   0.05550

  Beta  occ. eigenvalues --  -19.06133 -19.05781 -10.21132 -10.20707 -10.17990
  Beta  occ. eigenvalues --  -10.17986 -10.16438 -10.16436 -10.14896 -10.14895
  Beta  occ. eigenvalues --  -10.14827 -10.14824 -10.14385 -10.14378 -10.14375
  Beta  occ. eigenvalues --  -10.14375  -0.97705  -0.97060  -0.82620  -0.81554
  Beta  occ. eigenvalues --   -0.77771  -0.71950  -0.67736  -0.67656  -0.67394
  Beta  occ. eigenvalues --   -0.67356  -0.65641  -0.60043  -0.57312  -0.52285
  Beta  occ. eigenvalues --   -0.51385  -0.47170  -0.46124  -0.44877  -0.44292
  Beta  occ. eigenvalues --   -0.43030  -0.42860  -0.42345  -0.41190  -0.39803
  Beta  occ. eigenvalues --   -0.39223  -0.38053  -0.37340  -0.37300  -0.36806
  Beta  occ. eigenvalues --   -0.36272  -0.35709  -0.35566  -0.35524  -0.32963
  Beta  occ. eigenvalues --   -0.32919  -0.32496  -0.32202  -0.31746  -0.31587
  Beta  occ. eigenvalues --   -0.31243  -0.23599  -0.23485  -0.22692  -0.21603
  Beta virt. eigenvalues --   -0.08108  -0.00477   0.00394   0.01346   0.01392
  Beta virt. eigenvalues --    0.01503   0.02238   0.02511   0.03034   0.03696
  Beta virt. eigenvalues --    0.03713   0.04166   0.04361   0.05226   0.05441

 Mulliken charges and spin densities:
               1          2
     1  C   -0.695262   0.007731
     2  C    0.751890  -0.028466
     3  C   -0.695141   0.007618
     4  C   -0.474851   0.001762
     5  C    0.635568   0.095020
     6  C   -0.320746   0.051986
     7  C   -0.659821   0.123158
     8  O   -0.532301   0.236698
     9  C   -0.320489   0.051722
    10  C    0.635847   0.095245
    11  C   -0.884096   0.124910
    12  O   -0.379997   0.257390
    13  C    0.751043  -0.028551
    14  C   -0.695250   0.007776
    15  C   -0.474174   0.001739
    16  C   -0.695014   0.007643
    17  H    0.147781   0.000268
    18  H    0.136062   0.000875
    19  H    0.173369  -0.001221
    20  H    0.173145  -0.001163
    21  H    0.147825   0.000260
    22  H    0.136122   0.000874
    23  H    0.129973  -0.000409
    24  H    0.130039  -0.000405
    25  H    0.167831   0.000097
    26  H    0.184417  -0.005875
    27  H    0.184435  -0.005857
    28  H    0.147769   0.000257
    29  H    0.136161   0.000880
    30  H    0.173360  -0.001206
    31  H    0.130032  -0.000413
    32  H    0.167819   0.000097
    33  H    0.129985  -0.000398
    34  H    0.147622   0.000257
    35  H    0.135944   0.000876
    36  H    0.173104  -0.001175
 Sum of Mulliken charges =  -1.00000   1.00000

 Dipole moment (field-independent basis, Debye):
    X=              0.1807    Y=              5.0052    Z=             -4.6943  Tot=              6.8645
 Quadrupole moment (field-independent basis, Debye-Ang):
   XX=           -104.2373   YY=           -128.6808   ZZ=           -131.4614
   XY=             -0.9239   XZ=              0.7619   YZ=             23.7298

  Exact polarizability: 272.953  -3.164 259.893  -5.028 -73.106 272.637
 Approx polarizability: 269.172  -1.366 289.739  -5.004 -89.773 305.538

                      1                      2                      3
                      A                      A                      A
 Frequencies --     39.9048                64.3737                86.6001
 Red. masses --      3.5715                 2.7375                 4.3982
 Frc consts  --      0.0034                 0.0067                 0.0194
 IR Inten    --      6.9444                 0.0031                 0.2472

                      4                      5                      6
                      A                      A                      A
 Frequencies --    149.3358               152.2134               170.4227
 Red. masses --      2.9438                 3.5944                 5.1042
 Frc consts  --      0.0387                 0.0491                 0.0873
 IR Inten    --      0.0531                 4.0879                14.9560

                      7                      8                      9
                      A                      A                      A
 Frequencies --    222.5237               225.5737               236.3738
 Red. masses --      1.1433                 1.1084                 2.0670
 Frc consts  --      0.0334                 0.0332                 0.0680
 IR Inten    --      0.9363                 0.3238                 0.1893

                     10                     11                     12
                      A                      A                      A
 Frequencies --    249.4019               256.0719               272.5562
 Red. masses --      1.1289                 1.6542                 2.4359
 Frc consts  --      0.0414                 0.0639                 0.1066
 IR Inten    --      0.4170                 0.1844                 1.7477

                     13                     14                     15
                      A                      A                      A
 Frequencies --    281.7908               293.7611               298.9640
 Red. masses --      3.1492                 3.4218                 2.7074
 Frc consts  --      0.1473                 0.1740                 0.1426
 IR Inten    --      5.7492                 0.7222                 0.0106

                     16                     17                     18
                      A                      A                      A
 Frequencies --    314.5497               336.6294               338.8453
 Red. masses --      2.2929                 1.0513                 1.0485
 Frc consts  --      0.1337                 0.0702                 0.0709
 IR Inten    --      0.1958                 0.0542                 0.0067

                     19                     20                     21
                      A                      A                      A
 Frequencies --    358.2556               377.0150               394.8868
 Red. masses --      4.6369                 2.4456                 2.2767
 Frc consts  --      0.3506                 0.2048                 0.2092
 IR Inten    --     27.9891                 1.5266                 0.0009

                     22                     23                     24
                      A                      A                      A
 Frequencies --    395.9586               426.3160               454.7530
 Red. masses --      2.6063                 2.6297                 4.6562
 Frc consts  --      0.2408                 0.2816                 0.5673
 IR Inten    --      0.0951                 2.1232                19.7749

                     25                     26                     27
                      A                      A                      A
 Frequencies --    456.0477               480.2036               519.1421
 Red. masses --      3.6009                 7.5097                 3.1147
 Frc consts  --      0.4412                 1.0203                 0.4946
 IR Inten    --      1.9597                 0.3115                 0.1661

                     28                     29                     30
                      A                      A                      A
 Frequencies --    560.2742               609.4929               663.4627
 Red. masses --      2.9014                 4.1822                 3.1907
 Frc consts  --      0.5366                 0.9154                 0.8275
 IR Inten    --      5.8687                 0.0039                 0.0144

                     31                     32                     33
                      A                      A                      A
 Frequencies --    672.3385               748.2389               804.0292
 Red. masses --      4.9017                 4.7666                 7.6043
 Frc consts  --      1.3055                 1.5723                 2.8964
 IR Inten    --      0.1535                 1.3277                14.7026

                     34                     35                     36
                      A                      A                      A
 Frequencies --    807.8499               816.2129               874.9971
 Red. masses --      3.2496                 5.1700                 1.3943
 Frc consts  --      1.2495                 2.0293                 0.6290
 IR Inten    --      8.5950                58.8796                 0.0224

                     37                     38                     39
                      A                      A                      A
 Frequencies --    886.1905               893.2918               926.8693
 Red. masses --      2.5848                 1.6792                 1.7611
 Frc consts  --      1.1960                 0.7895                 0.8914
 IR Inten    --     30.8785                60.2116                 2.3446

                     40                     41                     42
                      A                      A                      A
 Frequencies --    927.2276               927.3550               929.0482
 Red. masses --      1.7843                 1.7737                 1.7294
 Frc consts  --      0.9039                 0.8987                 0.8795
 IR Inten    --      0.9466                 0.6631                13.3014

                     43                     44                     45
                      A                      A                      A
 Frequencies --    954.9521               955.8122               967.5125
 Red. masses --      1.1978                 1.1979                 3.4231
 Frc consts  --      0.6436                 0.6448                 1.8879
 IR Inten    --      0.2866                 0.4067                13.6118

                     46                     47                     48
                      A                      A                      A
 Frequencies --   1038.6502              1041.6998              1043.3981
 Red. masses --      1.5428                 1.3801                 1.3762
 Frc consts  --      0.9806                 0.8824                 0.8827
 IR Inten    --     40.6226                 4.8920                 0.1467

                     49                     50                     51
                      A                      A                      A
 Frequencies --   1043.9978              1094.9706              1159.4550
 Red. masses --      1.3812                 2.2758                 3.5888
 Frc consts  --      0.8870                 1.6077                 2.8425
 IR Inten    --      0.2607               111.1099                 3.7967

                     52                     53                     54
                      A                      A                      A
 Frequencies --   1212.9647              1213.1774              1217.1795
 Red. masses --      2.7380                 2.7418                 2.6896
 Frc consts  --      2.3735                 2.3776                 2.3477
 IR Inten    --     13.7862                 2.7517                29.8246

                     55                     56                     57
                      A                      A                      A
 Frequencies --   1218.5510              1259.6791              1264.1641
 Red. masses --      2.4170                 2.5459                 2.4591
 Frc consts  --      2.1145                 2.3802                 2.3155
 IR Inten    --      1.1990                77.4158                12.4742

                     58                     59                     60
                      A                      A                      A
 Frequencies --   1281.0922              1332.3725              1373.0390
 Red. masses --      1.7828                 2.0888                 1.2110
 Frc consts  --      1.7239                 2.1847                 1.3452
 IR Inten    --      8.1173                26.5816                 7.4041

                     61                     62                     63
                      A                      A                      A
 Frequencies --   1373.2612              1379.9364              1381.3829
 Red. masses --      1.2109                 1.2379                 1.2601
 Frc consts  --      1.3454                 1.3889                 1.4167
 IR Inten    --     18.8170                 1.5463                65.1332

                     64                     65                     66
                      A                      A                      A
 Frequencies --   1407.3591              1409.1453              1417.6849
 Red. masses --      1.2612                 1.2796                 5.9827
 Frc consts  --      1.4718                 1.4970                 7.0844
 IR Inten    --     44.1425                 9.9474                28.6743

                     67                     68                     69
                      A                      A                      A
 Frequencies --   1465.1903              1469.2887              1469.6272
 Red. masses --      5.4132                 1.0487                 1.1163
 Frc consts  --      6.8468                 1.3339                 1.4205
 IR Inten    --     17.8696                 2.1321               106.3804

                     70                     71                     72
                      A                      A                      A
 Frequencies --   1470.6233              1485.3350              1488.9406
 Red. masses --      1.8916                 1.0666                 1.0482
 Frc consts  --      2.4104                 1.3864                 1.3691
 IR Inten    --    835.7729                 2.9525                 0.1933

                     73                     74                     75
                      A                      A                      A
 Frequencies --   1489.2972              1489.6089              1490.3173
 Red. masses --      1.0505                 1.0493                 1.0767
 Frc consts  --      1.3728                 1.3718                 1.4089
 IR Inten    --      6.1570                 0.4936                30.9475

                     76                     77                     78
                      A                      A                      A
 Frequencies --   1499.9724              1502.0746              1502.3241
 Red. masses --      1.5984                 1.0508                 1.0537
 Frc consts  --      2.1188                 1.3969                 1.4012
 IR Inten    --    245.5144                 0.7566                18.3760

                     79                     80                     81
                      A                      A                      A
 Frequencies --   1514.0347              1519.0822              1520.9746
 Red. masses --      1.4168                 1.1390                 2.2180
 Frc consts  --      1.9136                 1.5486                 3.0231
 IR Inten    --     33.8979                30.8454                 0.8939

                     82                     83                     84
                      A                      A                      A
 Frequencies --   1632.7569              3008.4337              3008.8807
 Red. masses --      6.4717                 1.0389                 1.0391
 Frc consts  --     10.1651                 5.5400                 5.5428
 IR Inten    --    111.7577                72.0190                93.8870

                     85                     86                     87
                      A                      A                      A
 Frequencies --   3011.2688              3011.6260              3020.3053
 Red. masses --      1.0380                 1.0379                 1.0365
 Frc consts  --      5.5455                 5.5462                 5.5711
 IR Inten    --     39.9076                71.3663               161.5324

                     88                     89                     90
                      A                      A                      A
 Frequencies --   3020.7219              3062.7651              3063.0071
 Red. masses --      1.0367                 1.1016                 1.1015
 Frc consts  --      5.5736                 6.0882                 6.0887
 IR Inten    --      2.5957                26.0187                44.5728

                     91                     92                     93
                      A                      A                      A
 Frequencies --   3064.4869              3064.6874              3079.5272
 Red. masses --      1.1008                 1.1007                 1.1012
 Frc consts  --      6.0908                 6.0912                 6.1527
 IR Inten    --     71.0289                73.4999               101.7737

                     94                     95                     96
                      A                      A                      A
 Frequencies --   3079.7427              3083.5489              3083.5753
 Red. masses --      1.1010                 1.1021                 1.1021
 Frc consts  --      6.1530                 6.1738                 6.1739
 IR Inten    --    120.1242                 5.7642               128.6173

                     97                     98                     99
                      A                      A                      A
 Frequencies --   3125.7623              3126.1900              3127.9104
 Red. masses --      1.0973                 1.0971                 1.0967
 Frc consts  --      6.3164                 6.3174                 6.3217
 IR Inten    --      0.4722                 9.2320                30.7232

                    100                    101                    102
                      A                      A                      A
 Frequencies --   3131.1757              3180.1681              3182.2781
 Red. masses --      1.0961                 1.0882                 1.0878
 Frc consts  --      6.3317                 6.4842                 6.4905
 IR Inten    --     21.4038                20.6380                32.4430

 - Thermochemistry -
 -------------------
 Temperature   298.150 Kelvin.  Pressure   1.00000 Atm.
 Atom     1 has atomic number  6 and mass  12.00000

 Molecular mass:   220.14633 amu.
 Principal axes and moments of inertia in atomic units:
                           1         2         3
     Eigenvalues --  2376.527514521.926436094.73664
           X            0.99714  -0.02392   0.07170
           Y           -0.06900  -0.67523   0.73438
           Z           -0.03085   0.73722   0.67495
 This molecule is an asymmetric top.
 Rotational symmetry number  1.
 Warning -- assumption of classical behavior for rotation
           may cause significant error
 Rotational temperatures (Kelvin)      0.03645     0.01915     0.01421
 Rotational constants (GHZ):           0.75940     0.39911     0.29611
 Zero-point vibrational energy     804406.7 (Joules/Mol)
                                  192.25781 (Kcal/Mol)
 Warning -- explicit consideration of  29 degrees of freedom as
           vibrations may cause significant error
 Vibrational temperatures:     57.41    92.62   124.60   214.86   219.00
          (Kelvin)            245.20   320.16   324.55   340.09   358.83
                              368.43   392.15   405.43   422.66   430.14
                              452.57   484.33   487.52   515.45   542.44
                              568.15   569.70   613.37   654.29   656.15
                              690.91   746.93   806.11   876.92   954.57
                              967.35  1076.55  1156.82  1162.32  1174.35
                             1258.93  1275.03  1285.25  1333.56  1334.07
                             1334.26  1336.69  1373.96  1375.20  1392.03
                             1494.39  1498.77  1501.22  1502.08  1575.42
                             1668.20  1745.19  1745.49  1751.25  1753.22
                             1812.40  1818.85  1843.21  1916.99  1975.50
                             1975.82  1985.42  1987.50  2024.88  2027.45
                             2039.73  2108.08  2113.98  2114.47  2115.90
                             2137.07  2142.25  2142.77  2143.22  2144.23
                             2158.13  2161.15  2161.51  2178.36  2185.62
                             2188.34  2349.17  4328.47  4329.11  4332.54
                             4333.06  4345.55  4346.15  4406.64  4406.98
                             4409.11  4409.40  4430.75  4431.06  4436.54
                             4436.58  4497.27  4497.89  4500.37  4505.06
                             4575.55  4578.59

 Zero-point correction=                           0.306382 (Hartree/Particle)
 Thermal correction to Energy=                    0.323337
 Thermal correction to Enthalpy=                  0.324281
 Thermal correction to Gibbs Free Energy=         0.263165
 Sum of electronic and zero-point Energies=           -696.000464
 Sum of electronic and thermal Energies=              -695.983510
 Sum of electronic and thermal Enthalpies=            -695.982565
 Sum of electronic and thermal Free Energies=         -696.043681

                     E (Thermal)             CV                S
                      KCal/Mol        Cal/Mol-Kelvin    Cal/Mol-Kelvin
 Total                  202.897             67.230            128.630
 Electronic               0.000              0.000              1.377
 Translational            0.889              2.981             42.070
 Rotational               0.889              2.981             32.549
 Vibrational            201.120             61.268             52.633
 Vibration     1          0.594              1.981              5.264
 Vibration     2          0.597              1.971              4.318
 Vibration     3          0.601              1.959              3.735
 Vibration     4          0.618              1.903              2.681
 Vibration     5          0.619              1.900              2.644
 Vibration     6          0.626              1.879              2.431
 Vibration     7          0.648              1.807              1.938
 Vibration     8          0.650              1.802              1.914
 Vibration     9          0.655              1.785              1.830
 Vibration    10          0.662              1.764              1.735
 Vibration    11          0.666              1.753              1.688
 Vibration    12          0.676              1.724              1.580
 Vibration    13          0.681              1.707              1.523
 Vibration    14          0.689              1.685              1.452
 Vibration    15          0.692              1.676              1.423
 Vibration    16          0.702              1.646              1.338
 Vibration    17          0.717              1.602              1.228
 Vibration    18          0.719              1.598              1.218
 Vibration    19          0.733              1.558              1.130
 Vibration    20          0.748              1.519              1.051
 Vibration    21          0.762              1.481              0.982
 Vibration    22          0.763              1.479              0.978
 Vibration    23          0.788              1.413              0.871
 Vibration    24          0.813              1.350              0.782
 Vibration    25          0.814              1.348              0.778
 Vibration    26          0.837              1.294              0.710
 Vibration    27          0.874              1.208              0.612
 Vibration    28          0.916              1.117              0.523
 Vibration    29          0.968              1.012              0.434

 Optimization completed.
    -- Stationary point found.
 Normal termination of Gaussian 16 at Sat Feb 10 13:33:57 2024.
