 Gaussian 16, Revision A.03,
 Gaussian 16:  ES64L-G16RevA.03 25-Dec-2016

 ----------------------------------------------------------------
 #P UB3LYP/6-311++G(d,p) SCRF=(PCM,Solvent=n,n-DiMethylFormamide)
 ----------------------------------------------------------------

 ------------------
 Quinone PCM in DMF
 ------------------
 Symbolic Z-matrix:
 Charge =  0 Multiplicity = 1

                         Standard orientation:
 ---------------------------------------------------------------------
 Center     Atomic      Atomic             Coordinates (Angstroms)
 Number     Number       Type             X           Y           Z
 ---------------------------------------------------------------------
      1          6           0        2.656213   -1.412634    0.000264
      2          8           0        2.047708   -0.119534    0.000130
      3          6           0        0.716099   -0.045104   -0.000092
      4          6           0       -0.155149   -1.080955   -0.000408
      5          6           0       -1.604684   -0.858840   -0.000078
      6          8           0       -2.400468   -1.788012   -0.000071
      7          6           0       -2.094194    0.548314    0.000115
      8          6           0       -1.245211    1.582002    0.000510
      9          6           0        0.222898    1.384198   -0.000012
     10          8           0        0.994667    2.320589   -0.000470
     11          1           0        2.372889   -1.974024   -0.894797
     12          1           0        3.728470   -1.231745    0.000465
     13          1           0        2.372515   -1.973947    0.895257
     14          1           0        0.160432   -2.115773   -0.000442
     15          1           0       -3.171167    0.674172    0.000152
     16          1           0       -1.574229    2.615086    0.000866
 ---------------------------------------------------------------------

 SCF Done:  E(UB3LYP) =  -496.135562159     A.U. after   15 cycles

 The electronic state is 1-A.
 Alpha  occ. eigenvalues --  -19.19225 -19.15181 -19.13747 -10.29735 -10.28632
 Alpha  occ. eigenvalues --  -10.27854 -10.23572 -10.21595 -10.21449 -10.19889
 Alpha  occ. eigenvalues --   -1.11468  -1.07917  -1.06804  -0.86424  -0.79620
 Alpha  occ. eigenvalues --   -0.74919  -0.70030  -0.63336  -0.61326  -0.54911
 Alpha  occ. eigenvalues --   -0.53689  -0.50896  -0.49839  -0.48453  -0.45862
 Alpha  occ. eigenvalues --   -0.45581  -0.44985  -0.43414  -0.42449  -0.41668
 Alpha  occ. eigenvalues --   -0.37186  -0.36959  -0.31484  -0.29710  -0.28521
 Alpha  occ. eigenvalues --   -0.27287
 Alpha virt. eigenvalues --   -0.13528  -0.02424  -0.00489  -0.00390   0.00661
 Alpha virt. eigenvalues --    0.01321   0.02459   0.03153   0.03474   0.04830
 Alpha virt. eigenvalues --    0.06267   0.06526   0.06662   0.07512   0.07931

  Beta  occ. eigenvalues --  -19.19225 -19.15181 -19.13747 -10.29735 -10.28632
  Beta  occ. eigenvalues --  -10.27854 -10.23572 -10.21595 -10.21449 -10.19889
  Beta  occ. eigenvalues --   -1.11468  -1.07917  -1.06804  -0.86424  -0.79620
  Beta  occ. eigenvalues --   -0.74919  -0.70030  -0.63336  -0.61326  -0.54911
  Beta  occ. eigenvalues --   -0.53689  -0.50896  -0.49839  -0.48453  -0.45862
  Beta  occ. eigenvalues --   -0.45581  -0.44985  -0.43414  -0.42449  -0.41668
  Beta  occ. eigenvalues --   -0.37186  -0.36959  -0.31484  -0.29710  -0.28521
  Beta  occ. eigenvalues --   -0.27287
  Beta virt. eigenvalues --   -0.13528  -0.02424  -0.00489  -0.00390   0.00661
  Beta virt. eigenvalues --    0.01321   0.02459   0.03153   0.03474   0.04830
  Beta virt. eigenvalues --    0.06267   0.06526   0.06662   0.07512   0.07931

 Mulliken charges and spin densities:
               1          2
     1  C   -0.309115   0.000000
     2  O   -0.156040   0.000000
     3  C   -0.190529  -0.000000
     4  C    0.701359   0.000000
     5  C   -0.552308  -0.000000
     6  O   -0.320014   0.000000
     7  C    0.214864   0.000000
     8  C    0.227420  -0.000000
     9  C   -0.634752   0.000000
    10  O   -0.283497   0.000000
    11  H    0.178496  -0.000000
    12  H    0.202403   0.000000
    13  H    0.178521  -0.000000
    14  H    0.252961   0.000000
    15  H    0.245792   0.000000
    16  H    0.244436  -0.000000
 Sum of Mulliken charges =  -0.00000  -0.00000

 Dipole moment (field-independent basis, Debye):
    X=              1.4557    Y=             -1.2464    Z=              0.0017  Tot=              1.9164
 Quadrupole moment (field-independent basis, Debye-Ang):
   XX=            -58.1133   YY=            -64.1486   ZZ=            -57.2912
   XY=            -21.1714   XZ=              0.0011   YZ=              0.0034

 Normal termination of Gaussian 16 at Wed Jan 24 22:48:40 2024.
