 Q-Chem 5.4, Q-Chem, Inc., Pleasanton, CA (2021)
 Q-Chem 5.4.0 for Intel X86 EM64T Linux

User input:
--------------------------------------------------------------
$molecule
-1 2
C                 -3.3762860000      3.4911160000      0.0273710000
C                 -4.5976280000      2.8465930000      0.0732150000
C                 -4.6104800000      1.4288190000      0.1201550000
C                 -2.1511350000      2.7848000000      0.0259220000
C                 -2.1781240000      1.3621320000      0.0733770000
C                 -3.4316580000      0.7136490000      0.1199590000
C                 -0.8956010000      3.5349240000     -0.0241400000
C                  0.3300020000      2.7352620000     -0.0224650000
C                  0.3019770000      1.3126170000      0.0250400000
C                 -0.9530770000      0.5605930000      0.0751520000
C                  1.5815030000      3.3920820000     -0.0693350000
C                  2.7769970000      2.6992600000     -0.0706240000
C                  2.7350310000      1.2820700000     -0.0230340000
C                  1.5294760000      0.6145570000      0.0233100000
O                 -0.8713280000      4.7925410000     -0.0661190000
O                 -0.9773040000     -0.6948390000      0.1170610000
C                 -5.8978690000      3.6157320000      0.0741210000
H                 -5.5623710000      0.9041820000      0.1565700000
H                 -3.4299360000     -0.3699500000      0.1555710000
H                  1.4858430000     -0.4681300000      0.0598980000
C                  4.1059490000      3.4158710000     -0.1211160000
H                  3.6659020000      0.7197990000     -0.0232840000
H                 -3.3180970000      4.5739230000     -0.0094390000
H                  1.5652330000      4.4763770000     -0.1047180000
H                 -5.7182260000      4.6928450000      0.0349170000
H                 -6.4879280000      3.4066150000      0.9747980000
H                 -6.5236100000      3.3484490000     -0.7861850000
H                  3.9680600000      4.4993430000     -0.1536830000
H                  4.6862330000      3.1248240000     -1.0052450000
H                  4.7221120000      3.1823230000      0.7557610000
$end
$rem
MAX_SCF_CYCLES=200
BASIS  =  6-311++G(d,p)
GUI  =  2
JOB_TYPE  =  SP
METHOD  =  B3LYP
SOLVENT_METHOD = COSMO
$end
$solvent
dielectric 37.219
opticaldielectric 1.43
$end

--------------------------------------------------------------

             Standard Nuclear Orientation (Angstroms)
    I     Atom           X                Y                Z
 ----------------------------------------------------------------
    1      C       2.4798538167    -1.1875322173     0.0000343519
    2      C       3.6887425185    -0.5183715818    -0.0000043755
    3      C       3.6741912683     0.9001628408    -0.0000787684
    4      C       1.2410464500    -0.5054503518    -0.0000029726
    5      C       1.2405389989     0.9182646350    -0.0000088758
    6      C       2.4815424665     1.5920286591    -0.0000892991
    7      C       0.0000057175    -1.2809345519    -0.0000102421
    8      C      -1.2410567160    -0.5054805756     0.0000071462
    9      C      -1.2405271365     0.9182331037     0.0000310888
   10      C      -0.0000031858     1.6956082896     0.0000353813
   11      C      -2.4798670980    -1.1875457478     0.0000335527
   12      C      -3.6887564182    -0.5183697621     0.0000032102
   13      C      -3.6741806740     0.9001650443     0.0000109469
   14      C      -2.4815221920     1.5920103842     0.0000323477
   15      O       0.0000387511    -2.5394860734    -0.0000261346
   16      O      -0.0000399310     2.9519732114     0.0000542560
   17      C       5.0038546439    -1.2617976879     0.0000475632
   18      H       4.6159442619     1.4440082254    -0.0001595346
   19      H       2.4588756209     2.6759770799    -0.0001773951
   20      H      -2.4588144635     2.6759559638     0.0000357002
   21      C      -5.0038642007    -1.2617981060    -0.0000587744
   22      H      -4.6159226724     1.4440322767    -0.0000110761
   23      H       2.4425938267    -2.2718862291     0.0001064143
   24      H      -2.4426395555    -2.2719010514     0.0000802797
   25      H       4.8450275791    -2.3428873862    -0.0000129975
   26      H       5.6070690496    -1.0114090212     0.8812719942
   27      H       5.6072398658    -1.0113133816    -0.8810326267
   28      H      -4.8450265664    -2.3428883057     0.0003241791
   29      H      -5.6069732246    -1.0116536748    -0.8814265945
   30      H      -5.6073538359    -1.0110858475     0.8808829987
 ----------------------------------------------------------------

    9    -767.6732615179      7.47e-06  Convergence criterion met
 Total energy in the final basis set =     -767.6732615179
    4    -767.7571498308      8.19e-06  Convergence criterion met
 Total energy in the final basis set =     -767.7571498308

                    Orbital Energies (a.u.)
 --------------------------------------------------------------

 Alpha MOs
 -- Occupied --
-19.0791 -19.0783 -10.2262 -10.2237 -10.1809 -10.1809 -10.1716 -10.1716
-10.1700 -10.1699 -10.1692 -10.1691 -10.1685 -10.1685 -10.1644 -10.1644
-10.1605 -10.1605  -1.0060  -1.0031  -0.8626  -0.8532  -0.7959  -0.7665
 -0.7548  -0.7438  -0.7053  -0.6804  -0.6589  -0.6180  -0.6029  -0.5828
 -0.5553  -0.5202  -0.5154  -0.4754  -0.4567  -0.4555  -0.4434  -0.4272
 -0.4238  -0.4214  -0.4159  -0.4159  -0.4097  -0.4084  -0.4047  -0.3831
 -0.3757  -0.3750  -0.3651  -0.3533  -0.3418  -0.3391  -0.3309  -0.3295
 -0.2641  -0.2566  -0.2528  -0.2499  -0.2397  -0.2390  -0.1425

 Beta MOs
 -- Occupied --
-19.0739 -19.0727 -10.2245 -10.2217 -10.1804 -10.1804 -10.1708 -10.1708
-10.1694 -10.1694 -10.1689 -10.1689 -10.1681 -10.1681 -10.1643 -10.1643
-10.1605 -10.1605  -0.9968  -0.9932  -0.8601  -0.8521  -0.7924  -0.7654
 -0.7521  -0.7424  -0.7026  -0.6794  -0.6526  -0.6165  -0.6006  -0.5821
 -0.5526  -0.5177  -0.5140  -0.4729  -0.4558  -0.4539  -0.4422  -0.4231
 -0.4202  -0.4199  -0.4148  -0.4106  -0.4086  -0.4025  -0.4005  -0.3750
 -0.3747  -0.3641  -0.3595  -0.3506  -0.3406  -0.3387  -0.3282  -0.3187
 -0.2526  -0.2467  -0.2449  -0.2417  -0.2347  -0.2342

          Ground-State Mulliken Net Atomic Charges

     Atom                 Charge (a.u.)    Spin (a.u.)
  --------------------------------------------------------
      1 C                    -0.218256       0.029842
      2 C                     0.340200       0.029926
      3 C                    -0.565335       0.041968
      4 C                     0.161174       0.045366
      5 C                     0.129998       0.027194
      6 C                     0.184632       0.025703
      7 C                    -0.440696       0.125476
      8 C                     0.161846       0.045325
      9 C                     0.129333       0.027162
     10 C                    -0.920588       0.089761
     11 C                    -0.218580       0.029838
     12 C                     0.339732       0.029924
     13 C                    -0.564684       0.041945
     14 C                     0.184146       0.025703
     15 O                    -0.496475       0.205561
     16 O                    -0.491446       0.187666
     17 C                    -0.390442      -0.002286
     18 H                     0.198559      -0.003314
     19 H                     0.178936      -0.000906
     20 H                     0.178893      -0.000907
     21 C                    -0.390303      -0.002286
     22 H                     0.198560      -0.003312
     23 H                     0.138506      -0.002248
     24 H                     0.138550      -0.002247
     25 H                     0.174033       0.000090
     26 H                     0.171455       0.002242
     27 H                     0.171392       0.002242
     28 H                     0.174039       0.000089
     29 H                     0.171457       0.002242
     30 H                     0.171364       0.002242
  --------------------------------------------------------
  Sum of atomic charges =    -1.000000

                    Cartesian Multipole Moments
 -----------------------------------------------------------------
    Charge (ESU x 10^10)
                -4.8032
    Dipole Moment (Debye)
         X      -0.0001      Y      -1.2469      Z      -0.0003
       Tot       1.2469
    Quadrupole Moments (Debye-Ang)
        XX     -93.3057     XY       0.0031     YY    -143.7855
        XZ       0.0024     YZ      -0.0012     ZZ    -112.3239

 Total job time:  92.60s(wall), 686.90s(cpu)
        *  Thank you very much for using Q-Chem.  Have a nice day.  *
