 Gaussian 16, Revision A.03,
 Gaussian 16:  ES64L-G16RevA.03 25-Dec-2016

 ----------------------------------------------------------------------
 #P UB3LYP/genecp nosym opt freq SCRF=(PCM,Solvent=n,n-DiMethylFormamid
 e)
 ----------------------------------------------------------------------

 -------
 Radical
 -------
 Symbolic Z-matrix:
 Charge = -1 Multiplicity = 2

 SCF Done:  E(UB3LYP) =  -836.224229394     A.U. after   21 cycles
 SCF Done:  E(UB3LYP) =  -836.224527097     A.U. after   14 cycles
 SCF Done:  E(UB3LYP) =  -836.224556272     A.U. after   13 cycles
 SCF Done:  E(UB3LYP) =  -836.224559405     A.U. after   12 cycles
 SCF Done:  E(UB3LYP) =  -836.224569141     A.U. after   12 cycles
 SCF Done:  E(UB3LYP) =  -836.224569551     A.U. after   10 cycles
 SCF Done:  E(UB3LYP) =  -836.224569738     A.U. after   10 cycles
 SCF Done:  E(UB3LYP) =  -836.224569793     A.U. after    8 cycles
 SCF Done:  E(UB3LYP) =  -836.224569883     A.U. after    9 cycles
 SCF Done:  E(UB3LYP) =  -836.224569948     A.U. after    9 cycles
 SCF Done:  E(UB3LYP) =  -836.224569991     A.U. after    9 cycles
 SCF Done:  E(UB3LYP) =  -836.224570015     A.U. after    8 cycles
 Optimization completed.
    -- Stationary point found.
 Normal termination of Gaussian 16 at Sat Feb 10 10:41:25 2024.

 ------------------------------------------------------------------
 #P Geom=AllCheck Guess=TCheck SCRF=Check GenChk UB3LYP/GenECP Freq
 ------------------------------------------------------------------

 Structure from the checkpoint file:  "007-rad.chk"
 -------
 Radical
 -------
 Charge = -1 Multiplicity = 2

                          Input orientation:
 ---------------------------------------------------------------------
 Center     Atomic      Atomic             Coordinates (Angstroms)
 Number     Number       Type             X           Y           Z
 ---------------------------------------------------------------------
      1          6           0       -1.345777    1.939795    0.848355
      2          6           0       -2.611916    1.432709    0.318080
      3          6           0       -2.630383    0.277113   -0.414115
      4          6           0       -1.457574   -0.502942   -0.719929
      5          6           0       -0.175135   -0.016394   -0.207237
      6          6           0       -0.172525    1.143922    0.530196
      7          8           0       -1.538629   -1.568411   -1.406273
      8          1           0       -3.563303   -0.111946   -0.808195
      9          8           0       -1.291199    2.996486    1.537111
     10         53           0        1.657076    1.915267    1.318025
     11          6           0        1.058492   -0.819336   -0.518710
     12          6           0       -3.858516    2.258980    0.592500
     13          6           0       -3.971839    3.418936   -0.419189
     14          6           0       -5.157945    1.443134    0.625289
     15          1           0        0.790554   -1.677538   -1.133008
     16          1           0        1.541366   -1.179252    0.395337
     17          1           0        1.800157   -0.219235   -1.054590
     18          1           0       -3.716187    2.709445    1.579480
     19          1           0       -4.819209    4.065902   -0.170434
     20          1           0       -4.126814    3.032894   -1.432004
     21          1           0       -3.066861    4.030180   -0.420673
     22          1           0       -5.990966    2.083352    0.930078
     23          1           0       -5.093805    0.612595    1.333748
     24          1           0       -5.408263    1.030516   -0.356781
 ---------------------------------------------------------------------

 SCF Done:  E(UB3LYP) =  -836.224570015     A.U. after    1 cycles

 Alpha  occ. eigenvalues --  -19.07883 -19.07822 -10.22681 -10.22179 -10.20294
 Alpha  occ. eigenvalues --  -10.18157 -10.17272 -10.17131 -10.15851 -10.15733
 Alpha  occ. eigenvalues --  -10.15338 -10.15295  -6.83219  -4.85580  -4.84575
 Alpha  occ. eigenvalues --   -4.84478  -1.90400  -1.90080  -1.90007  -1.89137
 Alpha  occ. eigenvalues --   -1.89135  -1.00282  -0.99717  -0.83689  -0.80334
 Alpha  occ. eigenvalues --   -0.75118  -0.71747  -0.68126  -0.66930  -0.66614
 Alpha  occ. eigenvalues --   -0.59990  -0.56176  -0.53743  -0.49328  -0.46341
 Alpha  occ. eigenvalues --   -0.44188  -0.43276  -0.42875  -0.41555  -0.40862
 Alpha  occ. eigenvalues --   -0.40055  -0.38435  -0.38341  -0.37709  -0.37324
 Alpha  occ. eigenvalues --   -0.37193  -0.34993  -0.33896  -0.33293  -0.32235
 Alpha  occ. eigenvalues --   -0.29181  -0.26892  -0.25889  -0.24560  -0.23611
 Alpha  occ. eigenvalues --   -0.23467  -0.16257
 Alpha virt. eigenvalues --   -0.02399  -0.01043  -0.00340   0.00626   0.01579
 Alpha virt. eigenvalues --    0.01905   0.02774   0.02983   0.03493   0.04105
 Alpha virt. eigenvalues --    0.04785   0.05024   0.05499   0.05884   0.06783

  Beta  occ. eigenvalues --  -19.07227 -19.07107 -10.22524 -10.22034 -10.20214
  Beta  occ. eigenvalues --  -10.17996 -10.17163 -10.17134 -10.15776 -10.15745
  Beta  occ. eigenvalues --  -10.15336 -10.15286  -6.83218  -4.85583  -4.84570
  Beta  occ. eigenvalues --   -4.84478  -1.90402  -1.90079  -1.90010  -1.89134
  Beta  occ. eigenvalues --   -1.89132  -0.99130  -0.98455  -0.83153  -0.80161
  Beta  occ. eigenvalues --   -0.74922  -0.71397  -0.68068  -0.66794  -0.65909
  Beta  occ. eigenvalues --   -0.59710  -0.55803  -0.53453  -0.49120  -0.46003
  Beta  occ. eigenvalues --   -0.43982  -0.43093  -0.42087  -0.41143  -0.40518
  Beta  occ. eigenvalues --   -0.39589  -0.38252  -0.37531  -0.37489  -0.36959
  Beta  occ. eigenvalues --   -0.35014  -0.34429  -0.33752  -0.33148  -0.32102
  Beta  occ. eigenvalues --   -0.28020  -0.25776  -0.24514  -0.23928  -0.23020
  Beta  occ. eigenvalues --   -0.22915
  Beta virt. eigenvalues --   -0.09101  -0.02292  -0.00342   0.00310   0.00669
  Beta virt. eigenvalues --    0.01658   0.02007   0.03002   0.03475   0.04011
  Beta virt. eigenvalues --    0.04659   0.05053   0.05279   0.05587   0.05928

 Mulliken charges and spin densities:
               1          2
     1  C   -1.093984   0.096202
     2  C    0.930455   0.079309
     3  C   -0.177234   0.049625
     4  C   -1.061206   0.101102
     5  C    1.051149   0.149129
     6  C    0.191640   0.014947
     7  O   -0.481332   0.253890
     8  H    0.163343  -0.005483
     9  O   -0.408934   0.241510
    10  I   -0.174917  -0.000537
    11  C   -0.386532   0.000231
    12  C    0.159863   0.000539
    13  C   -0.700962   0.009537
    14  C   -0.580409   0.000815
    15  H    0.182575  -0.002221
    16  H    0.150179   0.005600
    17  H    0.146051   0.005216
    18  H    0.197788   0.001796
    19  H    0.137930   0.001690
    20  H    0.147726  -0.000975
    21  H    0.167958  -0.001306
    22  H    0.166155  -0.000377
    23  H    0.133809  -0.000134
    24  H    0.138890  -0.000107
 Sum of Mulliken charges =  -1.00000   1.00000

 Dipole moment (field-independent basis, Debye):
    X=              4.3001    Y=             -4.0889    Z=             -1.1116  Tot=              6.0370
 Quadrupole moment (field-independent basis, Debye-Ang):
   XX=           -109.0544   YY=           -134.0564   ZZ=           -115.9672
   XY=             -2.1953   XZ=             -3.1005   YZ=            -18.5407

  Exact polarizability: 283.974   5.655 281.154  25.926  73.508 209.382
 Approx polarizability: 283.936   9.957 322.121  24.794  90.884 240.115

                      1                      2                      3
                      A                      A                      A
 Frequencies --     43.1786                74.4976                78.6946
 Red. masses --      3.1985                 2.1186                 3.4557
 Frc consts  --      0.0035                 0.0069                 0.0126
 IR Inten    --      2.6633                 5.1210                 4.3235

                      4                      5                      6
                      A                      A                      A
 Frequencies --    104.2457               125.6163               139.1401
 Red. masses --      1.5165                 5.5037                 5.5744
 Frc consts  --      0.0097                 0.0512                 0.0636
 IR Inten    --      0.1315                 6.3829                 8.3010

                      7                      8                      9
                      A                      A                      A
 Frequencies --    189.5993               207.0498               231.9160
 Red. masses --      4.6860                 3.5492                 4.0759
 Frc consts  --      0.0992                 0.0896                 0.1292
 IR Inten    --      0.7589                 0.8451                 0.1838

                     10                     11                     12
                      A                      A                      A
 Frequencies --    243.9880               265.3597               268.8707
 Red. masses --      1.3077                 1.0712                 3.8411
 Frc consts  --      0.0459                 0.0444                 0.1636
 IR Inten    --      0.5609                 0.1468                 2.5499

                     13                     14                     15
                      A                      A                      A
 Frequencies --    306.3267               344.4865               413.1053
 Red. masses --      3.6522                 3.4022                 5.8004
 Frc consts  --      0.2019                 0.2379                 0.5832
 IR Inten    --      4.6328                 6.8215                33.8877

                     16                     17                     18
                      A                      A                      A
 Frequencies --    414.7062               437.4059               482.9453
 Red. masses --      3.3277                 4.5803                 5.7703
 Frc consts  --      0.3372                 0.5163                 0.7929
 IR Inten    --      1.4846                 0.5293                 0.1055

                     19                     20                     21
                      A                      A                      A
 Frequencies --    516.1087               550.6856               666.7206
 Red. masses --      5.2297                 3.8043                 4.8154
 Frc consts  --      0.8207                 0.6797                 1.2612
 IR Inten    --      2.4770                 8.2193                 8.7493

                     22                     23                     24
                      A                      A                      A
 Frequencies --    682.6371               694.3440               747.7021
 Red. masses --      4.9906                 4.4333                 6.1647
 Frc consts  --      1.3702                 1.2593                 2.0306
 IR Inten    --     76.5186                19.2096                29.4011

                     25                     26                     27
                      A                      A                      A
 Frequencies --    765.7792               855.7499               886.7445
 Red. masses --      7.3308                 3.1316                 1.5803
 Frc consts  --      2.5328                 1.3512                 0.7321
 IR Inten    --      9.5045                56.5890                33.4460

                     28                     29                     30
                      A                      A                      A
 Frequencies --    896.1610               928.3230               962.1549
 Red. masses --      2.3138                 1.1756                 1.4810
 Frc consts  --      1.0948                 0.5969                 0.8078
 IR Inten    --     22.8564                 4.8013                 1.6598

                     31                     32                     33
                      A                      A                      A
 Frequencies --   1016.8022              1041.1184              1055.8692
 Red. masses --      2.0772                 1.4663                 2.6840
 Frc consts  --      1.2653                 0.9364                 1.7630
 IR Inten    --    158.5993                 0.5598                 9.3251

                     34                     35                     36
                      A                      A                      A
 Frequencies --   1105.9612              1122.7336              1166.1266
 Red. masses --      2.0816                 2.1475                 2.5093
 Frc consts  --      1.5001                 1.5949                 2.0105
 IR Inten    --      4.1383                12.7458                58.1885

                     37                     38                     39
                      A                      A                      A
 Frequencies --   1172.6986              1201.3639              1279.6731
 Red. masses --      7.5526                 2.0304                 1.7224
 Frc consts  --      6.1196                 1.7266                 1.6618
 IR Inten    --     13.3647                35.2004                14.0080

                     40                     41                     42
                      A                      A                      A
 Frequencies --   1333.1801              1335.9657              1383.4317
 Red. masses --      1.8929                 1.4562                 1.2537
 Frc consts  --      1.9822                 1.5313                 1.4137
 IR Inten    --     60.2696                20.5412                13.1771

                     43                     44                     45
                      A                      A                      A
 Frequencies --   1387.6785              1406.0739              1410.7229
 Red. masses --      1.2946                 1.3799                 2.0824
 Frc consts  --      1.4688                 1.6074                 2.4417
 IR Inten    --     49.0803                 6.1315                52.6976

                     46                     47                     48
                      A                      A                      A
 Frequencies --   1466.6602              1477.9370              1481.3636
 Red. masses --      1.2380                 1.0718                 1.1353
 Frc consts  --      1.5691                 1.3793                 1.4679
 IR Inten    --    248.8677                37.1106               122.2765

                     49                     50                     51
                      A                      A                      A
 Frequencies --   1481.8277              1486.6928              1492.6892
 Red. masses --      1.0472                 3.4593                 1.2050
 Frc consts  --      1.3548                 4.5049                 1.5818
 IR Inten    --     16.2500               361.2658               109.7014

                     52                     53                     54
                      A                      A                      A
 Frequencies --   1498.3071              1502.0109              1507.4920
 Red. masses --      2.1927                 1.4085                 6.4570
 Frc consts  --      2.9002                 1.8722                 8.6455
 IR Inten    --    164.5754               120.6617               168.9141

                     55                     56                     57
                      A                      A                      A
 Frequencies --   1625.9860              3012.5104              3019.1170
 Red. masses --      7.3449                 1.0358                 1.0358
 Frc consts  --     11.4411                 5.5385                 5.5630
 IR Inten    --     63.6054                60.1290                67.2348

                     58                     59                     60
                      A                      A                      A
 Frequencies --   3021.4111              3036.3847              3065.2979
 Red. masses --      1.0396                 1.0827                 1.0999
 Frc consts  --      5.5916                 5.8814                 6.0888
 IR Inten    --     35.7638                 4.3436                27.3365

                     61                     62                     63
                      A                      A                      A
 Frequencies --   3070.7013              3079.5429              3084.5109
 Red. masses --      1.1022                 1.1001                 1.1020
 Frc consts  --      6.1235                 6.1467                 6.1774
 IR Inten    --     19.6508               131.5402                57.2557

                     64                     65                     66
                      A                      A                      A
 Frequencies --   3097.8183              3129.3707              3163.7369
 Red. masses --      1.0997                 1.0967                 1.0891
 Frc consts  --      6.2180                 6.3277                 6.4228
 IR Inten    --     43.7243                14.5920                32.7057

 - Thermochemistry -
 -------------------
 Temperature   298.150 Kelvin.  Pressure   1.00000 Atm.
 Atom     1 has atomic number  6 and mass  12.00000

 Molecular mass:   289.97630 amu.
 Principal axes and moments of inertia in atomic units:
                           1         2         3
     Eigenvalues --  2224.021955604.025827524.65392
           X            0.97220  -0.15908  -0.17180
           Y            0.05870   0.87590  -0.47890
           Z            0.22666   0.45551   0.86089
 This molecule is an asymmetric top.
 Rotational symmetry number  1.
 Warning -- assumption of classical behavior for rotation
           may cause significant error
 Rotational temperatures (Kelvin)      0.03894     0.01546     0.01151
 Rotational constants (GHZ):           0.81148     0.32204     0.23984
 Zero-point vibrational energy     482962.4 (Joules/Mol)
                                  115.43079 (Kcal/Mol)
 Warning -- explicit consideration of  20 degrees of freedom as
           vibrations may cause significant error
 Vibrational temperatures:     62.12   107.19   113.22   149.99   180.73
          (Kelvin)            200.19   272.79   297.90   333.68   351.04
                              381.79   386.85   440.74   495.64   594.37
                              596.67   629.33   694.85   742.57   792.31
                              959.26   982.16   999.01  1075.78  1101.79
                             1231.23  1275.83  1289.38  1335.65  1384.33
                             1462.95  1497.94  1519.16  1591.23  1615.36
                             1677.80  1687.25  1728.49  1841.16  1918.15
                             1922.16  1990.45  1996.56  2023.03  2029.72
                             2110.20  2126.42  2131.35  2132.02  2139.02
                             2147.65  2155.73  2161.06  2168.94  2339.43
                             4334.33  4343.84  4347.14  4368.68  4410.28
                             4418.05  4430.78  4437.92  4457.07  4502.47
                             4551.91

 Zero-point correction=                           0.183951 (Hartree/Particle)
 Thermal correction to Energy=                    0.197735
 Thermal correction to Enthalpy=                  0.198679
 Thermal correction to Gibbs Free Energy=         0.141361
 Sum of electronic and zero-point Energies=           -836.040619
 Sum of electronic and thermal Energies=              -836.026835
 Sum of electronic and thermal Enthalpies=            -836.025891
 Sum of electronic and thermal Free Energies=         -836.083209

                     E (Thermal)             CV                S
                      KCal/Mol        Cal/Mol-Kelvin    Cal/Mol-Kelvin
 Total                  124.080             49.856            120.635
 Electronic               0.000              0.000              1.377
 Translational            0.889              2.981             42.891
 Rotational               0.889              2.981             32.906
 Vibrational            122.303             43.894             43.460
 Vibration     1          0.595              1.980              5.108
 Vibration     2          0.599              1.966              4.031
 Vibration     3          0.600              1.963              3.923
 Vibration     4          0.605              1.946              3.373
 Vibration     5          0.611              1.927              3.012
 Vibration     6          0.615              1.914              2.816
 Vibration     7          0.633              1.854              2.232
 Vibration     8          0.641              1.830              2.070
 Vibration     9          0.653              1.792              1.864
 Vibration    10          0.659              1.773              1.774
 Vibration    11          0.671              1.737              1.626
 Vibration    12          0.673              1.730              1.603
 Vibration    13          0.697              1.662              1.382
 Vibration    14          0.723              1.586              1.191
 Vibration    15          0.777              1.442              0.916
 Vibration    16          0.778              1.438              0.910
 Vibration    17          0.798              1.389              0.835
 Vibration    18          0.839              1.288              0.702
 Vibration    19          0.871              1.214              0.619
 Vibration    20          0.906              1.138              0.543

 Optimization completed.
    -- Stationary point found.
 Normal termination of Gaussian 16 at Sat Feb 10 11:02:13 2024.
