 Q-Chem 5.4, Q-Chem, Inc., Pleasanton, CA (2021)
 Q-Chem 5.4.0 for Intel X86 EM64T Linux

User input:
--------------------------------------------------------------
$molecule
-1 2
C                  1.8427370000      0.9031210000     -0.7440240000
C                  0.5685620000      1.3887350000     -0.2292010000
C                 -0.4366050000      0.5430040000      0.1769180000
C                 -0.3225650000     -0.9076570000      0.0951070000
C                  0.9517440000     -1.3953310000     -0.4283400000
C                  1.9608860000     -0.5515430000     -0.8191080000
O                  2.7817950000      1.6576130000     -1.0865330000
O                 -1.2399200000     -1.6924560000      0.4283840000
O                  3.1583130000     -1.0894780000     -1.2227240000
C                  3.5276640000     -0.8284740000     -2.5767430000
Br                 0.4139360000      3.2978020000     -0.1306190000
Br                -2.1090900000      1.1826810000      0.8639110000
H                  4.4981030000     -1.3068580000     -2.7234180000
H                  3.6101360000      0.2448570000     -2.7577140000
H                  2.7990470000     -1.2764700000     -3.2643660000
O                  1.1095380000     -2.7478480000     -0.6068040000
C                  1.1169140000     -3.5317290000      0.5863070000
H                  1.2330500000     -4.5691180000      0.2661790000
H                  0.1808390000     -3.4136800000      1.1353060000
H                  1.9686860000     -3.2540780000      1.2201400000
$end
$rem
MAX_SCF_CYCLES=200
BASIS  =  6-311++G(d,p)
GUI  =  2
JOB_TYPE  =  SP
METHOD  =  B3LYP
SOLVENT_METHOD = COSMO
$end
$solvent
dielectric 37.219
opticaldielectric 1.43
$end

--------------------------------------------------------------

             Standard Nuclear Orientation (Angstroms)
    I     Atom           X                Y                Z
 ----------------------------------------------------------------
    1      C       0.7022237284    -1.4660638698    -0.1346512039
    2      C      -0.5259527978    -0.6852678713    -0.0551173240
    3      C      -0.5261553320     0.6852585757     0.0553882479
    4      C       0.7017369138     1.4663191003     0.1350160559
    5      C       1.9337080900     0.6835154635     0.0632413611
    6      C       1.9339602077    -0.6829329946    -0.0627107840
    7      O       0.7215248606    -2.7109787297    -0.2696140821
    8      O       0.7208383029     2.7112953109     0.2698959918
    9      O       3.1329794650    -1.3370451231    -0.2062430243
   10      C       3.4649577751    -2.2542180639     0.8361076364
   11      Br     -2.1422224323    -1.7133145431    -0.1497583853
   12      Br     -2.1427726920     1.7128876890     0.1496158361
   13      H       4.4262964790    -2.6917720700     0.5595374864
   14      H       2.7094405065    -3.0375835566     0.9205098335
   15      H       3.5732592040    -1.7241161571     1.7909224393
   16      O       3.1324481047     1.3381444641     0.2065376608
   17      C       3.4647082441     2.2541749595    -0.8367882793
   18      H       4.4258985722     2.6921437771    -0.5603069740
   19      H       2.7091108013     3.0373278660    -0.9223213344
   20      H       3.5733769482     1.7229008589    -1.7908788580
 ----------------------------------------------------------------

    9   -5757.8328026443      8.06e-06  Convergence criterion met
 Total energy in the final basis set =    -5757.8328026443
    4   -5757.9147431013      9.36e-06  Convergence criterion met
 Total energy in the final basis set =    -5757.9147431013

                    Orbital Energies (a.u.)
 --------------------------------------------------------------

 Alpha MOs
 -- Occupied --
********-482.8329 -62.4856 -62.4856 -56.3061 -56.3061 -56.3024 -56.3024
-56.3020 -56.3020 -19.1449 -19.1448 -19.0964 -19.0964 -10.2476 -10.2476
-10.2348 -10.2342 -10.2323 -10.2317 -10.2075 -10.2075  -8.6943  -8.6943
 -6.5257  -6.5257  -6.5133  -6.5133  -6.5121  -6.5121  -2.6366  -2.6366
 -2.6334  -2.6333  -2.6324  -2.6324  -2.6225  -2.6225  -2.6224  -2.6224
 -1.0725  -1.0534  -1.0215  -1.0183  -0.8664  -0.8040  -0.7971  -0.7363
 -0.7161  -0.6754  -0.6700  -0.5892  -0.5840  -0.5334  -0.5076  -0.4975
 -0.4767  -0.4506  -0.4502  -0.4472  -0.4356  -0.4293  -0.4223  -0.4025
 -0.3929  -0.3911  -0.3592  -0.3549  -0.3436  -0.3107  -0.3080  -0.3004
 -0.3003  -0.2810  -0.2739  -0.2562  -0.2559  -0.2379  -0.1778

 Beta MOs
 -- Occupied --
********-482.8328 -62.4856 -62.4856 -56.3061 -56.3061 -56.3023 -56.3023
-56.3020 -56.3020 -19.1448 -19.1447 -19.0898 -19.0898 -10.2462 -10.2462
-10.2333 -10.2326 -10.2316 -10.2310 -10.2074 -10.2074  -8.6943  -8.6942
 -6.5257  -6.5257  -6.5131  -6.5131  -6.5121  -6.5121  -2.6366  -2.6366
 -2.6333  -2.6333  -2.6324  -2.6324  -2.6224  -2.6224  -2.6223  -2.6223
 -1.0713  -1.0518  -1.0107  -1.0078  -0.8616  -0.8018  -0.7954  -0.7346
 -0.7127  -0.6687  -0.6680  -0.5859  -0.5804  -0.5316  -0.5056  -0.4958
 -0.4726  -0.4488  -0.4462  -0.4448  -0.4346  -0.4226  -0.4092  -0.3958
 -0.3911  -0.3695  -0.3576  -0.3541  -0.3307  -0.3098  -0.3048  -0.2971
 -0.2953  -0.2788  -0.2552  -0.2512  -0.2507  -0.2322

          Ground-State Mulliken Net Atomic Charges

     Atom                 Charge (a.u.)    Spin (a.u.)
  --------------------------------------------------------
      1 C                    -0.418007       0.079275
      2 C                     0.360701       0.097420
      3 C                     0.360931       0.097306
      4 C                    -0.418911       0.079330
      5 C                     0.115210       0.071771
      6 C                     0.120198       0.071681
      7 O                    -0.424172       0.239615
      8 O                    -0.424253       0.239695
      9 O                    -0.199233       0.000577
     10 C                    -0.293490       0.002526
     11 Br                   -0.148360       0.008386
     12 Br                   -0.148432       0.008380
     13 H                     0.171950       0.000303
     14 H                     0.177102      -0.000083
     15 H                     0.155891       0.000253
     16 O                    -0.198470       0.000570
     17 C                    -0.293438       0.002523
     18 H                     0.171960       0.000303
     19 H                     0.176963      -0.000083
     20 H                     0.155862       0.000253
  --------------------------------------------------------
  Sum of atomic charges =    -1.000000

                    Cartesian Multipole Moments
 -----------------------------------------------------------------
    Charge (ESU x 10^10)
                -4.8032
    Dipole Moment (Debye)
         X      -0.8057      Y      -0.0039      Z      -0.0013
       Tot       0.8057
    Quadrupole Moments (Debye-Ang)
        XX    -115.4263     XY      -0.0022     YY    -141.0364
        XZ      -0.0016     YZ     -10.0475     ZZ    -108.5492

 Total job time:  61.74s(wall), 414.68s(cpu)
        *  Thank you very much for using Q-Chem.  Have a nice day.  *
