 Gaussian 16, Revision A.03,
 Gaussian 16:  ES64L-G16RevA.03 25-Dec-2016

 ----------------------------------------------------------------------
 #P UB3LYP/6-311++G(d,p) nosym opt freq SCRF=(PCM,Solvent=n,n-DiMethylF
 ormamide)
 ----------------------------------------------------------------------

 -------
 Reduced
 -------
 Symbolic Z-matrix:
 Charge = -2 Multiplicity = 1

 SCF Done:  E(UB3LYP) =  -1140.74083110     A.U. after   15 cycles
 SCF Done:  E(UB3LYP) =  -1140.74205007     A.U. after   13 cycles
 SCF Done:  E(UB3LYP) =  -1140.74220179     A.U. after   13 cycles
 SCF Done:  E(UB3LYP) =  -1140.74233096     A.U. after   11 cycles
 SCF Done:  E(UB3LYP) =  -1140.74234435     A.U. after   10 cycles
 SCF Done:  E(UB3LYP) =  -1140.74234559     A.U. after   10 cycles
 SCF Done:  E(UB3LYP) =  -1140.74234637     A.U. after    9 cycles
 SCF Done:  E(UB3LYP) =  -1140.74234666     A.U. after    8 cycles
 Optimization completed.
    -- Stationary point found.
 Normal termination of Gaussian 16 at Sat Feb 10 23:35:07 2024.

 ----------------------------------------------------------------------
 #P Geom=AllCheck Guess=TCheck SCRF=Check GenChk UB3LYP/6-311++G(d,p) F
 req
 ----------------------------------------------------------------------

 Structure from the checkpoint file:  "208-an.chk"
 -------
 Reduced
 -------
 Charge = -2 Multiplicity = 1

                          Input orientation:
 ---------------------------------------------------------------------
 Center     Atomic      Atomic             Coordinates (Angstroms)
 Number     Number       Type             X           Y           Z
 ---------------------------------------------------------------------
      1          8           0        4.589266    1.533748   -1.450588
      2          6           0        3.481013    0.974806   -0.845184
      3          6           0        2.221746    1.218961   -1.342537
      4          6           0        1.085356    0.631161   -0.703413
      5          6           0       -0.225226    0.846265   -1.167490
      6          8           0       -0.414336    1.647571   -2.268422
      7          6           0       -1.335028    0.260080   -0.528464
      8          6           0       -2.676098    0.494245   -1.022159
      9          8           0       -2.923994    1.251027   -2.072516
     10          6           0       -3.747606   -0.105428   -0.360218
     11          8           0       -5.014934    0.140834   -0.859065
     12          6           0       -3.556857   -0.928416    0.767985
     13          8           0       -4.694430   -1.468202    1.336691
     14          6           0       -2.291236   -1.168617    1.260411
     15          6           0       -1.151940   -0.582790    0.627991
     16          6           0        0.157557   -0.798326    1.093774
     17          8           0        0.344526   -1.600169    2.195144
     18          6           0        1.267188   -0.212352    0.455830
     19          6           0        2.607529   -0.448807    0.956092
     20          8           0        2.856817   -1.202177    2.007116
     21          6           0        3.665324    0.154896    0.285140
     22          8           0        4.955483   -0.059939    0.750240
     23          1           0        5.371179    1.249001   -0.959109
     24          1           0        2.093022    1.850116   -2.211358
     25          1           0       -1.410629    1.651744   -2.407983
     26          1           0       -4.833857    0.723230   -1.621048
     27          1           0       -4.435007   -2.003727    2.095614
     28          1           0       -2.154519   -1.802150    2.128697
     29          1           0        1.340200   -1.604164    2.337988
     30          1           0        4.829493   -0.642423    1.520844
 ---------------------------------------------------------------------

 SCF Done:  E(UB3LYP) =  -1140.74234666     A.U. after    1 cycles

 Alpha  occ. eigenvalues --  -19.14547 -19.14401 -19.13665 -19.12801 -19.10851
 Alpha  occ. eigenvalues --  -19.10791 -19.06032 -19.06003 -10.21870 -10.21694
 Alpha  occ. eigenvalues --  -10.20260 -10.20208 -10.20182 -10.20125 -10.19272
 Alpha  occ. eigenvalues --  -10.19171 -10.15855 -10.15854 -10.15541 -10.15503
 Alpha  occ. eigenvalues --  -10.14232 -10.13970  -1.05963  -1.05550  -1.03555
 Alpha  occ. eigenvalues --   -1.03484  -1.02308  -1.02151  -0.95977  -0.95827
 Alpha  occ. eigenvalues --   -0.84338  -0.81522  -0.76738  -0.73128  -0.71520
 Alpha  occ. eigenvalues --   -0.70646  -0.66392  -0.63192  -0.61537  -0.59366
 Alpha  occ. eigenvalues --   -0.57359  -0.55136  -0.53124  -0.52601  -0.51656
 Alpha  occ. eigenvalues --   -0.50937  -0.49529  -0.47008  -0.45634  -0.44283
 Alpha  occ. eigenvalues --   -0.42743  -0.42685  -0.41842  -0.41485  -0.40426
 Alpha  occ. eigenvalues --   -0.40070  -0.39937  -0.39237  -0.38102  -0.37788
 Alpha  occ. eigenvalues --   -0.37192  -0.36431  -0.36178  -0.35943  -0.35774
 Alpha  occ. eigenvalues --   -0.34468  -0.33706  -0.32950  -0.32192  -0.31901
 Alpha  occ. eigenvalues --   -0.29656  -0.28160  -0.24521  -0.23664  -0.23276
 Alpha  occ. eigenvalues --   -0.21131  -0.19511  -0.17823  -0.12953
 Alpha virt. eigenvalues --   -0.01816  -0.00549  -0.00097   0.01029   0.01473
 Alpha virt. eigenvalues --    0.02031   0.02121   0.03443   0.03975   0.04630
 Alpha virt. eigenvalues --    0.04836   0.04884   0.06344   0.06761   0.06928

  Beta  occ. eigenvalues --  -19.14547 -19.14401 -19.13665 -19.12801 -19.10851
  Beta  occ. eigenvalues --  -19.10791 -19.06032 -19.06003 -10.21870 -10.21694
  Beta  occ. eigenvalues --  -10.20260 -10.20208 -10.20182 -10.20125 -10.19272
  Beta  occ. eigenvalues --  -10.19171 -10.15855 -10.15854 -10.15541 -10.15503
  Beta  occ. eigenvalues --  -10.14232 -10.13970  -1.05963  -1.05550  -1.03555
  Beta  occ. eigenvalues --   -1.03484  -1.02308  -1.02151  -0.95977  -0.95827
  Beta  occ. eigenvalues --   -0.84338  -0.81522  -0.76738  -0.73128  -0.71520
  Beta  occ. eigenvalues --   -0.70646  -0.66392  -0.63192  -0.61537  -0.59366
  Beta  occ. eigenvalues --   -0.57359  -0.55136  -0.53124  -0.52601  -0.51656
  Beta  occ. eigenvalues --   -0.50937  -0.49529  -0.47008  -0.45634  -0.44283
  Beta  occ. eigenvalues --   -0.42743  -0.42685  -0.41842  -0.41485  -0.40426
  Beta  occ. eigenvalues --   -0.40070  -0.39937  -0.39237  -0.38102  -0.37788
  Beta  occ. eigenvalues --   -0.37192  -0.36431  -0.36178  -0.35943  -0.35774
  Beta  occ. eigenvalues --   -0.34468  -0.33706  -0.32950  -0.32192  -0.31901
  Beta  occ. eigenvalues --   -0.29656  -0.28160  -0.24521  -0.23664  -0.23276
  Beta  occ. eigenvalues --   -0.21131  -0.19511  -0.17823  -0.12953
  Beta virt. eigenvalues --   -0.01816  -0.00549  -0.00097   0.01029   0.01473
  Beta virt. eigenvalues --    0.02031   0.02121   0.03443   0.03975   0.04630
  Beta virt. eigenvalues --    0.04836   0.04884   0.06344   0.06761   0.06928

 Mulliken charges and spin densities:
               1          2
     1  O   -0.324537   0.000000
     2  C   -0.400892  -0.000000
     3  C   -0.476214  -0.000000
     4  C    0.769714  -0.000000
     5  C   -0.238534   0.000000
     6  O   -0.488967  -0.000000
     7  C    0.747060   0.000000
     8  C   -0.639005   0.000000
     9  O   -0.663077  -0.000000
    10  C   -0.269144  -0.000000
    11  O   -0.372883   0.000000
    12  C   -0.416190  -0.000000
    13  O   -0.327154   0.000000
    14  C   -0.229578   0.000000
    15  C    0.765993  -0.000000
    16  C   -0.176810   0.000000
    17  O   -0.490676  -0.000000
    18  C    0.723787  -0.000000
    19  C   -0.640553  -0.000000
    20  O   -0.664906   0.000000
    21  C   -0.126804   0.000000
    22  O   -0.383857  -0.000000
    23  H    0.300466   0.000000
    24  H    0.159763  -0.000000
    25  H    0.408030   0.000000
    26  H    0.303872   0.000000
    27  H    0.300764  -0.000000
    28  H    0.140355   0.000000
    29  H    0.404150  -0.000000
    30  H    0.305826  -0.000000
 Sum of Mulliken charges =  -2.00000  -0.00000

 Dipole moment (field-independent basis, Debye):
    X=              2.4628    Y=             -1.9255    Z=              2.9141  Tot=              4.2737
 Quadrupole moment (field-independent basis, Debye-Ang):
   XX=           -224.4764   YY=           -148.3717   ZZ=           -160.8209
   XY=              3.7089   XZ=            -16.7792   YZ=             16.4296

  Exact polarizability: 522.260  33.094 236.405   5.061-107.325 298.205
 Approx polarizability: 576.267  39.165 283.692   1.468-143.114 365.953

                      1                      2                      3
                      A                      A                      A
 Frequencies --     48.3354                64.2715               106.3084
 Red. masses --      9.4784                 8.1496                10.5988
 Frc consts  --      0.0130                 0.0198                 0.0706
 IR Inten    --      1.9214                 4.1369                 0.0541

                      4                      5                      6
                      A                      A                      A
 Frequencies --    128.1357               143.7658               156.6112
 Red. masses --      9.8316                12.4839                 8.1066
 Frc consts  --      0.0951                 0.1520                 0.1171
 IR Inten    --      0.0010                 0.1539                 9.6574

                      7                      8                      9
                      A                      A                      A
 Frequencies --    160.7899               180.1633               257.5001
 Red. masses --      8.6554                 8.3981                 5.7693
 Frc consts  --      0.1318                 0.1606                 0.2254
 IR Inten    --      1.1749                 0.5558                10.4850

                     10                     11                     12
                      A                      A                      A
 Frequencies --    266.9025               277.7798               282.0871
 Red. masses --      6.3798                 3.2849                 6.0418
 Frc consts  --      0.2678                 0.1493                 0.2833
 IR Inten    --      6.6999                97.3630                34.7672

                     13                     14                     15
                      A                      A                      A
 Frequencies --    287.3159               293.9383               307.8127
 Red. masses --      2.5744                 3.6914                 8.4569
 Frc consts  --      0.1252                 0.1879                 0.4721
 IR Inten    --     37.9967                41.0364                22.1792

                     16                     17                     18
                      A                      A                      A
 Frequencies --    319.6016               325.1101               340.3669
 Red. masses --      1.3800                 1.7840                 6.5850
 Frc consts  --      0.0831                 0.1111                 0.4495
 IR Inten    --    121.4205               105.8335                49.2994

                     19                     20                     21
                      A                      A                      A
 Frequencies --    355.6012               376.0270               379.6319
 Red. masses --      7.9626                 7.5068                 6.9199
 Frc consts  --      0.5932                 0.6254                 0.5876
 IR Inten    --      0.6741                87.8590                73.6040

                     22                     23                     24
                      A                      A                      A
 Frequencies --    385.7114               430.2157               443.7004
 Red. masses --      5.0708                 8.4758                12.0362
 Frc consts  --      0.4445                 0.9243                 1.3961
 IR Inten    --      0.0064                10.8447                32.6870

                     25                     26                     27
                      A                      A                      A
 Frequencies --    465.4317               488.0792               518.5960
 Red. masses --      1.2245                11.1966                 1.2622
 Frc consts  --      0.1563                 1.5715                 0.2000
 IR Inten    --     59.0894                 0.0033               126.7243

                     28                     29                     30
                      A                      A                      A
 Frequencies --    526.0832               538.1809               570.4395
 Red. masses --     10.8830                10.6072                 5.9115
 Frc consts  --      1.7746                 1.8101                 1.1334
 IR Inten    --     45.4994                 4.2209                 8.8740

                     31                     32                     33
                      A                      A                      A
 Frequencies --    599.6720               612.3146               625.8571
 Red. masses --      3.0561                 4.9919                 9.2061
 Frc consts  --      0.6475                 1.1027                 2.1246
 IR Inten    --      1.9492                38.2094                27.5409

                     34                     35                     36
                      A                      A                      A
 Frequencies --    627.9472               654.1320               665.5349
 Red. masses --      7.6823                 5.1744                 6.6729
 Frc consts  --      1.7848                 1.3045                 1.7414
 IR Inten    --      2.4656                12.9813                 4.7557

                     37                     38                     39
                      A                      A                      A
 Frequencies --    672.7368               681.8463               694.8545
 Red. masses --      9.2021                 6.2090                 4.3120
 Frc consts  --      2.4537                 1.7008                 1.2266
 IR Inten    --      2.4949               213.7749                64.5306

                     40                     41                     42
                      A                      A                      A
 Frequencies --    701.1737               751.7975               765.7637
 Red. masses --      8.5393                 1.7066                 6.2748
 Frc consts  --      2.4736                 0.5683                 2.1679
 IR Inten    --     16.3276                13.4653                94.3576

                     43                     44                     45
                      A                      A                      A
 Frequencies --    772.2712               794.4282               870.6672
 Red. masses --      1.7378                 6.7169                 1.0552
 Frc consts  --      0.6107                 2.4976                 0.4713
 IR Inten    --     56.5801                10.5863                 7.7603

                     46                     47                     48
                      A                      A                      A
 Frequencies --    871.5429               890.5581               990.8810
 Red. masses --      1.0557                 8.3183                 8.0720
 Frc consts  --      0.4725                 3.8870                 4.6696
 IR Inten    --    247.6575                 0.3436               664.5701

                     49                     50                     51
                      A                      A                      A
 Frequencies --   1028.0223              1049.0446              1089.3790
 Red. masses --      4.3482                 5.4000                 5.5223
 Frc consts  --      2.7075                 3.5013                 3.8612
 IR Inten    --    111.9053                18.0465               732.0810

                     52                     53                     54
                      A                      A                      A
 Frequencies --   1130.8798              1167.6586              1175.5576
 Red. masses --      3.2498                 4.5713                 1.6877
 Frc consts  --      2.4487                 3.6722                 1.3742
 IR Inten    --      5.2253                67.9109               505.1485

                     55                     56                     57
                      A                      A                      A
 Frequencies --   1207.2232              1222.6023              1240.0573
 Red. masses --      1.5984                 1.6535                 1.9904
 Frc consts  --      1.3725                 1.4562                 1.8033
 IR Inten    --    498.6713               413.6926               405.0271

                     58                     59                     60
                      A                      A                      A
 Frequencies --   1258.9666              1284.9994              1297.5160
 Red. masses --      6.0477                 3.0297                 3.5048
 Frc consts  --      5.6476                 2.9475                 3.4765
 IR Inten    --     55.9192               297.1917                92.6504

                     61                     62                     63
                      A                      A                      A
 Frequencies --   1340.7313              1347.8312              1373.8294
 Red. masses --      2.0692                 2.3513                 7.8915
 Frc consts  --      2.1914                 2.5167                 8.7756
 IR Inten    --    332.8152               104.3733               438.1956

                     64                     65                     66
                      A                      A                      A
 Frequencies --   1381.1762              1407.8033              1413.0935
 Red. masses --      7.3899                 4.8235                 5.5774
 Frc consts  --      8.3059                 5.6325                 6.5618
 IR Inten    --     12.7291               316.3478               304.5597

                     67                     68                     69
                      A                      A                      A
 Frequencies --   1422.8289              1442.0996              1486.9556
 Red. masses --      4.2533                 4.4099                 1.8394
 Frc consts  --      5.0732                 5.4034                 2.3962
 IR Inten    --   2454.0224                60.4693                 4.9506

                     70                     71                     72
                      A                      A                      A
 Frequencies --   1534.7894              1557.7616              1598.2347
 Red. masses --      4.8360                 2.6506                 5.6738
 Frc consts  --      6.7117                 3.7897                 8.5390
 IR Inten    --    155.1194               527.4223                 3.5876

                     73                     74                     75
                      A                      A                      A
 Frequencies --   1611.7673              1624.1724              1639.0857
 Red. masses --      4.8575                 2.7133                 5.3205
 Frc consts  --      7.4348                 4.2171                 8.4219
 IR Inten    --     99.5914               172.9167               211.3284

                     76                     77                     78
                      A                      A                      A
 Frequencies --   1662.0371              2955.1735              2961.3608
 Red. masses --      2.8907                 1.0742                 1.0746
 Frc consts  --      4.7047                 5.5274                 5.5524
 IR Inten    --      0.6783              2440.8072                95.9046

                     79                     80                     81
                      A                      A                      A
 Frequencies --   3179.4533              3203.3188              3605.0479
 Red. masses --      1.0896                 1.0899                 1.0642
 Frc consts  --      6.4895                 6.5891                 8.1489
 IR Inten    --     24.3513                14.8603               115.1013

                     82                     83                     84
                      A                      A                      A
 Frequencies --   3640.6639              3779.1009              3814.2145
 Red. masses --      1.0645                 1.0660                 1.0661
 Frc consts  --      8.3132                 8.9694                 9.1382
 IR Inten    --    125.5791               214.8456               102.4411

 - Thermochemistry -
 -------------------
 Temperature   298.150 Kelvin.  Pressure   1.00000 Atm.
 Atom     1 has atomic number  8 and mass  15.99491

 Molecular mass:   304.02192 amu.
 Principal axes and moments of inertia in atomic units:
                           1         2         3
     Eigenvalues --  2955.37550********************
           X            0.99640   0.02802  -0.07999
           Y            0.08093  -0.59483   0.79977
           Z            0.02517   0.80336   0.59496
 This molecule is an asymmetric top.
 Rotational symmetry number  1.
 Warning -- assumption of classical behavior for rotation
           may cause significant error
 Rotational temperatures (Kelvin)      0.02931     0.00844     0.00655
 Rotational constants (GHZ):           0.61066     0.17589     0.13656
 Zero-point vibrational energy     525178.0 (Joules/Mol)
                                  125.52056 (Kcal/Mol)
 Warning -- explicit consideration of  32 degrees of freedom as
           vibrations may cause significant error
 Vibrational temperatures:     69.54    92.47   152.95   184.36   206.85
          (Kelvin)            225.33   231.34   259.21   370.49   384.01
                              399.66   405.86   413.38   422.91   442.87
                              459.84   467.76   489.71   511.63   541.02
                              546.21   554.95   618.98   638.39   669.65
                              702.24   746.14   756.92   774.32   820.74
                              862.79   880.98   900.47   903.48   941.15
                              957.56   967.92   981.02   999.74  1008.83
                             1081.67  1101.76  1111.13  1143.00  1252.70
                             1253.96  1281.31  1425.66  1479.09  1509.34
                             1567.37  1627.08  1680.00  1691.37  1736.92
                             1759.05  1784.17  1811.37  1848.83  1866.84
                             1929.01  1939.23  1976.63  1987.20  2025.51
                             2033.13  2047.13  2074.86  2139.40  2208.22
                             2241.27  2299.50  2318.97  2336.82  2358.28
                             2391.30  4251.84  4260.74  4574.52  4608.86
                             5186.86  5238.10  5437.28  5487.80

 Zero-point correction=                           0.200030 (Hartree/Particle)
 Thermal correction to Energy=                    0.218065
 Thermal correction to Enthalpy=                  0.219010
 Thermal correction to Gibbs Free Energy=         0.155718
 Sum of electronic and zero-point Energies=          -1140.542317
 Sum of electronic and thermal Energies=             -1140.524281
 Sum of electronic and thermal Enthalpies=           -1140.523337
 Sum of electronic and thermal Free Energies=        -1140.586628

                     E (Thermal)             CV                S
                      KCal/Mol        Cal/Mol-Kelvin    Cal/Mol-Kelvin
 Total                  136.838             72.322            133.208
 Electronic               0.000              0.000              0.000
 Translational            0.889              2.981             43.032
 Rotational               0.889              2.981             34.349
 Vibrational            135.061             66.361             55.827
 Vibration     1          0.595              1.978              4.884
 Vibration     2          0.597              1.971              4.322
 Vibration     3          0.605              1.944              3.335
 Vibration     4          0.611              1.925              2.974
 Vibration     5          0.616              1.909              2.753
 Vibration     6          0.620              1.895              2.590
 Vibration     7          0.622              1.890              2.540
 Vibration     8          0.629              1.867              2.327
 Vibration     9          0.667              1.750              1.679
 Vibration    10          0.672              1.734              1.616
 Vibration    11          0.679              1.715              1.547
 Vibration    12          0.681              1.707              1.521
 Vibration    13          0.684              1.697              1.490
 Vibration    14          0.689              1.685              1.451
 Vibration    15          0.698              1.659              1.374
 Vibration    16          0.706              1.636              1.312
 Vibration    17          0.709              1.625              1.284
 Vibration    18          0.720              1.595              1.210
 Vibration    19          0.731              1.564              1.141
 Vibration    20          0.747              1.521              1.055
 Vibration    21          0.750              1.514              1.041
 Vibration    22          0.754              1.501              1.017
 Vibration    23          0.791              1.404              0.858
 Vibration    24          0.803              1.375              0.815
 Vibration    25          0.823              1.327              0.750
 Vibration    26          0.844              1.276              0.689
 Vibration    27          0.874              1.209              0.613
 Vibration    28          0.881              1.192              0.596
 Vibration    29          0.893              1.166              0.569
 Vibration    30          0.927              1.095              0.503
 Vibration    31          0.958              1.032              0.450
 Vibration    32          0.972              1.006              0.429

 Optimization completed.
    -- Stationary point found.
 Normal termination of Gaussian 16 at Sun Feb 11 01:32:52 2024.
