 Q-Chem 5.4, Q-Chem, Inc., Pleasanton, CA (2021)
 Q-Chem 5.4.0 for Intel X86 EM64T Linux

User input:
--------------------------------------------------------------
$molecule
-1 2
Cl                 3.0043150000     -0.8511890000     -0.1888820000
C                  1.3132820000     -0.3365110000     -0.0815040000
C                  1.0288330000      0.9974100000     -0.0260450000
C                 -0.3351400000      1.4787530000      0.0625630000
O                 -0.6120430000      2.7073470000      0.1144470000
C                 -1.3575070000      0.4531190000      0.0874050000
C                 -1.0394580000     -0.8733070000      0.0303460000
Cl                -2.3427650000     -2.0711040000      0.0653450000
C                  0.3171630000     -1.4033500000     -0.0593610000
O                  0.5926080000     -2.6188390000     -0.1107650000
H                  1.8190580000      1.7379970000     -0.0468030000
H                 -2.3883470000      0.7796740000      0.1532530000
$end
$rem
MAX_SCF_CYCLES=200
BASIS  =  6-311++G(d,p)
GUI  =  2
JOB_TYPE  =  SP
METHOD  =  B3LYP
SOLVENT_METHOD = PCM
$end
$pcm
theory = CPCM
$end
$solvent
dielectric 37.219
opticaldielectric 1.43
$end

--------------------------------------------------------------

             Standard Nuclear Orientation (Angstroms)
    I     Atom           X                Y                Z
 ----------------------------------------------------------------
    1      Cl      3.0043150000    -0.8511890000    -0.1888820000
    2      C       1.3132820000    -0.3365110000    -0.0815040000
    3      C       1.0288330000     0.9974100000    -0.0260450000
    4      C      -0.3351400000     1.4787530000     0.0625630000
    5      O      -0.6120430000     2.7073470000     0.1144470000
    6      C      -1.3575070000     0.4531190000     0.0874050000
    7      C      -1.0394580000    -0.8733070000     0.0303460000
    8      Cl     -2.3427650000    -2.0711040000     0.0653450000
    9      C       0.3171630000    -1.4033500000    -0.0593610000
   10      O       0.5926080000    -2.6188390000    -0.1107650000
   11      H       1.8190580000     1.7379970000    -0.0468030000
   12      H      -2.3883470000     0.7796740000     0.1532530000
 ----------------------------------------------------------------

    9   -1300.9777519002      7.31e-06  Convergence criterion met
 Total energy in the final basis set =    -1300.9777519002

                    Orbital Energies (a.u.)
 --------------------------------------------------------------

 Alpha MOs
 -- Occupied --
********-101.5547 -19.0977 -19.0930 -10.2497 -10.2395 -10.2371 -10.2370
-10.1812 -10.1812  -9.4691  -9.4691  -7.2335  -7.2333  -7.2243  -7.2243
 -7.2236  -7.2235  -1.0283  -1.0150  -0.8836  -0.8703  -0.8083  -0.7364
 -0.6999  -0.6035  -0.5832  -0.5065  -0.4880  -0.4585  -0.4391  -0.4350
 -0.4265  -0.4051  -0.3955  -0.3869  -0.3655  -0.3436  -0.3229  -0.3159
 -0.2877  -0.2666  -0.2578  -0.2567  -0.1796

 Beta MOs
 -- Occupied --
********-101.5547 -19.0910 -19.0859 -10.2482 -10.2384 -10.2360 -10.2360
-10.1800 -10.1799  -9.4691  -9.4691  -7.2336  -7.2334  -7.2242  -7.2242
 -7.2236  -7.2235  -1.0167  -1.0026  -0.8800  -0.8693  -0.8044  -0.7339
 -0.6892  -0.5993  -0.5788  -0.5043  -0.4837  -0.4554  -0.4343  -0.4224
 -0.4200  -0.4004  -0.3849  -0.3677  -0.3627  -0.3302  -0.3224  -0.3155
 -0.2606  -0.2603  -0.2509  -0.2503

          Ground-State Mulliken Net Atomic Charges

     Atom                 Charge (a.u.)    Spin (a.u.)
  --------------------------------------------------------
      1 Cl                    0.211772       0.003017
      2 C                     1.068569       0.079502
      3 C                    -0.475899       0.087502
      4 C                    -0.650517       0.119599
      5 O                    -0.492607       0.249288
      6 C                    -0.471366       0.087773
      7 C                     1.068229       0.080522
      8 Cl                    0.212233       0.003090
      9 C                    -1.523237       0.058207
     10 O                    -0.390766       0.246026
     11 H                     0.221822      -0.007248
     12 H                     0.221769      -0.007277
  --------------------------------------------------------
  Sum of atomic charges =    -1.000000

                    Cartesian Multipole Moments
 -----------------------------------------------------------------
    Charge (ESU x 10^10)
                -4.8032
    Dipole Moment (Debye)
         X      -0.4539      Y       2.0000      Z       0.0844
       Tot       2.0526
    Quadrupole Moments (Debye-Ang)
        XX     -81.6241     XY       7.4307     YY    -112.8576
        XZ       0.6448     YZ      -1.5743     ZZ     -73.9497

 Total job time:  14.81s(wall), 81.92s(cpu)
        *  Thank you very much for using Q-Chem.  Have a nice day.  *
