 Q-Chem 5.4, Q-Chem, Inc., Pleasanton, CA (2021)
 Q-Chem 5.4.0 for Intel X86 EM64T Linux

User input:
--------------------------------------------------------------
$molecule
-2 1
C                  0.6018940000      1.3247880000     -1.0286650000
C                 -0.7135230000      0.8486260000     -0.6720980000
C                 -0.9782720000     -0.4430670000     -0.1714050000
C                  0.1079920000     -1.3567640000      0.0908780000
C                  1.4354400000     -0.9375810000     -0.2909450000
C                  1.6524350000      0.3638340000     -0.7895260000
O                  0.8186580000      2.4937110000     -1.4874620000
O                 -0.1061060000     -2.5240190000      0.5971880000
S                  3.2919530000      0.9779360000     -1.1753310000
C                  3.5248960000      2.5191700000     -0.2221380000
C                  3.2141040000      3.7579490000     -0.7804380000
C                  4.0760530000      2.4269950000      1.0541130000
C                  4.3211610000      3.5890990000      1.7853190000
C                  3.4723930000      4.9156910000     -0.0467240000
C                  4.0214000000      4.8366380000      1.2336950000
O                  3.4578600000      1.3383620000     -2.5991390000
O                  4.3201430000      0.0701680000     -0.6051470000
H                  2.7667230000      3.7861710000     -1.7630140000
H                  4.3184810000      1.4496630000      1.4529220000
H                  3.2273760000      5.8842710000     -0.4718750000
H                  4.7464610000      3.5198570000      2.7821570000
H                  4.2060120000      5.7426120000      1.8039530000
S                 -2.0092650000      2.0642800000     -0.9116530000
C                 -1.5256830000      3.5552630000      0.0271230000
C                 -0.8100770000      4.5831870000     -0.5845030000
C                 -1.9423680000      3.6628750000      1.3521860000
C                 -1.6405190000      4.8143770000      2.0789650000
C                 -0.5218470000      5.7358190000      0.1460690000
C                 -0.9310780000      5.8546410000      1.4748150000
O                 -2.1565110000      2.4873600000     -2.3202200000
O                 -3.2511750000      1.6226970000     -0.2267870000
H                 -0.4849090000      4.4519410000     -1.6059930000
H                 -2.5083980000      2.8515320000      1.7930220000
H                 -1.9601400000      4.8989190000      3.1133960000
H                  0.0405070000      6.5386370000     -0.3210300000
H                 -0.6898010000      6.7498150000      2.0409520000
C                 -2.3521060000     -1.0136150000      0.0835160000
C                  2.4926460000     -2.0062620000     -0.1560870000
H                 -2.7760040000     -0.6596730000      1.0312930000
H                 -2.2339290000     -2.0970550000      0.1548640000
H                 -3.0686600000     -0.7430500000     -0.6928140000
H                  1.9660970000     -2.9574500000     -0.0517900000
H                  3.1096710000     -1.8648060000      0.7397540000
H                  3.1803550000     -2.0242930000     -1.0022820000
$end
$rem
MAX_SCF_CYCLES=200
BASIS  =  6-311++G(d,p)
GUI  =  2
JOB_TYPE  =  SP
METHOD  =  B3LYP
SOLVENT_METHOD = COSMO
$end
$solvent
dielectric 37.219
opticaldielectric 1.43
$end

--------------------------------------------------------------

             Standard Nuclear Orientation (Angstroms)
    I     Atom           X                Y                Z
 ----------------------------------------------------------------
    1      C      -0.0003150452    -0.7162926683    -0.6910019543
    2      C      -1.2089280166    -1.3891198352    -0.2777823414
    3      C      -1.2326857015    -2.6090595265     0.4296348208
    4      C       0.0010129840    -3.2244213762     0.8573279408
    5      C       1.2340608105    -2.6081932515     0.4289853915
    6      C       1.2090398387    -1.3883712389    -0.2786579186
    7      O      -0.0008701957     0.3820709468    -1.3371129043
    8      O       0.0015487229    -4.3129266212     1.5500241579
    9      S       2.7084684200    -0.5203713502    -0.7393922882
   10      C       2.5808227937     1.1694212840    -0.0563483461
   11      C       2.0548610789     2.2103468170    -0.8196977270
   12      C       3.0770166870     1.4008717595     1.2247875491
   13      C       3.0481366473     2.6913310191     1.7530930436
   14      C       2.0396328453     3.4997196005    -0.2880005332
   15      C       2.5308863466     3.7440653872     0.9950021996
   16      O       2.8671136974    -0.3690815931    -2.2011050987
   17      O       3.8692961091    -1.0920863879    -0.0100444948
   18      H       1.6588780295     1.9861567348    -1.7991557751
   19      H       3.4912725817     0.5723138946     1.7859307663
   20      H       1.6258728907     4.3150294177    -0.8736681192
   21      H       3.4300657833     2.8736962370     2.7532098393
   22      H       2.5020272423     4.7488049258     1.4069855457
   23      S      -2.7093330903    -0.5218524201    -0.7368906311
   24      C      -2.5809566942     1.1687661389    -0.0560744856
   25      C      -2.0577334642     2.2091062624    -0.8220613916
   26      C      -3.0742138044     1.4014577880     1.2259359299
   27      C      -3.0452335532     2.6926625472     1.7524601974
   28      C      -2.0424884813     3.4992093276    -0.2921801039
   29      C      -2.5308816864     3.7448519106     0.9916759668
   30      O      -2.8704064787    -0.3721697198    -2.1985299564
   31      O      -3.8688129334    -1.0929613374    -0.0048943675
   32      H      -1.6639222869     1.9839387351    -1.8021705192
   33      H      -3.4863466397     0.5732740578     1.7891961172
   34      H      -3.4248611264     2.8759999570     2.7532712320
   35      H      -1.6309726676     4.3141528464    -0.8799402884
   36      H      -2.5019298581     4.7501797973     1.4022119768
   37      C      -2.4745925339    -3.4014819143     0.7577564068
   38      C       2.4766068864    -3.3997553137     0.7567948441
   39      H      -3.0061767113    -2.9937006036     1.6263059797
   40      H      -2.1447927503    -4.4111073251     1.0122897183
   41      H      -3.1925718619    -3.4138597910    -0.0630333323
   42      H       2.1474328374    -4.4092902319     1.0124782796
   43      H       3.0086798885    -2.9909145907     1.6245553707
   44      H       3.1939403749    -3.4125443414    -0.0645357049
 ----------------------------------------------------------------

   11   -2019.7564139206      4.19e-06  Convergence criterion met
 Total energy in the final basis set =    -2019.7564139206
    5   -2020.0134576311      7.37e-06  Convergence criterion met
 Total energy in the final basis set =    -2020.0134576311

                    Orbital Energies (a.u.)
 --------------------------------------------------------------

 Alpha MOs
 -- Occupied --
-89.0380 -89.0380 -19.1063 -19.1063 -19.1009 -19.1009 -19.0386 -19.0277
-10.2134 -10.1977 -10.1977 -10.1869 -10.1809 -10.1809 -10.1771 -10.1771
-10.1768 -10.1768 -10.1757 -10.1756 -10.1756 -10.1756 -10.1739 -10.1739
-10.1667 -10.1667 -10.1394 -10.1394  -8.1014  -8.1014  -6.0645  -6.0645
 -6.0632  -6.0632  -6.0620  -6.0620  -1.0942  -1.0939  -0.9894  -0.9890
 -0.9694  -0.9496  -0.8625  -0.8624  -0.8177  -0.7816  -0.7648  -0.7602
 -0.7501  -0.7495  -0.7176  -0.7100  -0.6743  -0.6350  -0.6347  -0.6097
 -0.6093  -0.5956  -0.5873  -0.5513  -0.5484  -0.5242  -0.5212  -0.4880
 -0.4855  -0.4718  -0.4712  -0.4640  -0.4634  -0.4493  -0.4448  -0.4416
 -0.4411  -0.4365  -0.4279  -0.4229  -0.4148  -0.4094  -0.3913  -0.3909
 -0.3830  -0.3781  -0.3749  -0.3680  -0.3676  -0.3671  -0.3607  -0.3484
 -0.3464  -0.3427  -0.3411  -0.3301  -0.3279  -0.3247  -0.3155  -0.3138
 -0.2985  -0.2952  -0.2876  -0.2810  -0.2636  -0.2631  -0.2592  -0.2563
 -0.2450  -0.2343  -0.2178  -0.2085  -0.1415

          Ground-State Mulliken Net Atomic Charges

     Atom                 Charge (a.u.)
  ----------------------------------------
      1 C                    -0.376895
      2 C                     0.120109
      3 C                     0.616110
      4 C                    -1.384813
      5 C                     0.617174
      6 C                     0.122199
      7 O                    -0.408232
      8 O                    -0.682113
      9 S                     0.239940
     10 C                    -0.248010
     11 C                    -0.000714
     12 C                     0.323202
     13 C                    -0.547640
     14 C                    -0.283929
     15 C                    -0.478577
     16 O                    -0.258338
     17 O                    -0.260411
     18 H                     0.265786
     19 H                     0.256165
     20 H                     0.224649
     21 H                     0.223407
     22 H                     0.204115
     23 S                     0.241470
     24 C                    -0.249555
     25 C                    -0.001875
     26 C                     0.325670
     27 C                    -0.548506
     28 C                    -0.285405
     29 C                    -0.477224
     30 O                    -0.258230
     31 O                    -0.260692
     32 H                     0.265607
     33 H                     0.256436
     34 H                     0.223328
     35 H                     0.225068
     36 H                     0.204040
     37 C                    -0.489333
     38 C                    -0.488275
     39 H                     0.182983
     40 H                     0.162743
     41 H                     0.171486
     42 H                     0.162958
     43 H                     0.182927
     44 H                     0.171199
  ----------------------------------------
  Sum of atomic charges =    -2.000000

                    Cartesian Multipole Moments
 -----------------------------------------------------------------
    Charge (ESU x 10^10)
                -9.6064
    Dipole Moment (Debye)
         X       0.0026      Y      21.0975      Z       6.3700
       Tot      22.0382
    Quadrupole Moments (Debye-Ang)
        XX    -261.0157     XY      -0.0172     YY    -236.1039
        XZ       0.0416     YZ      24.2056     ZZ    -210.9092

 Total job time:  251.15s(wall), 1916.21s(cpu)
        *  Thank you very much for using Q-Chem.  Have a nice day.  *
