 Gaussian 16, Revision A.03,
 Gaussian 16:  ES64L-G16RevA.03 25-Dec-2016

 ----------------------------------------------------------------------
 #P UB3LYP/6-311++G(d,p) nosym opt freq SCRF=(PCM,Solvent=n,n-DiMethylF
 ormamide)
 ----------------------------------------------------------------------

 -------
 Reduced
 -------
 Symbolic Z-matrix:
 Charge = -2 Multiplicity = 1

 SCF Done:  E(UB3LYP) =  -3393.38379262     A.U. after   17 cycles
 SCF Done:  E(UB3LYP) =  -3393.38419785     A.U. after   12 cycles
 SCF Done:  E(UB3LYP) =  -3393.38394785     A.U. after   13 cycles
 SCF Done:  E(UB3LYP) =  -3393.38434951     A.U. after   12 cycles
 SCF Done:  E(UB3LYP) =  -3393.38431778     A.U. after   12 cycles
 SCF Done:  E(UB3LYP) =  -3393.38446270     A.U. after   11 cycles
 SCF Done:  E(UB3LYP) =  -3393.38446502     A.U. after   11 cycles
 SCF Done:  E(UB3LYP) =  -3393.38447360     A.U. after   11 cycles
 SCF Done:  E(UB3LYP) =  -3393.38447719     A.U. after   11 cycles
 SCF Done:  E(UB3LYP) =  -3393.38447849     A.U. after   10 cycles
 Optimization completed.
    -- Stationary point found.
 Normal termination of Gaussian 16 at Sat Feb 10 23:07:22 2024.

 ----------------------------------------------------------------------
 #P Geom=AllCheck Guess=TCheck SCRF=Check GenChk UB3LYP/6-311++G(d,p) F
 req
 ----------------------------------------------------------------------

 Structure from the checkpoint file:  "183-an.chk"
 -------
 Reduced
 -------
 Charge = -2 Multiplicity = 1

                          Input orientation:
 ---------------------------------------------------------------------
 Center     Atomic      Atomic             Coordinates (Angstroms)
 Number     Number       Type             X           Y           Z
 ---------------------------------------------------------------------
      1          6           0        4.848453   -2.867401   -0.358390
      2          6           0        5.581979   -1.977874   -1.107464
      3          6           0        4.996635   -0.750332   -1.521789
      4          6           0        3.500857   -2.596842    0.019877
      5          6           0        2.903731   -1.354990   -0.402110
      6          6           0        3.697256   -0.459833   -1.171085
      7          6           0        2.765977   -3.525904    0.806989
      8          6           0        1.424804   -3.193374    1.143336
      9          6           0        0.796902   -1.959932    0.698403
     10          6           0        1.546887   -0.997023   -0.065543
     11          6           0        0.676914   -4.110050    1.975598
     12          6           0       -0.611856   -3.822089    2.351712
     13          6           0       -0.590173   -1.708872    1.067262
     14          6           0       -1.217620   -2.626622    1.881823
     15          8           0        3.318172   -4.668119    1.223765
     16          8           0        1.066425    0.158167   -0.445225
     17          8           0        1.276227   -5.258105    2.390407
     18         35           0       -3.061913   -2.318074    2.417095
     19          7           0       -1.251815   -0.595350    0.538945
     20          1           0        5.283518   -3.805393   -0.033357
     21          1           0        6.606275   -2.209347   -1.382936
     22          1           0        5.574841   -0.047015   -2.112818
     23          1           0        3.237900    0.472406   -1.478357
     24          1           0       -1.157698   -4.506351    2.988651
     25          1           0        2.243520   -5.187839    1.955887
     26          1           0       -0.567742    0.069177    0.155501
     27          1           0       -1.969784   -0.206994    1.135240
 ---------------------------------------------------------------------

 SCF Done:  E(UB3LYP) =  -3393.38447849     A.U. after    2 cycles

 Alpha  occ. eigenvalues -- -482.81814 -62.47101 -56.29105 -56.28764 -56.28755
 Alpha  occ. eigenvalues --  -19.09112 -19.04483 -19.03065 -14.28272 -10.20330
 Alpha  occ. eigenvalues --  -10.19477 -10.19401 -10.18882 -10.18475 -10.15509
 Alpha  occ. eigenvalues --  -10.15334 -10.15325 -10.15272 -10.15174 -10.14960
 Alpha  occ. eigenvalues --  -10.14697 -10.14522 -10.14493  -8.68067  -6.51103
 Alpha  occ. eigenvalues --   -6.49968  -6.49950  -2.62215  -2.61889  -2.61877
 Alpha  occ. eigenvalues --   -2.60976  -2.60974  -1.01151  -0.94839  -0.94407
 Alpha  occ. eigenvalues --   -0.89120  -0.83450  -0.81746  -0.78833  -0.74943
 Alpha  occ. eigenvalues --   -0.73075  -0.71036  -0.69653  -0.64584  -0.61127
 Alpha  occ. eigenvalues --   -0.60108  -0.56164  -0.54427  -0.52416  -0.49844
 Alpha  occ. eigenvalues --   -0.48805  -0.47241  -0.44853  -0.44106  -0.43206
 Alpha  occ. eigenvalues --   -0.42321  -0.40459  -0.40295  -0.39627  -0.38804
 Alpha  occ. eigenvalues --   -0.37462  -0.37061  -0.36710  -0.36010  -0.35401
 Alpha  occ. eigenvalues --   -0.33136  -0.32900  -0.32347  -0.31956  -0.30967
 Alpha  occ. eigenvalues --   -0.29262  -0.28495  -0.26219  -0.23622  -0.23211
 Alpha  occ. eigenvalues --   -0.22351  -0.22013  -0.20838  -0.18117  -0.11708
 Alpha virt. eigenvalues --   -0.02509  -0.00730  -0.00459   0.00186   0.00929
 Alpha virt. eigenvalues --    0.01457   0.02402   0.02728   0.03065   0.04309
 Alpha virt. eigenvalues --    0.04513   0.04522   0.05006   0.05557   0.06283

  Beta  occ. eigenvalues -- -482.81814 -62.47101 -56.29105 -56.28764 -56.28755
  Beta  occ. eigenvalues --  -19.09112 -19.04483 -19.03065 -14.28272 -10.20330
  Beta  occ. eigenvalues --  -10.19477 -10.19401 -10.18882 -10.18475 -10.15509
  Beta  occ. eigenvalues --  -10.15334 -10.15325 -10.15272 -10.15174 -10.14960
  Beta  occ. eigenvalues --  -10.14697 -10.14522 -10.14493  -8.68067  -6.51103
  Beta  occ. eigenvalues --   -6.49968  -6.49950  -2.62215  -2.61889  -2.61877
  Beta  occ. eigenvalues --   -2.60976  -2.60974  -1.01151  -0.94839  -0.94407
  Beta  occ. eigenvalues --   -0.89120  -0.83450  -0.81746  -0.78833  -0.74943
  Beta  occ. eigenvalues --   -0.73075  -0.71036  -0.69653  -0.64584  -0.61127
  Beta  occ. eigenvalues --   -0.60108  -0.56164  -0.54427  -0.52416  -0.49844
  Beta  occ. eigenvalues --   -0.48805  -0.47241  -0.44853  -0.44106  -0.43206
  Beta  occ. eigenvalues --   -0.42321  -0.40459  -0.40295  -0.39627  -0.38804
  Beta  occ. eigenvalues --   -0.37462  -0.37061  -0.36710  -0.36010  -0.35401
  Beta  occ. eigenvalues --   -0.33136  -0.32900  -0.32347  -0.31956  -0.30967
  Beta  occ. eigenvalues --   -0.29262  -0.28495  -0.26219  -0.23622  -0.23211
  Beta  occ. eigenvalues --   -0.22351  -0.22013  -0.20838  -0.18117  -0.11708
  Beta virt. eigenvalues --   -0.02509  -0.00730  -0.00459   0.00186   0.00929
  Beta virt. eigenvalues --    0.01457   0.02402   0.02728   0.03065   0.04309
  Beta virt. eigenvalues --    0.04513   0.04522   0.05006   0.05557   0.06283

 Mulliken charges and spin densities:
               1          2
     1  C   -0.089921  -0.000000
     2  C   -0.485695   0.000000
     3  C   -0.539341  -0.000000
     4  C    0.102757  -0.000000
     5  C    0.012588   0.000000
     6  C   -0.006274   0.000000
     7  C   -0.195432  -0.000000
     8  C    0.509609  -0.000000
     9  C    0.411280  -0.000000
    10  C   -0.271573   0.000000
    11  C   -0.405239  -0.000000
    12  C   -0.019845   0.000000
    13  C   -0.947136   0.000000
    14  C    0.539987  -0.000000
    15  O   -0.671386  -0.000000
    16  O   -0.615955  -0.000000
    17  O   -0.511410  -0.000000
    18  Br  -0.245083   0.000000
    19  N   -0.361347  -0.000000
    20  H    0.154301   0.000000
    21  H    0.162554  -0.000000
    22  H    0.162097   0.000000
    23  H    0.153512  -0.000000
    24  H    0.203767  -0.000000
    25  H    0.403075  -0.000000
    26  H    0.306571   0.000000
    27  H    0.243539  -0.000000
 Sum of Mulliken charges =  -2.00000  -0.00000

 Dipole moment (field-independent basis, Debye):
    X=            -13.9523    Y=             25.3455    Z=             -7.0013  Tot=             29.7671
 Quadrupole moment (field-independent basis, Debye-Ang):
   XX=           -190.5848   YY=           -239.6174   ZZ=           -153.9010
   XY=             43.7852   XZ=             -5.0363   YZ=             38.8663

  Exact polarizability: 556.300   0.977 353.550-146.969-101.096 285.978
 Approx polarizability: 593.176 -13.968 427.618-146.764-124.354 319.403

                      1                      2                      3
                      A                      A                      A
 Frequencies --     39.3455                73.2928                87.0658
 Red. masses --      8.8993                 6.2048                 7.8222
 Frc consts  --      0.0081                 0.0196                 0.0349
 IR Inten    --      8.3020                 0.0981                 8.9631

                      4                      5                      6
                      A                      A                      A
 Frequencies --    132.3072               139.8902               147.8249
 Red. masses --      4.5313                10.5637                 8.9817
 Frc consts  --      0.0467                 0.1218                 0.1156
 IR Inten    --      0.1459                 2.6656                 0.8050

                      7                      8                      9
                      A                      A                      A
 Frequencies --    180.0472               216.2565               239.0106
 Red. masses --      7.4500                14.3024                 6.2511
 Frc consts  --      0.1423                 0.3941                 0.2104
 IR Inten    --      1.5555                 8.2509                 8.6926

                     10                     11                     12
                      A                      A                      A
 Frequencies --    271.0135               335.6489               341.8527
 Red. masses --      4.9498                 4.9480                 6.0612
 Frc consts  --      0.2142                 0.3284                 0.4173
 IR Inten    --      5.7642               112.7682                11.1749

                     13                     14                     15
                      A                      A                      A
 Frequencies --    353.5160               387.5744               398.0036
 Red. masses --      5.5949                 9.9303                 7.9372
 Frc consts  --      0.4120                 0.8789                 0.7408
 IR Inten    --     18.8151                29.1752                11.7088

                     16                     17                     18
                      A                      A                      A
 Frequencies --    420.3694               434.7037               446.1234
 Red. masses --      7.4939                 1.4641                 2.3126
 Frc consts  --      0.7802                 0.1630                 0.2712
 IR Inten    --    145.4371               161.3608                72.9150

                     19                     20                     21
                      A                      A                      A
 Frequencies --    474.0903               478.1565               499.1612
 Red. masses --      9.0309                 8.1065                 4.5859
 Frc consts  --      1.1959                 1.0920                 0.6732
 IR Inten    --     34.6862                37.3398                 9.8759

                     22                     23                     24
                      A                      A                      A
 Frequencies --    524.7796               546.5082               599.9752
 Red. masses --      6.5917                 8.0604                 3.4251
 Frc consts  --      1.0695                 1.4184                 0.7264
 IR Inten    --     12.6750                11.5098                34.4384

                     25                     26                     27
                      A                      A                      A
 Frequencies --    623.5490               634.9692               661.5770
 Red. masses --      5.1607                 6.1419                 6.0779
 Frc consts  --      1.1822                 1.4590                 1.5674
 IR Inten    --     29.3607                44.1202                11.3753

                     28                     29                     30
                      A                      A                      A
 Frequencies --    710.2381               713.0933               720.9754
 Red. masses --      2.5845                 5.3859                 5.6697
 Frc consts  --      0.7681                 1.6136                 1.7364
 IR Inten    --     15.4132                27.0487                24.1696

                     31                     32                     33
                      A                      A                      A
 Frequencies --    757.0147               770.3049               782.2709
 Red. masses --      4.6339                 1.6696                 1.9898
 Frc consts  --      1.5646                 0.5837                 0.7174
 IR Inten    --    310.0318               128.5597                 5.0398

                     34                     35                     36
                      A                      A                      A
 Frequencies --    787.6778               820.6115               855.4782
 Red. masses --      4.0651                 1.5725                 1.5886
 Frc consts  --      1.4860                 0.6239                 0.6850
 IR Inten    --     13.9976               223.5333                 0.6155

                     37                     38                     39
                      A                      A                      A
 Frequencies --    873.6254               901.9172               969.8358
 Red. masses --      7.8852                 6.3686                 6.1172
 Frc consts  --      3.5458                 3.0523                 3.3900
 IR Inten    --     36.2115               168.0704               294.8158

                     40                     41                     42
                      A                      A                      A
 Frequencies --    975.0027               983.1853              1018.4572
 Red. masses --      1.3591                 1.2558                 2.2761
 Frc consts  --      0.7612                 0.7152                 1.3910
 IR Inten    --      3.8962                 0.0559               114.6471

                     43                     44                     45
                      A                      A                      A
 Frequencies --   1060.9204              1081.4527              1084.5445
 Red. masses --      3.3636                 1.0478                 3.3191
 Frc consts  --      2.2306                 0.7220                 2.3002
 IR Inten    --     33.5836               127.7498               500.9472

                     46                     47                     48
                      A                      A                      A
 Frequencies --   1126.6351              1141.9572              1176.1874
 Red. masses --      1.5807                 1.5917                 1.9286
 Frc consts  --      1.1821                 1.2230                 1.5720
 IR Inten    --    235.4625               218.5231                77.9256

                     49                     50                     51
                      A                      A                      A
 Frequencies --   1208.3810              1230.4140              1244.5407
 Red. masses --      2.5661                 2.6389                 2.0056
 Frc consts  --      2.2076                 2.3539                 1.8303
 IR Inten    --    591.6254                23.1519                67.3702

                     52                     53                     54
                      A                      A                      A
 Frequencies --   1255.5379              1277.6615              1303.2655
 Red. masses --      5.9853                 5.1660                 2.9007
 Frc consts  --      5.5590                 4.9686                 2.9028
 IR Inten    --     53.0714               132.0545               802.6717

                     55                     56                     57
                      A                      A                      A
 Frequencies --   1355.2940              1377.6198              1380.2144
 Red. masses --      6.7339                 2.5293                 3.3424
 Frc consts  --      7.2876                 2.8282                 3.7515
 IR Inten    --    377.9655               391.2022               694.6004

                     58                     59                     60
                      A                      A                      A
 Frequencies --   1423.5007              1443.8804              1473.6447
 Red. masses --      7.6568                 3.5568                 2.5082
 Frc consts  --      9.1414                 4.3689                 3.2092
 IR Inten    --      1.2587               598.3456                 2.3581

                     61                     62                     63
                      A                      A                      A
 Frequencies --   1506.8052              1542.1049              1561.6523
 Red. masses --      5.4688                 5.0605                 3.0163
 Frc consts  --      7.3158                 7.0904                 4.3341
 IR Inten    --    114.9898               166.4094               369.8575

                     64                     65                     66
                      A                      A                      A
 Frequencies --   1584.6724              1600.8510              1613.8169
 Red. masses --      1.4421                 4.0260                 4.1994
 Frc consts  --      2.1337                 6.0790                 6.4439
 IR Inten    --    185.7191               138.0507               100.6735

                     67                     68                     69
                      A                      A                      A
 Frequencies --   1628.2279              2098.0424              3143.9539
 Red. masses --      2.5365                 1.0940                 1.0852
 Frc consts  --      3.9620                 2.8373                 6.3197
 IR Inten    --    835.5717              1265.7999                22.6386

                     70                     71                     72
                      A                      A                      A
 Frequencies --   3159.2735              3179.4842              3183.0338
 Red. masses --      1.0898                 1.0914                 1.0935
 Frc consts  --      6.4087                 6.5005                 6.5277
 IR Inten    --     35.3547                31.2335                73.9630

                     73                     74                     75
                      A                      A                      A
 Frequencies --   3190.0587              3250.4715              3591.1993
 Red. masses --      1.0904                 1.0686                 1.0818
 Frc consts  --      6.5381                 6.6518                 8.2200
 IR Inten    --     24.7034               489.8055                52.0278

 - Thermochemistry -
 -------------------
 Temperature   298.150 Kelvin.  Pressure   1.00000 Atm.
 Atom     1 has atomic number  6 and mass  12.00000

 Molecular mass:   316.96875 amu.
 Principal axes and moments of inertia in atomic units:
                           1         2         3
     Eigenvalues --  2741.49357********************
           X            0.92150  -0.22248   0.31834
           Y            0.05596   0.88717   0.45803
           Z           -0.38433  -0.40426   0.82998
 This molecule is an asymmetric top.
 Rotational symmetry number  1.
 Warning -- assumption of classical behavior for rotation
           may cause significant error
 Rotational temperatures (Kelvin)      0.03159     0.00832     0.00659
 Rotational constants (GHZ):           0.65831     0.17329     0.13724
 Zero-point vibrational energy     483324.8 (Joules/Mol)
                                  115.51741 (Kcal/Mol)
 Warning -- explicit consideration of  24 degrees of freedom as
           vibrations may cause significant error
 Vibrational temperatures:     56.61   105.45   125.27   190.36   201.27
          (Kelvin)            212.69   259.05   311.14   343.88   389.93
                              482.92   491.85   508.63   557.63   572.64
                              604.82   625.44   641.87   682.11   687.96
                              718.18   755.04   786.30   863.23   897.15
                              913.58   951.86  1021.87  1025.98  1037.32
                             1089.18  1108.30  1125.51  1133.29  1180.68
                             1230.84  1256.95  1297.66  1395.38  1402.81
                             1414.58  1465.33  1526.43  1555.97  1560.42
                             1620.98  1643.02  1692.27  1738.59  1770.29
                             1790.62  1806.44  1838.27  1875.11  1949.97
                             1982.09  1985.82  2048.10  2077.42  2120.25
                             2167.96  2218.74  2246.87  2279.99  2303.27
                             2321.92  2342.66  3018.62  4523.45  4545.49
                             4574.57  4579.68  4589.78  4676.70  5166.93

 Zero-point correction=                           0.184089 (Hartree/Particle)
 Thermal correction to Energy=                    0.199021
 Thermal correction to Enthalpy=                  0.199965
 Thermal correction to Gibbs Free Energy=         0.141436
 Sum of electronic and zero-point Energies=          -3393.200390
 Sum of electronic and thermal Energies=             -3393.185457
 Sum of electronic and thermal Enthalpies=           -3393.184513
 Sum of electronic and thermal Free Energies=        -3393.243042

                     E (Thermal)             CV                S
                      KCal/Mol        Cal/Mol-Kelvin    Cal/Mol-Kelvin
 Total                  124.888             59.470            123.185
 Electronic               0.000              0.000              0.000
 Translational            0.889              2.981             43.157
 Rotational               0.889              2.981             34.284
 Vibrational            123.110             53.508             45.744
 Vibration     1          0.594              1.981              5.292
 Vibration     2          0.599              1.967              4.063
 Vibration     3          0.601              1.958              3.725
 Vibration     4          0.612              1.921              2.912
 Vibration     5          0.615              1.913              2.805
 Vibration     6          0.617              1.905              2.700
 Vibration     7          0.629              1.867              2.328
 Vibration     8          0.645              1.816              1.990
 Vibration     9          0.657              1.781              1.810
 Vibration    10          0.675              1.727              1.590
 Vibration    11          0.717              1.604              1.233
 Vibration    12          0.721              1.592              1.203
 Vibration    13          0.730              1.568              1.150
 Vibration    14          0.756              1.497              1.009
 Vibration    15          0.764              1.474              0.970
 Vibration    16          0.783              1.426              0.891
 Vibration    17          0.795              1.395              0.843
 Vibration    18          0.805              1.369              0.808
 Vibration    19          0.831              1.308              0.726
 Vibration    20          0.835              1.299              0.715
 Vibration    21          0.855              1.252              0.660
 Vibration    22          0.880              1.195              0.599
 Vibration    23          0.902              1.147              0.551
 Vibration    24          0.958              1.032              0.450

                           ! Non-Optimized Parameters !
 Normal termination of Gaussian 16 at Sun Feb 11 00:27:27 2024.
