 Gaussian 16, Revision A.03,
 Gaussian 16:  ES64L-G16RevA.03 25-Dec-2016

 --------------------------------------
 #P UB3LYP/6-311++G(d,p) nosym opt freq
 --------------------------------------

 -------
 Radical
 -------
 Symbolic Z-matrix:
 Charge = -1 Multiplicity = 2

 SCF Done:  E(UB3LYP) =  -5686.03041997     A.U. after   21 cycles
 SCF Done:  E(UB3LYP) =  -5686.03041882     A.U. after   11 cycles
 SCF Done:  E(UB3LYP) =  -5686.03041990     A.U. after   11 cycles
 SCF Done:  E(UB3LYP) =  -5686.03042013     A.U. after   10 cycles
 Optimization completed.
    -- Stationary point found.
 Normal termination of Gaussian 16 at Sat Jan  6 05:55:49 2024.

 ----------------------------------------------------------------------
 #P Geom=AllCheck Guess=TCheck SCRF=Check GenChk UB3LYP/6-311++G(d,p) F
 req
 ----------------------------------------------------------------------

 Structure from the checkpoint file:  "015-rad.chk"
 -------
 Radical
 -------
 Charge = -1 Multiplicity = 2

                          Input orientation:
 ---------------------------------------------------------------------
 Center     Atomic      Atomic             Coordinates (Angstroms)
 Number     Number       Type             X           Y           Z
 ---------------------------------------------------------------------
      1          6           0       -1.820255    0.308430   -1.085956
      2          6           0       -1.179973    0.139059    0.313397
      3          6           0       -1.879668   -1.045781    1.007048
      4          6           0       -1.449137    1.405278    1.162562
      5          6           0        0.337896   -0.083954    0.171588
      6          6           0        0.947975   -1.221414    0.626065
      7          6           0        2.364256   -1.511610    0.533676
      8          8           0        2.848746   -2.580322    0.975139
      9          6           0        3.156038   -0.469628   -0.105739
     10          6           0        2.576252    0.684045   -0.572915
     11         35           0        3.604096    2.069233   -1.418343
     12          6           0        1.143169    0.962268   -0.472065
     13          8           0        0.651044    2.029901   -0.911680
     14         35           0        5.036837   -0.824738   -0.243290
     15          1           0       -2.900965    0.468880   -0.988257
     16          1           0       -1.665513   -0.592433   -1.688734
     17          1           0       -1.381679    1.157358   -1.608813
     18          1           0       -1.760122   -1.976831    0.445536
     19          1           0       -2.951971   -0.836587    1.081901
     20          1           0       -1.500252   -1.208412    2.019982
     21          1           0       -1.029326    1.288279    2.167012
     22          1           0       -2.529237    1.567615    1.263882
     23          1           0       -1.001013    2.282318    0.697389
     24          1           0        0.382799   -2.010954    1.104926
 ---------------------------------------------------------------------

 SCF Done:  E(UB3LYP) =  -5686.03042013     A.U. after    1 cycles

 Alpha  occ. eigenvalues -- -482.70379-482.70323 -62.35655 -62.35599 -56.17685
 Alpha  occ. eigenvalues --  -56.17630 -56.17325 -56.17279 -56.17269 -56.17222
 Alpha  occ. eigenvalues --  -18.95683 -18.95564 -10.11171 -10.10740 -10.10478
 Alpha  occ. eigenvalues --  -10.10334 -10.08355 -10.06193 -10.05925 -10.04770
 Alpha  occ. eigenvalues --  -10.04769 -10.04711  -8.56621  -8.56565  -6.39745
 Alpha  occ. eigenvalues --   -6.39691  -6.38533  -6.38477  -6.38400  -6.38341
 Alpha  occ. eigenvalues --   -2.50845  -2.50790  -2.50521  -2.50467  -2.50420
 Alpha  occ. eigenvalues --   -2.50363  -2.49452  -2.49450  -2.49394  -2.49392
 Alpha  occ. eigenvalues --   -0.88675  -0.88146  -0.73675  -0.71822  -0.66659
 Alpha  occ. eigenvalues --   -0.66434  -0.59475  -0.58458  -0.57725  -0.55875
 Alpha  occ. eigenvalues --   -0.48576  -0.45617  -0.41931  -0.37659  -0.36035
 Alpha  occ. eigenvalues --   -0.33557  -0.33027  -0.32190  -0.30702  -0.30591
 Alpha  occ. eigenvalues --   -0.28452  -0.28242  -0.27722  -0.26621  -0.26454
 Alpha  occ. eigenvalues --   -0.25101  -0.25074  -0.22995  -0.22963  -0.22071
 Alpha  occ. eigenvalues --   -0.21021  -0.17808  -0.17740  -0.15585  -0.15048
 Alpha  occ. eigenvalues --   -0.12331  -0.12253  -0.11594  -0.04237
 Alpha virt. eigenvalues --    0.07538   0.08038   0.09813   0.09870   0.10334
 Alpha virt. eigenvalues --    0.10646   0.11312   0.12673   0.12722   0.12744
 Alpha virt. eigenvalues --    0.13381   0.13767   0.14291   0.14529   0.15293

  Beta  occ. eigenvalues -- -482.70378-482.70322 -62.35654 -62.35598 -56.17686
  Beta  occ. eigenvalues --  -56.17631 -56.17319 -56.17279 -56.17263 -56.17222
  Beta  occ. eigenvalues --  -18.94988 -18.94822 -10.11048 -10.10659 -10.10342
  Beta  occ. eigenvalues --  -10.10177 -10.08361 -10.06107 -10.05926 -10.04765
  Beta  occ. eigenvalues --  -10.04763 -10.04606  -8.56619  -8.56563  -6.39749
  Beta  occ. eigenvalues --   -6.39695  -6.38522  -6.38468  -6.38399  -6.38340
  Beta  occ. eigenvalues --   -2.50846  -2.50791  -2.50516  -2.50463  -2.50422
  Beta  occ. eigenvalues --   -2.50365  -2.49446  -2.49444  -2.49389  -2.49388
  Beta  occ. eigenvalues --   -0.87489  -0.86876  -0.73220  -0.71725  -0.66515
  Beta  occ. eigenvalues --   -0.66176  -0.59294  -0.58389  -0.57707  -0.54977
  Beta  occ. eigenvalues --   -0.48249  -0.45252  -0.41707  -0.37468  -0.35874
  Beta  occ. eigenvalues --   -0.33500  -0.32710  -0.32119  -0.30332  -0.29684
  Beta  occ. eigenvalues --   -0.28036  -0.27456  -0.27374  -0.26391  -0.26116
  Beta  occ. eigenvalues --   -0.24821  -0.23177  -0.22857  -0.22603  -0.22019
  Beta  occ. eigenvalues --   -0.19950  -0.17701  -0.17369  -0.14991  -0.12783
  Beta  occ. eigenvalues --   -0.11584  -0.11551  -0.10981
  Beta virt. eigenvalues --    0.02907   0.07540   0.08137   0.09873   0.09990
  Beta virt. eigenvalues --    0.10658   0.11369   0.11388   0.12697   0.12750
  Beta virt. eigenvalues --    0.13005   0.13404   0.13792   0.14557   0.15136

 Mulliken charges and spin densities:
               1          2
     1  C   -0.684844   0.011120
     2  C    0.664899  -0.033479
     3  C   -0.507166   0.001219
     4  C   -0.685055   0.011115
     5  C    1.354647   0.092814
     6  C   -0.400011   0.067910
     7  C   -0.986033   0.056970
     8  O   -0.318808   0.268814
     9  C    0.831804   0.123733
    10  C   -0.321677   0.075131
    11  Br  -0.175428   0.004688
    12  C   -0.767348   0.067211
    13  O   -0.280135   0.256061
    14  Br  -0.167987   0.006515
    15  H    0.118106   0.000312
    16  H    0.116374   0.000598
    17  H    0.200651  -0.001430
    18  H    0.123091  -0.000439
    19  H    0.143723   0.000083
    20  H    0.123050  -0.000440
    21  H    0.116370   0.000597
    22  H    0.118101   0.000312
    23  H    0.200645  -0.001430
    24  H    0.183032  -0.007984
 Sum of Mulliken charges =  -1.00000   1.00000

 Dipole moment (field-independent basis, Debye):
    X=            -11.3259    Y=              0.3743    Z=              0.7926  Tot=             11.3598
 Quadrupole moment (field-independent basis, Debye-Ang):
   XX=           -157.8411   YY=           -139.7755   ZZ=           -119.4445
   XY=             10.5201   XZ=             -0.0646   YZ=             10.7316

  Exact polarizability: 236.006 -16.511 193.386 -11.443 -34.074 136.486
 Approx polarizability: 316.285 -45.305 341.391  -0.349 -71.112 215.092

                      1                      2                      3
                      A                      A                      A
 Frequencies --     48.4991                49.6969                87.0105
 Red. masses --      5.4521                 5.4242                 5.9021
 Frc consts  --      0.0076                 0.0079                 0.0263
 IR Inten    --      4.0442                 0.0648                 0.0668

                      4                      5                      6
                      A                      A                      A
 Frequencies --    131.2381               144.0470               159.2607
 Red. masses --     39.0252                 6.8389                 5.1187
 Frc consts  --      0.3960                 0.0836                 0.0765
 IR Inten    --      0.5534                 2.3217                 5.4897

                      7                      8                      9
                      A                      A                      A
 Frequencies --    211.9731               219.4686               234.5676
 Red. masses --      7.4697                 2.5882                 1.4880
 Frc consts  --      0.1977                 0.0734                 0.0482
 IR Inten    --      0.8136                 0.1156                 0.2018

                     10                     11                     12
                      A                      A                      A
 Frequencies --    246.7341               268.6393               276.6024
 Red. masses --      2.5580                 1.8296                 4.0093
 Frc consts  --      0.0917                 0.0778                 0.1807
 IR Inten    --      0.0855                 0.0570                 0.9562

                     13                     14                     15
                      A                      A                      A
 Frequencies --    290.8898               305.4560               329.8684
 Red. masses --      3.4753                 3.1721                 1.0470
 Frc consts  --      0.1733                 0.1744                 0.0671
 IR Inten    --      0.0635                 0.5542                 0.0697

                     16                     17                     18
                      A                      A                      A
 Frequencies --    349.8009               374.6016               417.6854
 Red. masses --      5.8540                 2.7471                 2.6347
 Frc consts  --      0.4220                 0.2271                 0.2708
 IR Inten    --      8.2280                 0.1733                 0.8302

                     19                     20                     21
                      A                      A                      A
 Frequencies --    429.1328               477.5120               500.2114
 Red. masses --      4.9932                 6.0335                 5.1810
 Frc consts  --      0.5418                 0.8106                 0.7638
 IR Inten    --      0.0003                 0.0603                20.9517

                     22                     23                     24
                      A                      A                      A
 Frequencies --    539.6883               575.8840               680.8540
 Red. masses --      4.5817                 4.5863                 6.3539
 Frc consts  --      0.7863                 0.8961                 1.7354
 IR Inten    --      0.2689                 6.6038                 3.2201

                     25                     26                     27
                      A                      A                      A
 Frequencies --    688.3690               738.8709               762.9104
 Red. masses --      5.5999                 7.0888                 8.3821
 Frc consts  --      1.5634                 2.2801                 2.8744
 IR Inten    --      1.7064                17.0060                 5.0536

                     28                     29                     30
                      A                      A                      A
 Frequencies --    827.5714               849.2022               884.1850
 Red. masses --      3.4899                 7.1547                 1.5264
 Frc consts  --      1.4082                 3.0399                 0.7031
 IR Inten    --     32.1420                83.7701                14.8331

                     31                     32                     33
                      A                      A                      A
 Frequencies --    926.3281               932.8442               958.8915
 Red. masses --      1.7714                 1.7493                 1.2036
 Frc consts  --      0.8956                 0.8969                 0.6520
 IR Inten    --      0.4676                 4.0635                 0.2399

                     34                     35                     36
                      A                      A                      A
 Frequencies --    968.5612              1038.8098              1049.0226
 Red. masses --      5.1121                 1.5472                 1.3770
 Frc consts  --      2.8255                 0.9837                 0.8928
 IR Inten    --      5.1466                25.9344                 0.0726

                     37                     38                     39
                      A                      A                      A
 Frequencies --   1083.9844              1130.9391              1216.0188
 Red. masses --      2.9606                 8.4775                 2.6816
 Frc consts  --      2.0496                 6.3884                 2.3363
 IR Inten    --    104.9027                22.4034                 4.2936

                     40                     41                     42
                      A                      A                      A
 Frequencies --   1223.4090              1265.5834              1288.2669
 Red. masses --      2.4696                 2.7862                 1.8572
 Frc consts  --      2.1778                 2.6293                 1.8160
 IR Inten    --     12.4478                29.5302                27.5639

                     43                     44                     45
                      A                      A                      A
 Frequencies --   1363.0040              1377.3142              1385.8462
 Red. masses --      3.8815                 1.2099                 1.3577
 Frc consts  --      4.2486                 1.3522                 1.5363
 IR Inten    --     32.6113                11.5547                11.2808

                     46                     47                     48
                      A                      A                      A
 Frequencies --   1412.8197              1466.7456              1472.5000
 Red. masses --      1.2439                 8.2794                 1.0466
 Frc consts  --      1.4628                10.4945                 1.3371
 IR Inten    --     25.4784                 3.9037                 0.1763

                     49                     50                     51
                      A                      A                      A
 Frequencies --   1489.4167              1496.2159              1497.0551
 Red. masses --      1.1633                 1.0462                 1.0632
 Frc consts  --      1.5205                 1.3799                 1.4039
 IR Inten    --     61.3602                 1.0169                 2.3369

                     52                     53                     54
                      A                      A                      A
 Frequencies --   1511.5513              1524.2899              1527.6480
 Red. masses --      1.0512                 3.3215                 2.3887
 Frc consts  --      1.4151                 4.5470                 3.2844
 IR Inten    --      3.8537               153.4093                45.4277

                     55                     56                     57
                      A                      A                      A
 Frequencies --   1535.6984              1616.7565              2998.0929
 Red. masses --      1.9752                 7.4586                 1.0421
 Frc consts  --      2.7445                11.4867                 5.5186
 IR Inten    --    137.6182                44.0778                46.3890

                     58                     59                     60
                      A                      A                      A
 Frequencies --   3002.2530              3014.7307              3056.2732
 Red. masses --      1.0408                 1.0362                 1.0977
 Frc consts  --      5.5272                 5.5488                 6.0412
 IR Inten    --     78.4727                97.0767                28.6879

                     61                     62                     63
                      A                      A                      A
 Frequencies --   3058.3893              3070.9702              3082.7175
 Red. masses --      1.0977                 1.0999                 1.1017
 Frc consts  --      6.0495                 6.1115                 6.1685
 IR Inten    --     25.3693                93.7126                41.6456

                     64                     65                     66
                      A                      A                      A
 Frequencies --   3125.5518              3127.9129              3189.2973
 Red. masses --      1.0970                 1.0964                 1.0880
 Frc consts  --      6.3142                 6.3200                 6.5202
 IR Inten    --      0.0492                10.3893                 9.4528

 - Thermochemistry -
 -------------------
 Temperature   298.150 Kelvin.  Pressure   1.00000 Atm.
 Atom     1 has atomic number  6 and mass  12.00000

 Molecular mass:   319.90475 amu.
 Principal axes and moments of inertia in atomic units:
                           1         2         3
     Eigenvalues --  3090.362636608.948299298.90078
           X            0.98857  -0.03427   0.14684
           Y           -0.03321   0.90042   0.43375
           Z           -0.14708  -0.43367   0.88899
 This molecule is an asymmetric top.
 Rotational symmetry number  1.
 Warning -- assumption of classical behavior for rotation
           may cause significant error
 Rotational temperatures (Kelvin)      0.02803     0.01311     0.00931
 Rotational constants (GHZ):           0.58399     0.27308     0.19408
 Zero-point vibrational energy     458086.8 (Joules/Mol)
                                  109.48538 (Kcal/Mol)
 Warning -- explicit consideration of  23 degrees of freedom as
           vibrations may cause significant error
 Vibrational temperatures:     69.78    71.50   125.19   188.82   207.25
          (Kelvin)            229.14   304.98   315.77   337.49   355.00
                              386.51   397.97   418.53   439.48   474.61
                              503.29   538.97   600.96   617.43   687.03
                              719.69   776.49   828.57   979.60   990.41
                             1063.07  1097.66  1190.69  1221.81  1272.14
                             1332.78  1342.15  1379.63  1393.54  1494.62
                             1509.31  1559.61  1627.17  1749.58  1760.21
                             1820.89  1853.53  1961.06  1981.65  1993.92
                             2032.73  2110.32  2118.60  2142.94  2152.72
                             2153.93  2174.79  2193.11  2197.94  2209.53
                             2326.15  4313.59  4319.57  4337.53  4397.30
                             4400.34  4418.44  4435.34  4496.97  4500.37
                             4588.69

 Zero-point correction=                           0.174476 (Hartree/Particle)
 Thermal correction to Energy=                    0.189065
 Thermal correction to Enthalpy=                  0.190009
 Thermal correction to Gibbs Free Energy=         0.131163
 Sum of electronic and zero-point Energies=          -5685.855944
 Sum of electronic and thermal Energies=             -5685.841356
 Sum of electronic and thermal Enthalpies=           -5685.840411
 Sum of electronic and thermal Free Energies=        -5685.899257

                     E (Thermal)             CV                S
                      KCal/Mol        Cal/Mol-Kelvin    Cal/Mol-Kelvin
 Total                  118.640             53.674            123.850
 Electronic               0.000              0.000              1.377
 Translational            0.889              2.981             43.184
 Rotational               0.889              2.981             33.607
 Vibrational            116.862             47.712             45.682
 Vibration     1          0.595              1.978              4.878
 Vibration     2          0.595              1.978              4.829
 Vibration     3          0.601              1.958              3.726
 Vibration     4          0.612              1.922              2.928
 Vibration     5          0.616              1.909              2.749
 Vibration     6          0.621              1.892              2.559
 Vibration     7          0.643              1.823              2.027
 Vibration     8          0.647              1.811              1.963
 Vibration     9          0.654              1.788              1.844
 Vibration    10          0.661              1.768              1.754
 Vibration    11          0.673              1.731              1.605
 Vibration    12          0.678              1.717              1.555
 Vibration    13          0.687              1.691              1.469
 Vibration    14          0.696              1.663              1.387
 Vibration    15          0.713              1.616              1.261
 Vibration    16          0.727              1.576              1.167
 Vibration    17          0.746              1.524              1.061
 Vibration    18          0.781              1.432              0.900
 Vibration    19          0.790              1.407              0.861
 Vibration    20          0.834              1.300              0.717
 Vibration    21          0.856              1.250              0.658
 Vibration    22          0.895              1.162              0.566
 Vibration    23          0.932              1.083              0.493

 Optimization completed.
    -- Stationary point found.
 Normal termination of Gaussian 16 at Sat Jan  6 06:39:59 2024.
