 Q-Chem 5.4, Q-Chem, Inc., Pleasanton, CA (2021)
 Q-Chem 5.4.0 for Intel X86 EM64T Linux

User input:
--------------------------------------------------------------
$molecule
-1 2
C                 -1.8202550000      0.3084300000     -1.0859560000
C                 -1.1799730000      0.1390590000      0.3133970000
C                 -1.8796680000     -1.0457810000      1.0070480000
C                 -1.4491370000      1.4052780000      1.1625620000
C                  0.3378960000     -0.0839540000      0.1715880000
C                  0.9479750000     -1.2214140000      0.6260650000
C                  2.3642560000     -1.5116100000      0.5336760000
O                  2.8487460000     -2.5803220000      0.9751390000
C                  3.1560380000     -0.4696280000     -0.1057390000
C                  2.5762520000      0.6840450000     -0.5729150000
Br                 3.6040960000      2.0692330000     -1.4183430000
C                  1.1431690000      0.9622680000     -0.4720650000
O                  0.6510440000      2.0299010000     -0.9116800000
Br                 5.0368370000     -0.8247380000     -0.2432900000
H                 -2.9009650000      0.4688800000     -0.9882570000
H                 -1.6655130000     -0.5924330000     -1.6887340000
H                 -1.3816790000      1.1573580000     -1.6088130000
H                 -1.7601220000     -1.9768310000      0.4455360000
H                 -2.9519710000     -0.8365870000      1.0819010000
H                 -1.5002520000     -1.2084120000      2.0199820000
H                 -1.0293260000      1.2882790000      2.1670120000
H                 -2.5292370000      1.5676150000      1.2638820000
H                 -1.0010130000      2.2823180000      0.6973890000
H                  0.3827990000     -2.0109540000      1.1049260000
$end
$rem
MAX_SCF_CYCLES=200
BASIS  =  6-311++G(d,p)
GUI  =  2
JOB_TYPE  =  SP
METHOD  =  B3LYP
SOLVENT_METHOD = COSMO
$end
$solvent
dielectric 37.219
opticaldielectric 1.43
$end

--------------------------------------------------------------

             Standard Nuclear Orientation (Angstroms)
    I     Atom           X                Y                Z
 ----------------------------------------------------------------
    1      C      -3.8268513673    -0.6114733624     1.2646401042
    2      C      -3.4033518866     0.1748971391     0.0000824669
    3      C      -4.1735496980     1.5095753621     0.0001102876
    4      C      -3.8271278764    -0.6112595565    -1.2645173008
    5      C      -1.8769414352     0.3842819967    -0.0000022863
    6      C      -1.3176289590     1.6331736987    -0.0002307900
    7      C       0.1023976299     1.9197496953    -0.0001910610
    8      O       0.5380458730     3.0953244851    -0.0002286061
    9      C       0.9585551068     0.7414071728     0.0000094169
   10      C       0.4307418031    -0.5261809807     0.0000464531
   11      Br      1.5437601249    -2.0917951627    -0.0001411661
   12      C      -1.0069042714    -0.7990901231     0.0001455723
   13      O      -1.4503535123    -1.9732457162     0.0001294175
   14      Br      2.8459068365     1.0882957691     0.0001444525
   15      H      -4.9131830604    -0.7634662075     1.2668825884
   16      H      -3.5618797965    -0.0532533248     2.1685322464
   17      H      -3.3330773282    -1.5818126963     1.2968251123
   18      H      -3.9489544360     2.1111917774     0.8855795033
   19      H      -5.2491973705     1.3041955211     0.0002850973
   20      H      -3.9491493197     2.1109909122    -0.8855445198
   21      H      -3.5625520407    -0.0527548573    -2.1683546603
   22      H      -4.9134505307    -0.7633601581    -1.2664018999
   23      H      -3.3333333977    -1.5815680202    -1.2972082615
   24      H      -1.9311395292     2.5251994276    -0.0004738985
 ----------------------------------------------------------------

   10   -5686.0270449758      7.20e-06  Convergence criterion met
 Total energy in the final basis set =    -5686.0270449758
    4   -5686.1042108670      9.26e-06  Convergence criterion met
 Total energy in the final basis set =    -5686.1042108670

                    Orbital Energies (a.u.)
 --------------------------------------------------------------

 Alpha MOs
 -- Occupied --
********-482.8300 -62.4835 -62.4828 -56.3040 -56.3032 -56.3003 -56.2999
-56.2996 -56.2991 -19.0923 -19.0890 -10.2409 -10.2402 -10.2313 -10.2300
-10.1858 -10.1838 -10.1689 -10.1503 -10.1465 -10.1464  -8.6922  -8.6914
 -6.5235  -6.5227  -6.5112  -6.5105  -6.5101  -6.5093  -2.6344  -2.6336
 -2.6312  -2.6305  -2.6303  -2.6295  -2.6205  -2.6204  -2.6197  -2.6196
 -1.0201  -1.0173  -0.8628  -0.8283  -0.7937  -0.7822  -0.7172  -0.6900
 -0.6764  -0.6757  -0.6040  -0.5801  -0.5312  -0.5010  -0.4737  -0.4497
 -0.4382  -0.4346  -0.4272  -0.4258  -0.4126  -0.4005  -0.3970  -0.3751
 -0.3733  -0.3708  -0.3579  -0.3399  -0.3398  -0.3273  -0.3220  -0.3055
 -0.3054  -0.2825  -0.2785  -0.2586  -0.2479  -0.2472  -0.1738

 Beta MOs
 -- Occupied --
********-482.8300 -62.4835 -62.4827 -56.3040 -56.3032 -56.3002 -56.2999
-56.2995 -56.2991 -19.0856 -19.0822 -10.2395 -10.2389 -10.2298 -10.2285
-10.1859 -10.1829 -10.1681 -10.1503 -10.1464 -10.1464  -8.6922  -8.6914
 -6.5235  -6.5227  -6.5111  -6.5104  -6.5101  -6.5093  -2.6344  -2.6336
 -2.6311  -2.6304  -2.6303  -2.6295  -2.6204  -2.6204  -2.6197  -2.6196
 -1.0085  -1.0054  -0.8580  -0.8271  -0.7922  -0.7800  -0.7154  -0.6836
 -0.6762  -0.6721  -0.6004  -0.5761  -0.5291  -0.4989  -0.4707  -0.4468
 -0.4330  -0.4305  -0.4250  -0.4155  -0.4089  -0.3941  -0.3858  -0.3714
 -0.3704  -0.3639  -0.3543  -0.3386  -0.3325  -0.3219  -0.3215  -0.3049
 -0.3013  -0.2779  -0.2575  -0.2525  -0.2417  -0.2413

          Ground-State Mulliken Net Atomic Charges

     Atom                 Charge (a.u.)    Spin (a.u.)
  --------------------------------------------------------
      1 C                    -0.698483       0.009960
      2 C                     0.599473      -0.026772
      3 C                    -0.506080       0.000424
      4 C                    -0.698499       0.009968
      5 C                     1.311296       0.096266
      6 C                    -0.545800       0.034682
      7 C                    -0.801891       0.102668
      8 O                    -0.446947       0.235526
      9 C                     0.862956       0.117125
     10 C                    -0.312335       0.075215
     11 Br                   -0.174839       0.006404
     12 C                    -0.713864       0.089901
     13 O                    -0.369837       0.248114
     14 Br                   -0.155837       0.008574
     15 H                     0.160562       0.000199
     16 H                     0.142724       0.000443
     17 H                     0.180464      -0.001124
     18 H                     0.141935      -0.000200
     19 H                     0.180555       0.000071
     20 H                     0.141887      -0.000199
     21 H                     0.142623       0.000443
     22 H                     0.160579       0.000201
     23 H                     0.180462      -0.001127
     24 H                     0.218896      -0.006759
  --------------------------------------------------------
  Sum of atomic charges =    -1.000000

                    Cartesian Multipole Moments
 -----------------------------------------------------------------
    Charge (ESU x 10^10)
                -4.8032
    Dipole Moment (Debye)
         X      -2.2251      Y      -1.9188      Z       0.0002
       Tot       2.9382
    Quadrupole Moments (Debye-Ang)
        XX    -118.3638     XY     -12.8756     YY    -148.8765
        XZ       0.0019     YZ       0.0032     ZZ    -113.2292

 Total job time:  70.15s(wall), 536.69s(cpu)
        *  Thank you very much for using Q-Chem.  Have a nice day.  *
