 Q-Chem 5.4, Q-Chem, Inc., Pleasanton, CA (2021)
 Q-Chem 5.4.0 for Intel X86 EM64T Linux

User input:
--------------------------------------------------------------
$molecule
0 1
C                  1.4497420000      3.3956140000     -0.4136740000
C                  0.6438400000      3.1125740000     -1.5115150000
C                 -0.0529160000      1.9036260000     -1.5797000000
C                  1.5599880000      2.4716280000      0.6283700000
C                  0.8576760000      1.2553440000      0.5596010000
C                  0.0545920000      0.9764180000     -0.5487350000
C                  2.4346710000      2.7977830000      1.7940810000
C                  2.4739640000      1.7891680000      2.8943090000
C                  1.8142770000      0.6262890000      2.8291550000
C                  0.9679810000      0.2600220000      1.6598760000
O                  3.0937070000      3.8186880000      1.8403180000
O                  0.3996600000     -0.8169900000      1.6356100000
S                  3.3726530000      2.1677560000      4.4477410000
O                  2.8649050000      3.4463740000      4.9423860000
O                  3.2642020000      0.9487580000      5.2575340000
C                  5.0994290000      2.3539400000      3.9781690000
C                  5.5904640000      3.6210850000      3.6717630000
C                  5.9162070000      1.2237670000      3.9758640000
C                  6.9376410000      3.7519110000      3.3449850000
C                  7.7674650000      2.6307550000      3.3259470000
C                  7.2597190000      1.3701260000      3.6400890000
H                  1.9984120000      4.3266210000     -0.3439350000
H                  0.5569770000      3.8334970000     -2.3162370000
H                 -0.6789400000      1.6870200000     -2.4375840000
H                 -0.4755570000      0.0325150000     -0.5821050000
H                  1.8647740000     -0.0943990000      3.6384580000
H                  4.9271160000      4.4747960000      3.6895400000
H                  5.5088050000      0.2593370000      4.2517380000
H                  7.3387460000      4.7303840000      3.1083060000
H                  8.8152140000      2.7404220000      3.0697740000
H                  7.9102270000      0.5034210000      3.6367610000
$end
$rem
MAX_SCF_CYCLES=200
BASIS  =  6-311++G(d,p)
GUI  =  2
JOB_TYPE  =  SP
METHOD  =  B3LYP
SOLVENT_METHOD = PCM
$end
$pcm
theory = CPCM
$end
$solvent
dielectric 37.219
opticaldielectric 1.43
$end

--------------------------------------------------------------

             Standard Nuclear Orientation (Angstroms)
    I     Atom           X                Y                Z
 ----------------------------------------------------------------
    1      C       1.4497420000     3.3956140000    -0.4136740000
    2      C       0.6438400000     3.1125740000    -1.5115150000
    3      C      -0.0529160000     1.9036260000    -1.5797000000
    4      C       1.5599880000     2.4716280000     0.6283700000
    5      C       0.8576760000     1.2553440000     0.5596010000
    6      C       0.0545920000     0.9764180000    -0.5487350000
    7      C       2.4346710000     2.7977830000     1.7940810000
    8      C       2.4739640000     1.7891680000     2.8943090000
    9      C       1.8142770000     0.6262890000     2.8291550000
   10      C       0.9679810000     0.2600220000     1.6598760000
   11      O       3.0937070000     3.8186880000     1.8403180000
   12      O       0.3996600000    -0.8169900000     1.6356100000
   13      S       3.3726530000     2.1677560000     4.4477410000
   14      O       2.8649050000     3.4463740000     4.9423860000
   15      O       3.2642020000     0.9487580000     5.2575340000
   16      C       5.0994290000     2.3539400000     3.9781690000
   17      C       5.5904640000     3.6210850000     3.6717630000
   18      C       5.9162070000     1.2237670000     3.9758640000
   19      C       6.9376410000     3.7519110000     3.3449850000
   20      C       7.7674650000     2.6307550000     3.3259470000
   21      C       7.2597190000     1.3701260000     3.6400890000
   22      H       1.9984120000     4.3266210000    -0.3439350000
   23      H       0.5569770000     3.8334970000    -2.3162370000
   24      H      -0.6789400000     1.6870200000    -2.4375840000
   25      H      -0.4755570000     0.0325150000    -0.5821050000
   26      H       1.8647740000    -0.0943990000     3.6384580000
   27      H       4.9271160000     4.4747960000     3.6895400000
   28      H       5.5088050000     0.2593370000     4.2517380000
   29      H       7.3387460000     4.7303840000     3.1083060000
   30      H       8.8152140000     2.7404220000     3.0697740000
   31      H       7.9102270000     0.5034210000     3.6367610000
 ----------------------------------------------------------------

    9   -1315.0196862965      5.07e-06  Convergence criterion met
 Total energy in the final basis set =    -1315.0196862965

                    Orbital Energies (a.u.)
 --------------------------------------------------------------

 Alpha MOs
 -- Occupied --
-89.0755 -19.1501 -19.1496 -19.1421 -19.1403 -10.3048 -10.2989 -10.2513
-10.2353 -10.2262 -10.2173 -10.2156 -10.2040 -10.2033 -10.2032 -10.2026
-10.2019 -10.2013 -10.1960 -10.1939 -10.1935  -8.1393  -6.1020  -6.1012
 -6.1003  -1.1371  -1.0858  -1.0822  -1.0341  -0.8997  -0.8875  -0.8629
 -0.7976  -0.7854  -0.7852  -0.7728  -0.7288  -0.6942  -0.6618  -0.6489
 -0.6317  -0.6108  -0.5958  -0.5640  -0.5551  -0.5397  -0.5290  -0.5039
 -0.4983  -0.4918  -0.4782  -0.4718  -0.4691  -0.4651  -0.4624  -0.4587
 -0.4561  -0.4472  -0.4427  -0.4342  -0.3977  -0.3905  -0.3898  -0.3871
 -0.3754  -0.3691  -0.3658  -0.3541  -0.3400  -0.3282  -0.3274  -0.3042
 -0.2925  -0.2877  -0.2843  -0.2816  -0.2774

          Ground-State Mulliken Net Atomic Charges

     Atom                 Charge (a.u.)
  ----------------------------------------
      1 C                     0.248885
      2 C                    -0.422238
      3 C                    -0.334575
      4 C                     0.013861
      5 C                     0.476104
      6 C                     0.119961
      7 C                    -0.376556
      8 C                    -0.157085
      9 C                    -0.108999
     10 C                    -0.549354
     11 O                    -0.208490
     12 O                    -0.265520
     13 S                     0.575688
     14 O                    -0.166853
     15 O                    -0.193339
     16 C                     0.526526
     17 C                    -0.294589
     18 C                     0.018783
     19 C                    -0.433749
     20 C                    -0.327245
     21 C                    -0.546250
     22 H                     0.201865
     23 H                     0.230370
     24 H                     0.233071
     25 H                     0.195713
     26 H                     0.307543
     27 H                     0.287343
     28 H                     0.266003
     29 H                     0.237688
     30 H                     0.214276
     31 H                     0.231162
  ----------------------------------------
  Sum of atomic charges =     0.000001

                    Cartesian Multipole Moments
 -----------------------------------------------------------------
    Charge (ESU x 10^10)
                -0.0000
    Dipole Moment (Debye)
         X       2.7533      Y       0.3943      Z      -7.9365
       Tot       8.4098
    Quadrupole Moments (Debye-Ang)
        XX     -84.8971     XY       1.6102     YY    -133.3566
        XZ      -0.9915     YZ     -22.2310     ZZ    -165.4906

 Total job time:  78.74s(wall), 505.10s(cpu)
        *  Thank you very much for using Q-Chem.  Have a nice day.  *
