 Q-Chem 5.4, Q-Chem, Inc., Pleasanton, CA (2021)
 Q-Chem 5.4.0 for Intel X86 EM64T Linux

User input:
--------------------------------------------------------------
$molecule
-2 1
C                 -4.0590580000     -3.7027840000     -1.8560850000
C                 -3.0137330000     -3.8431230000     -2.8180380000
C                 -1.6990810000     -3.4814120000     -2.4975120000
C                 -1.3452040000     -2.9654560000     -1.1881230000
C                 -2.4100870000     -2.8231590000     -0.2130320000
C                 -3.6900770000     -3.1841850000     -0.5606530000
O                 -5.3109360000     -3.9976080000     -2.0373380000
O                 -0.1419580000     -2.6409810000     -0.8949560000
C                 -0.5697100000     -3.6041340000     -3.4937690000
C                  0.2516000000     -4.9044050000     -3.3618060000
C                  1.4188780000     -4.9871960000     -4.3540300000
C                  2.2445840000     -6.2763590000     -4.2525060000
C                  3.4049470000     -6.3524990000     -5.2541820000
C                  4.2261240000     -7.6455330000     -5.1689010000
C                  5.3784210000     -7.7192290000     -6.1794710000
C                  6.1947870000     -9.0158280000     -6.1010390000
C                  7.3423360000     -9.0890620000     -7.1166490000
C                  8.1552750000    -10.3881380000     -7.0396290000
C                 -2.0686900000     -2.2834250000      1.1494770000
C                 -3.4009610000     -4.3831810000     -4.1766390000
O                 -4.7615090000     -3.0868320000      0.3015840000
H                  0.1165450000     -2.7650260000     -3.3305150000
H                 -0.9492300000     -3.5305810000     -4.5209680000
H                 -0.4099120000     -5.7693730000     -3.5027440000
H                  0.6317010000     -4.9579120000     -2.3364580000
H                  2.0797330000     -4.1238260000     -4.1981170000
H                  1.0316540000     -4.8913910000     -5.3789830000
H                  1.5835320000     -7.1409880000     -4.4015900000
H                  2.6398990000     -6.3707150000     -3.2325830000
H                  4.0703160000     -5.4924990000     -5.0996640000
H                  3.0076050000     -6.2466160000     -6.2728820000
H                  3.5601670000     -8.5058520000     -5.3193190000
H                  4.6297720000     -7.7506450000     -4.1530460000
H                  6.0477050000     -6.8620290000     -6.0271810000
H                  4.9748730000     -7.6091570000     -7.1949340000
H                  5.5251740000     -9.8731960000     -6.2515230000
H                  6.6024970000     -9.1251920000     -5.0872280000
H                  8.0154100000     -8.2347910000     -6.9668860000
H                  6.9370100000     -8.9791150000     -8.1310020000
C                  9.2991080000    -10.4607080000     -8.0554400000
H                  7.4829740000    -11.2428940000     -7.1885530000
H                 -1.3631890000     -2.9430420000      1.6715860000
H                 -2.9663300000     -2.1717950000      1.7624280000
H                 -1.5628290000     -1.3134200000      1.0689890000
H                 -4.4496150000     -4.6866420000     -4.1486860000
H                 -2.7934750000     -5.2478530000     -4.4730640000
H                 -3.2888410000     -3.6311030000     -4.9713510000
H                  8.5619810000    -10.4990180000     -6.0262000000
H                  8.9269180000    -10.3954820000     -9.0843360000
H                  9.8562820000    -11.4001890000     -7.9719830000
H                 10.0165680000     -9.6446830000     -7.9114170000
H                 -5.4808290000     -3.4244980000     -0.2856080000
$end

$rem
BASIS  =  6-311++G(d,p)
GUI  =  2
JOB_TYPE  =  SP
METHOD  =  B3LYP
SCF_CONVERGENCE  = 8
SOLVENT_METHOD = sm12
$end

$smx
solvent dimethylformamide
charges CM5
$end

--------------------------------------------------------------

             Standard Nuclear Orientation (Angstroms)
    I     Atom           X                Y                Z
 ----------------------------------------------------------------
    1      C      -4.0590580000    -3.7027840000    -1.8560850000
    2      C      -3.0137330000    -3.8431230000    -2.8180380000
    3      C      -1.6990810000    -3.4814120000    -2.4975120000
    4      C      -1.3452040000    -2.9654560000    -1.1881230000
    5      C      -2.4100870000    -2.8231590000    -0.2130320000
    6      C      -3.6900770000    -3.1841850000    -0.5606530000
    7      O      -5.3109360000    -3.9976080000    -2.0373380000
    8      O      -0.1419580000    -2.6409810000    -0.8949560000
    9      C      -0.5697100000    -3.6041340000    -3.4937690000
   10      C       0.2516000000    -4.9044050000    -3.3618060000
   11      C       1.4188780000    -4.9871960000    -4.3540300000
   12      C       2.2445840000    -6.2763590000    -4.2525060000
   13      C       3.4049470000    -6.3524990000    -5.2541820000
   14      C       4.2261240000    -7.6455330000    -5.1689010000
   15      C       5.3784210000    -7.7192290000    -6.1794710000
   16      C       6.1947870000    -9.0158280000    -6.1010390000
   17      C       7.3423360000    -9.0890620000    -7.1166490000
   18      C       8.1552750000   -10.3881380000    -7.0396290000
   19      C      -2.0686900000    -2.2834250000     1.1494770000
   20      C      -3.4009610000    -4.3831810000    -4.1766390000
   21      O      -4.7615090000    -3.0868320000     0.3015840000
   22      H       0.1165450000    -2.7650260000    -3.3305150000
   23      H      -0.9492300000    -3.5305810000    -4.5209680000
   24      H      -0.4099120000    -5.7693730000    -3.5027440000
   25      H       0.6317010000    -4.9579120000    -2.3364580000
   26      H       2.0797330000    -4.1238260000    -4.1981170000
   27      H       1.0316540000    -4.8913910000    -5.3789830000
   28      H       1.5835320000    -7.1409880000    -4.4015900000
   29      H       2.6398990000    -6.3707150000    -3.2325830000
   30      H       4.0703160000    -5.4924990000    -5.0996640000
   31      H       3.0076050000    -6.2466160000    -6.2728820000
   32      H       3.5601670000    -8.5058520000    -5.3193190000
   33      H       4.6297720000    -7.7506450000    -4.1530460000
   34      H       6.0477050000    -6.8620290000    -6.0271810000
   35      H       4.9748730000    -7.6091570000    -7.1949340000
   36      H       5.5251740000    -9.8731960000    -6.2515230000
   37      H       6.6024970000    -9.1251920000    -5.0872280000
   38      H       8.0154100000    -8.2347910000    -6.9668860000
   39      H       6.9370100000    -8.9791150000    -8.1310020000
   40      C       9.2991080000   -10.4607080000    -8.0554400000
   41      H       7.4829740000   -11.2428940000    -7.1885530000
   42      H      -1.3631890000    -2.9430420000     1.6715860000
   43      H      -2.9663300000    -2.1717950000     1.7624280000
   44      H      -1.5628290000    -1.3134200000     1.0689890000
   45      H      -4.4496150000    -4.6866420000    -4.1486860000
   46      H      -2.7934750000    -5.2478530000    -4.4730640000
   47      H      -3.2888410000    -3.6311030000    -4.9713510000
   48      H       8.5619810000   -10.4990180000    -6.0262000000
   49      H       8.9269180000   -10.3954820000    -9.0843360000
   50      H       9.8562820000   -11.4001890000    -7.9719830000
   51      H      10.0165680000    -9.6446830000    -7.9114170000
   52      H      -5.4808290000    -3.4244980000    -0.2856080000
 ----------------------------------------------------------------

   23    -968.0130383381      4.57e-09  Convergence criterion met
 Total energy in the final basis set =     -968.3057022317

                    Orbital Energies (a.u.)
 --------------------------------------------------------------

 Alpha MOs
 -- Occupied --
-19.1125 -19.0222 -19.0117 -10.1766 -10.1663 -10.1644 -10.1644 -10.1642
-10.1633 -10.1624 -10.1623 -10.1621 -10.1620 -10.1619 -10.1615 -10.1605
-10.1598 -10.1573 -10.1546 -10.1324 -10.1290 -10.1193  -1.0249  -0.9322
 -0.9286  -0.8161  -0.8042  -0.7919  -0.7774  -0.7597  -0.7438  -0.7155
 -0.6982  -0.6790  -0.6471  -0.6218  -0.6106  -0.5909  -0.5802  -0.5744
 -0.5738  -0.5376  -0.5262  -0.4934  -0.4859  -0.4735  -0.4565  -0.4500
 -0.4353  -0.4297  -0.4283  -0.4198  -0.4174  -0.4095  -0.4062  -0.4014
 -0.3965  -0.3931  -0.3858  -0.3787  -0.3747  -0.3736  -0.3691  -0.3595
 -0.3559  -0.3506  -0.3455  -0.3410  -0.3386  -0.3326  -0.3290  -0.3261
 -0.3244  -0.3228  -0.3218  -0.3152  -0.3108  -0.3059  -0.2961  -0.2952
 -0.2161  -0.2089  -0.1905  -0.1872  -0.1076

          Ground-State Mulliken Net Atomic Charges

     Atom                 Charge (a.u.)
  ----------------------------------------
      1 C                    -1.844725
      2 C                    -1.342015
      3 C                    -0.696836
      4 C                    -2.320023
      5 C                     0.510139
      6 C                    -1.157429
      7 O                    -0.424703
      8 O                    -0.298294
      9 C                    -1.843590
     10 C                    -4.929945
     11 C                    -2.727474
     12 C                    -0.236791
     13 C                     1.544604
     14 C                     2.523121
     15 C                     2.677631
     16 C                     1.926959
     17 C                     1.224330
     18 C                     0.333515
     19 C                     0.539154
     20 C                     0.810462
     21 O                    -0.137561
     22 H                    -0.096151
     23 H                     0.137987
     24 H                    -0.105380
     25 H                     0.095442
     26 H                     0.261126
     27 H                     0.280830
     28 H                     0.231754
     29 H                     0.115382
     30 H                     0.123778
     31 H                     0.092083
     32 H                     0.101889
     33 H                     0.120708
     34 H                     0.117563
     35 H                     0.133694
     36 H                     0.122956
     37 H                     0.120797
     38 H                     0.110046
     39 H                     0.109789
     40 C                    -0.200777
     41 H                     0.118719
     42 H                     0.122557
     43 H                     0.202074
     44 H                     0.070828
     45 H                     0.205668
     46 H                     0.174577
     47 H                     0.163380
     48 H                     0.118932
     49 H                     0.141798
     50 H                     0.219070
     51 H                     0.140789
     52 H                     0.317560
  ----------------------------------------
  Sum of atomic charges =    -2.000002

                    Cartesian Multipole Moments
 -----------------------------------------------------------------
    Charge (ESU x 10^10)
                -9.6064
    Dipole Moment (Debye)
         X      24.8175      Y      31.5548      Z      13.8470
       Tot      42.4658
    Quadrupole Moments (Debye-Ang)
        XX    -270.3205     XY     -89.7840     YY    -264.1126
        XZ     -35.6979     YZ     -55.7447     ZZ    -195.9773

 Total job time:  3443.64s(wall), 26056.07s(cpu)
        *  Thank you very much for using Q-Chem.  Have a nice day.  *
