 Q-Chem 5.4, Q-Chem, Inc., Pleasanton, CA (2021)
 Q-Chem 5.4.0 for Intel X86 EM64T Linux

User input:
--------------------------------------------------------------
$molecule
-1 2
C                  1.3858470000      1.1975660000     -2.9767240000
C                  0.1020590000      1.5734970000     -3.5325700000
C                 -1.0175550000      0.8248040000     -3.3279770000
C                 -1.0111360000     -0.3959850000     -2.5472520000
C                  0.2722850000     -0.8104810000     -1.9876070000
O                  2.4011860000      1.9341110000     -3.0947520000
O                 -2.0677690000     -1.0676910000     -2.3703990000
H                  0.0751520000      2.4972040000     -4.1035770000
C                  1.4172640000     -0.0563290000     -2.2245590000
C                  2.7426140000     -0.4617910000     -1.6837760000
C                  3.9219880000     -0.4808910000     -2.6300720000
C                  5.2008580000     -0.0336220000     -2.2389890000
C                  3.7454240000     -1.0590060000     -3.8899050000
C                  6.2581460000     -0.1870210000     -3.1388810000
C                  6.0805330000     -0.7839610000     -4.3875770000
C                  4.8163790000     -1.2244130000     -4.7655910000
O                  2.9036490000     -0.8465120000     -0.5303400000
C                  5.4369530000      0.6497330000     -0.9138860000
H                  2.7510050000     -1.3781340000     -4.1813700000
H                  7.2423340000      0.1763300000     -2.8567980000
H                  6.9248700000     -0.8926510000     -5.0610640000
H                  4.6590670000     -1.6813100000     -5.7370240000
C                  0.2637880000     -2.0891980000     -1.1910840000
H                 -1.9782900000      1.1211880000     -3.7401160000
H                  0.0222130000     -1.8874160000     -0.1409980000
H                  1.2298630000     -2.5942820000     -1.2014160000
H                 -0.5174610000     -2.7470790000     -1.5761260000
H                  4.7288060000      1.4711880000     -0.7758090000
H                  6.4511420000      1.0561080000     -0.8699250000
H                  5.2929150000     -0.0390560000     -0.0795450000
$end

$rem
BASIS  =  6-311++G(d,p)
GUI  =  2
JOB_TYPE  =  SP
METHOD  =  B3LYP
SCF_CONVERGENCE  = 8
SOLVENT_METHOD = sm12
$end

$smx
solvent dimethylformamide
charges CM5
$end

--------------------------------------------------------------

             Standard Nuclear Orientation (Angstroms)
    I     Atom           X                Y                Z
 ----------------------------------------------------------------
    1      C       1.3858470000     1.1975660000    -2.9767240000
    2      C       0.1020590000     1.5734970000    -3.5325700000
    3      C      -1.0175550000     0.8248040000    -3.3279770000
    4      C      -1.0111360000    -0.3959850000    -2.5472520000
    5      C       0.2722850000    -0.8104810000    -1.9876070000
    6      O       2.4011860000     1.9341110000    -3.0947520000
    7      O      -2.0677690000    -1.0676910000    -2.3703990000
    8      H       0.0751520000     2.4972040000    -4.1035770000
    9      C       1.4172640000    -0.0563290000    -2.2245590000
   10      C       2.7426140000    -0.4617910000    -1.6837760000
   11      C       3.9219880000    -0.4808910000    -2.6300720000
   12      C       5.2008580000    -0.0336220000    -2.2389890000
   13      C       3.7454240000    -1.0590060000    -3.8899050000
   14      C       6.2581460000    -0.1870210000    -3.1388810000
   15      C       6.0805330000    -0.7839610000    -4.3875770000
   16      C       4.8163790000    -1.2244130000    -4.7655910000
   17      O       2.9036490000    -0.8465120000    -0.5303400000
   18      C       5.4369530000     0.6497330000    -0.9138860000
   19      H       2.7510050000    -1.3781340000    -4.1813700000
   20      H       7.2423340000     0.1763300000    -2.8567980000
   21      H       6.9248700000    -0.8926510000    -5.0610640000
   22      H       4.6590670000    -1.6813100000    -5.7370240000
   23      C       0.2637880000    -2.0891980000    -1.1910840000
   24      H      -1.9782900000     1.1211880000    -3.7401160000
   25      H       0.0222130000    -1.8874160000    -0.1409980000
   26      H       1.2298630000    -2.5942820000    -1.2014160000
   27      H      -0.5174610000    -2.7470790000    -1.5761260000
   28      H       4.7288060000     1.4711880000    -0.7758090000
   29      H       6.4511420000     1.0561080000    -0.8699250000
   30      H       5.2929150000    -0.0390560000    -0.0795450000
 ----------------------------------------------------------------

   17    -804.7666171620      5.47e-09  Convergence criterion met
 Total energy in the final basis set =     -804.8518347700

                    Orbital Energies (a.u.)
 --------------------------------------------------------------

 Alpha MOs
 -- Occupied --
-19.1152 -19.0808 -19.0804 -10.2649 -10.2294 -10.2234 -10.1945 -10.1895
-10.1890 -10.1851 -10.1849 -10.1823 -10.1808 -10.1764 -10.1752 -10.1731
-10.1659 -10.1639  -1.0462  -1.0048  -1.0013  -0.8700  -0.8356  -0.7818
 -0.7807  -0.7667  -0.7212  -0.6932  -0.6715  -0.6441  -0.6164  -0.5944
 -0.5681  -0.5486  -0.5068  -0.4933  -0.4806  -0.4736  -0.4628  -0.4478
 -0.4430  -0.4283  -0.4222  -0.4215  -0.4171  -0.4078  -0.4027  -0.3956
 -0.3909  -0.3856  -0.3751  -0.3680  -0.3662  -0.3608  -0.3583  -0.3500
 -0.2861  -0.2717  -0.2670  -0.2590  -0.2532  -0.2440  -0.2339  -0.1681

 Beta MOs
 -- Occupied --
-19.1148 -19.0738 -19.0729 -10.2649 -10.2286 -10.2224 -10.1945 -10.1890
-10.1875 -10.1851 -10.1849 -10.1823 -10.1808 -10.1757 -10.1745 -10.1719
-10.1659 -10.1640  -1.0453  -0.9933  -0.9878  -0.8699  -0.8296  -0.7816
 -0.7788  -0.7655  -0.7179  -0.6929  -0.6641  -0.6427  -0.6152  -0.5934
 -0.5645  -0.5474  -0.5055  -0.4912  -0.4801  -0.4716  -0.4607  -0.4466
 -0.4407  -0.4225  -0.4217  -0.4195  -0.4163  -0.4043  -0.3972  -0.3909
 -0.3847  -0.3811  -0.3666  -0.3657  -0.3602  -0.3581  -0.3502  -0.3440
 -0.2713  -0.2634  -0.2572  -0.2524  -0.2479  -0.2375  -0.2286

          Ground-State Mulliken Net Atomic Charges

     Atom                 Charge (a.u.)    Spin (a.u.)
  --------------------------------------------------------
      1 C                    -1.324134       0.065366
      2 C                    -0.093874       0.074561
      3 C                     0.352145       0.068522
      4 C                    -1.429701       0.049199
      5 C                    -0.118059       0.143685
      6 O                    -0.289931       0.242187
      7 O                    -0.356181       0.284843
      8 H                     0.240627      -0.008074
      9 C                     0.349683       0.058505
     10 C                    -1.705253       0.012028
     11 C                     0.338861      -0.002958
     12 C                    -0.540161      -0.000547
     13 C                    -1.016527      -0.000879
     14 C                     0.911488      -0.004025
     15 C                     0.663700       0.001077
     16 C                     0.460340      -0.000858
     17 O                    -0.163161       0.013513
     18 C                     0.393843      -0.001719
     19 H                     0.121435      -0.000391
     20 H                     0.283761      -0.000011
     21 H                     0.365927       0.000064
     22 H                     0.321011      -0.000077
     23 C                    -0.090536      -0.000788
     24 H                     0.243546      -0.005518
     25 H                     0.187977       0.009844
     26 H                     0.186337       0.001915
     27 H                     0.161210       0.000489
     28 H                     0.105642      -0.000176
     29 H                     0.264514       0.000326
     30 H                     0.175470      -0.000105
  --------------------------------------------------------
  Sum of atomic charges =    -1.000000

                    Cartesian Multipole Moments
 -----------------------------------------------------------------
    Charge (ESU x 10^10)
                -4.8032
    Dipole Moment (Debye)
         X      -2.8659      Y      -0.2033      Z      10.3195
       Tot      10.7119
    Quadrupole Moments (Debye-Ang)
        XX    -136.0057     XY      -9.4744     YY    -122.4487
        XZ       3.0500     YZ       7.8447     ZZ    -135.1684

 Total job time:  863.00s(wall), 6679.77s(cpu)
        *  Thank you very much for using Q-Chem.  Have a nice day.  *
