 Q-Chem 5.4, Q-Chem, Inc., Pleasanton, CA (2021)
 Q-Chem 5.4.0 for Intel X86 EM64T Linux

User input:
--------------------------------------------------------------
$molecule
0 1
Br                -1.6035740000      2.5479510000      1.3449810000
C                 -0.7747680000      1.0562010000      0.5049100000
C                 -1.4771220000      0.0518120000     -0.0572180000
C                 -0.7262620000     -1.0400130000     -0.7750530000
O                 -1.3269220000     -1.9461160000     -1.3106010000
C                  0.7692750000     -0.9700100000     -0.8080620000
C                  1.4734110000      0.0063010000     -0.2005050000
C                  0.7218020000      1.1103830000      0.4975010000
O                  1.3225150000      2.0157900000      1.0341660000
C                  2.9547030000      0.0939180000     -0.1584770000
C                  3.6171320000      1.1924880000     -0.7190060000
C                  5.0058130000      1.2710280000     -0.6769350000
C                  5.7461660000      0.2687620000     -0.0523950000
C                  5.0916870000     -0.8175980000      0.5254680000
C                  3.7041550000     -0.9086350000      0.4677080000
Br                 1.5914560000     -2.3589840000     -1.8143010000
C                 -2.9558120000     -0.0769770000     -0.0331360000
C                 -3.6866730000     -0.0913820000     -1.2270810000
C                 -5.0725490000     -0.2137500000     -1.2002490000
C                 -5.7409900000     -0.3496650000      0.0152440000
C                 -5.0175150000     -0.3562780000      1.2064560000
C                 -3.6332300000     -0.2144160000      1.1838570000
H                  3.0472600000      1.9831010000     -1.1913940000
H                  5.5084180000      2.1207760000     -1.1243910000
H                  6.8273940000      0.3363740000     -0.0121450000
H                  5.6603760000     -1.5961990000      1.0208360000
H                  3.2000230000     -1.7561030000      0.9166920000
H                 -3.1723080000     -0.0028790000     -2.1760700000
H                 -5.6289000000     -0.2122890000     -2.1305000000
H                 -6.8198320000     -0.4545940000      0.0337240000
H                 -5.5298000000     -0.4706670000      2.1548710000
H                 -3.0753260000     -0.2183310000      2.1126530000
$end
$rem
MAX_SCF_CYCLES=200
BASIS  =  6-311++G(d,p)
GUI  =  2
JOB_TYPE  =  SP
METHOD  =  B3LYP
SOLVENT_METHOD = COSMO
$end
$solvent
dielectric 37.219
opticaldielectric 1.43
$end

--------------------------------------------------------------

             Standard Nuclear Orientation (Angstroms)
    I     Atom           X                Y                Z
 ----------------------------------------------------------------
    1      Br     -2.0815611524    -2.5953104051     0.1142004791
    2      C      -0.9706292434    -1.0544414648     0.0166815810
    3      C      -1.4635491654     0.2003117067    -0.0099777921
    4      C      -0.4961853281     1.3558365805     0.0013857391
    5      O      -0.9050332700     2.4966560836     0.0004036943
    6      C       0.9705347161     1.0539649717     0.0164448254
    7      C       1.4634559582    -0.2007971078    -0.0103312164
    8      C       0.4961197173    -1.3563242970     0.0016287067
    9      O       0.9049774660    -2.4971408885     0.0012936299
   10      C       2.9048984305    -0.5534895345    -0.0493277795
   11      C       3.4802033722    -1.3046131188     0.9825145389
   12      C       4.8316778711    -1.6335993607     0.9417941267
   13      C       5.6167858502    -1.2401001998    -0.1405522978
   14      C       5.0456409683    -0.5095140889    -1.1809771707
   15      C       3.6988029521    -0.1621745061    -1.1335263920
   16      Br      2.0813469723     2.5948231622     0.1144216730
   17      C      -2.9049403374     0.5532517842    -0.0489066558
   18      C      -3.4798857443     1.3048292092     0.9828099340
   19      C      -4.8310953918     1.6348278949     0.9418278993
   20      C      -5.6162901739     1.2417908107    -0.1406232521
   21      C      -5.0455412765     0.5105676490    -1.1808175706
   22      C      -3.6989502710     0.1622868086    -1.1331350453
   23      H       2.8723857195    -1.6278675597     1.8185992848
   24      H       5.2687036958    -2.2057730834     1.7520570353
   25      H       6.6673061934    -1.5055239844    -0.1752316312
   26      H       5.6479818849    -0.2079392557    -2.0302440260
   27      H       3.2597939079     0.4075642053    -1.9438390333
   28      H      -2.8719456795     1.6278022895     1.8189208855
   29      H      -5.2678305651     2.2074735214     1.7519111466
   30      H      -6.6665948000     1.5080446687    -0.1755623705
   31      H      -5.6479827837     0.2092882177    -2.0301153461
   32      H      -3.2601922620    -0.4078194998    -1.9433229350
 ----------------------------------------------------------------

    9   -5990.8495081320      3.27e-06  Convergence criterion met
 Total energy in the final basis set =    -5990.8495081320
    4   -5990.8676483236      6.10e-06  Convergence criterion met
 Total energy in the final basis set =    -5990.8676483236

                    Orbital Energies (a.u.)
 --------------------------------------------------------------

 Alpha MOs
 -- Occupied --
********-482.8503 -62.5031 -62.5031 -56.3237 -56.3237 -56.3199 -56.3198
-56.3194 -56.3194 -19.1558 -19.1558 -10.3088 -10.3088 -10.2698 -10.2698
-10.2401 -10.2401 -10.2054 -10.2054 -10.1886 -10.1886 -10.1882 -10.1882
-10.1847 -10.1847 -10.1835 -10.1835 -10.1833 -10.1833  -8.7120  -8.7120
 -6.5438  -6.5438  -6.5309  -6.5308  -6.5294  -6.5294  -2.6546  -2.6546
 -2.6512  -2.6512  -2.6502  -2.6502  -2.6398  -2.6398  -2.6398  -2.6398
 -1.0937  -1.0919  -0.9040  -0.8857  -0.8675  -0.8537  -0.8064  -0.7963
 -0.7696  -0.7603  -0.7603  -0.7366  -0.7055  -0.6618  -0.6244  -0.6208
 -0.6132  -0.6034  -0.5907  -0.5550  -0.5371  -0.5333  -0.5003  -0.4876
 -0.4826  -0.4756  -0.4691  -0.4662  -0.4551  -0.4424  -0.4412  -0.4406
 -0.4370  -0.4319  -0.4316  -0.4190  -0.3850  -0.3828  -0.3689  -0.3657
 -0.3634  -0.3596  -0.3550  -0.3506  -0.3140  -0.3135  -0.3092  -0.3013
 -0.2930  -0.2871  -0.2676  -0.2674  -0.2630  -0.2579

          Ground-State Mulliken Net Atomic Charges

     Atom                 Charge (a.u.)
  ----------------------------------------
      1 Br                   -0.054509
      2 C                    -0.347091
      3 C                     1.034511
      4 C                    -1.121441
      5 O                    -0.170568
      6 C                    -0.348119
      7 C                     1.034225
      8 C                    -1.122294
      9 O                    -0.170458
     10 C                     1.340593
     11 C                    -0.204246
     12 C                    -0.321131
     13 C                    -0.399560
     14 C                    -0.415735
     15 C                    -0.478882
     16 Br                   -0.054318
     17 C                     1.339907
     18 C                    -0.204589
     19 C                    -0.321023
     20 C                    -0.399526
     21 C                    -0.416046
     22 C                    -0.478399
     23 H                     0.250336
     24 H                     0.223184
     25 H                     0.207924
     26 H                     0.223904
     27 H                     0.234011
     28 H                     0.250307
     29 H                     0.223198
     30 H                     0.207956
     31 H                     0.223888
     32 H                     0.233959
  ----------------------------------------
  Sum of atomic charges =    -0.000032

                    Cartesian Multipole Moments
 -----------------------------------------------------------------
    Charge (ESU x 10^10)
                -0.0002
    Dipole Moment (Debye)
         X       0.0009      Y       0.0002      Z      -0.1970
       Tot       0.1970
    Quadrupole Moments (Debye-Ang)
        XX    -120.9740     XY      -1.5223     YY    -169.7302
        XZ       0.0042     YZ       0.0040     ZZ    -141.4388

 Total job time:  190.38s(wall), 776.15s(cpu)
        *  Thank you very much for using Q-Chem.  Have a nice day.  *
