 Q-Chem 5.4, Q-Chem, Inc., Pleasanton, CA (2021)
 Q-Chem 5.4.0 for Intel X86 EM64T Linux

User input:
--------------------------------------------------------------
$molecule
0 1
C                  0.8264430000      1.0826010000     -1.5373460000
C                 -0.4140170000      0.3154500000     -1.7961890000
C                 -0.6689000000     -0.8283590000     -1.1547370000
C                  0.2738540000     -1.3769750000     -0.1562960000
C                  1.4917080000     -0.5604630000      0.2144930000
C                  1.7099270000      0.6019680000     -0.4294540000
O                  1.1176510000      2.0418070000     -2.2256150000
O                  0.0755840000     -2.4630000000      0.3538980000
S                  3.0998780000      1.7041280000      0.0328360000
C                  4.2274830000      1.6434200000     -1.3625790000
C                  5.0890830000      0.5524650000     -1.4779790000
C                  4.2337470000      2.6967960000     -2.2734370000
C                  5.1367200000      2.6529150000     -3.3324480000
C                  5.9785020000      0.5204550000     -2.5487280000
C                  6.0029530000      1.5681320000     -3.4698850000
O                  3.7480150000      1.0392630000      1.1699510000
O                  2.5655080000      3.0561170000      0.1796350000
H                 -1.0678220000      0.7258420000     -2.5575280000
H                 -1.5506190000     -1.4297360000     -1.3454100000
H                  5.0647220000     -0.2464190000     -0.7467610000
H                  3.5448020000      3.5212700000     -2.1478440000
H                  5.1621930000      3.4651270000     -4.0492970000
H                  6.6562940000     -0.3179560000     -2.6573830000
H                  6.7015550000      1.5391790000     -4.2984770000
C                  2.4471650000     -1.2800580000      1.1909940000
O                  3.2959790000     -1.9552880000      0.6582340000
C                  2.2197400000     -1.2539270000      2.7120960000
C                  1.2675310000     -0.1242900000      3.1363520000
C                  1.6238520000     -2.6281870000      3.1153290000
C                  3.5882540000     -1.0957970000      3.4090270000
H                  0.2782900000     -0.2243010000      2.6786590000
H                  1.6734580000      0.8575910000      2.8864270000
H                  1.1228670000     -0.1598880000      4.2193330000
H                  0.6395990000     -2.7960250000      2.6790330000
H                  1.5337920000     -2.6617600000      4.2046120000
H                  2.2808010000     -3.4403760000      2.7978640000
H                  4.0306950000     -0.1239000000      3.1956280000
H                  4.2796130000     -1.8734660000      3.0801950000
H                  3.4503140000     -1.1923460000      4.4895860000
$end
$rem
MAX_SCF_CYCLES=200
BASIS  =  6-311++G(d,p)
GUI  =  2
JOB_TYPE  =  SP
METHOD  =  B3LYP
SOLVENT_METHOD = PCM
$end
$pcm
theory = CPCM
$end
$solvent
dielectric 37.219
opticaldielectric 1.43
$end

--------------------------------------------------------------

             Standard Nuclear Orientation (Angstroms)
    I     Atom           X                Y                Z
 ----------------------------------------------------------------
    1      C       0.8264430000     1.0826010000    -1.5373460000
    2      C      -0.4140170000     0.3154500000    -1.7961890000
    3      C      -0.6689000000    -0.8283590000    -1.1547370000
    4      C       0.2738540000    -1.3769750000    -0.1562960000
    5      C       1.4917080000    -0.5604630000     0.2144930000
    6      C       1.7099270000     0.6019680000    -0.4294540000
    7      O       1.1176510000     2.0418070000    -2.2256150000
    8      O       0.0755840000    -2.4630000000     0.3538980000
    9      S       3.0998780000     1.7041280000     0.0328360000
   10      C       4.2274830000     1.6434200000    -1.3625790000
   11      C       5.0890830000     0.5524650000    -1.4779790000
   12      C       4.2337470000     2.6967960000    -2.2734370000
   13      C       5.1367200000     2.6529150000    -3.3324480000
   14      C       5.9785020000     0.5204550000    -2.5487280000
   15      C       6.0029530000     1.5681320000    -3.4698850000
   16      O       3.7480150000     1.0392630000     1.1699510000
   17      O       2.5655080000     3.0561170000     0.1796350000
   18      H      -1.0678220000     0.7258420000    -2.5575280000
   19      H      -1.5506190000    -1.4297360000    -1.3454100000
   20      H       5.0647220000    -0.2464190000    -0.7467610000
   21      H       3.5448020000     3.5212700000    -2.1478440000
   22      H       5.1621930000     3.4651270000    -4.0492970000
   23      H       6.6562940000    -0.3179560000    -2.6573830000
   24      H       6.7015550000     1.5391790000    -4.2984770000
   25      C       2.4471650000    -1.2800580000     1.1909940000
   26      O       3.2959790000    -1.9552880000     0.6582340000
   27      C       2.2197400000    -1.2539270000     2.7120960000
   28      C       1.2675310000    -0.1242900000     3.1363520000
   29      C       1.6238520000    -2.6281870000     3.1153290000
   30      C       3.5882540000    -1.0957970000     3.4090270000
   31      H       0.2782900000    -0.2243010000     2.6786590000
   32      H       1.6734580000     0.8575910000     2.8864270000
   33      H       1.1228670000    -0.1598880000     4.2193330000
   34      H       0.6395990000    -2.7960250000     2.6790330000
   35      H       1.5337920000    -2.6617600000     4.2046120000
   36      H       2.2808010000    -3.4403760000     2.7978640000
   37      H       4.0306950000    -0.1239000000     3.1956280000
   38      H       4.2796130000    -1.8734660000     3.0801950000
   39      H       3.4503140000    -1.1923460000     4.4895860000
 ----------------------------------------------------------------

    9   -1431.9704666152      5.85e-06  Convergence criterion met
 Total energy in the final basis set =    -1431.9704666152

                    Orbital Energies (a.u.)
 --------------------------------------------------------------

 Alpha MOs
 -- Occupied --
-89.0780 -19.1620 -19.1582 -19.1463 -19.1439 -19.1416 -10.3104 -10.3091
-10.2987 -10.2579 -10.2564 -10.2275 -10.2234 -10.2223 -10.2052 -10.2038
-10.2035 -10.1968 -10.1947 -10.1944 -10.1621 -10.1618 -10.1578  -8.1419
 -6.1046  -6.1038  -6.1028  -1.1400  -1.0968  -1.0919  -1.0826  -1.0359
 -0.8908  -0.8870  -0.8317  -0.8215  -0.7934  -0.7739  -0.7449  -0.7031
 -0.6931  -0.6896  -0.6731  -0.6440  -0.6328  -0.6194  -0.6008  -0.5609
 -0.5572  -0.5444  -0.5295  -0.5090  -0.4998  -0.4969  -0.4908  -0.4887
 -0.4744  -0.4709  -0.4656  -0.4633  -0.4584  -0.4468  -0.4431  -0.4420
 -0.4353  -0.4300  -0.4175  -0.3983  -0.3922  -0.3886  -0.3855  -0.3793
 -0.3702  -0.3695  -0.3661  -0.3559  -0.3396  -0.3389  -0.3369  -0.3321
 -0.3277  -0.3193  -0.3105  -0.3033  -0.2846  -0.2793  -0.2735

          Ground-State Mulliken Net Atomic Charges

     Atom                 Charge (a.u.)
  ----------------------------------------
      1 C                    -0.178358
      2 C                    -0.127625
      3 C                    -0.101473
      4 C                    -0.408866
      5 C                     0.593598
      6 C                     0.037768
      7 O                    -0.213307
      8 O                    -0.193627
      9 S                     0.292111
     10 C                     0.888267
     11 C                    -0.414657
     12 C                    -0.035026
     13 C                    -0.477416
     14 C                    -0.572335
     15 C                    -0.369513
     16 O                    -0.126633
     17 O                    -0.120757
     18 H                     0.280684
     19 H                     0.276371
     20 H                     0.235528
     21 H                     0.276705
     22 H                     0.238513
     23 H                     0.245255
     24 H                     0.216062
     25 C                    -0.171949
     26 O                    -0.205211
     27 C                     0.263327
     28 C                    -0.577766
     29 C                    -0.579851
     30 C                    -0.588360
     31 H                     0.155383
     32 H                     0.214046
     33 H                     0.191691
     34 H                     0.177766
     35 H                     0.172869
     36 H                     0.188889
     37 H                     0.160102
     38 H                     0.176041
     39 H                     0.181753
  ----------------------------------------
  Sum of atomic charges =     0.000000

                    Cartesian Multipole Moments
 -----------------------------------------------------------------
    Charge (ESU x 10^10)
                -0.0000
    Dipole Moment (Debye)
         X      -2.0947      Y      -1.2389      Z      -3.7935
       Tot       4.5070
    Quadrupole Moments (Debye-Ang)
        XX    -130.9141     XY       0.2427     YY    -163.7251
        XZ     -19.4559     YZ      -6.0921     ZZ    -124.4271

 Total job time:  110.96s(wall), 775.37s(cpu)
        *  Thank you very much for using Q-Chem.  Have a nice day.  *
