 Q-Chem 5.4, Q-Chem, Inc., Pleasanton, CA (2021)
 Q-Chem 5.4.0 for Intel X86 EM64T Linux

User input:
--------------------------------------------------------------
$molecule
0 1
C                 -4.5594670000      0.8903610000      0.3457680000
C                 -3.2154080000      0.2413320000      0.1780080000
C                 -3.0766070000     -1.1084240000     -0.0574780000
C                 -1.8137330000     -1.7181430000     -0.2149830000
O                 -1.7957290000     -3.0376070000     -0.4401450000
C                 -0.6502600000     -0.9345990000     -0.1313120000
C                  0.6563780000     -1.5468030000     -0.2911660000
O                  0.7596740000     -2.7892650000     -0.5069430000
C                  1.8495400000     -0.7155070000     -0.2005200000
C                  3.1220110000     -1.2934660000     -0.3528640000
O                  3.3168340000     -2.5980810000     -0.5829160000
C                  4.2694940000     -0.4743290000     -0.2623810000
C                  4.1576740000      0.8733900000     -0.0285670000
C                  2.8919810000      1.4804840000      0.1284570000
O                  2.8700110000      2.8001910000      0.3537180000
C                  1.7322330000      0.6885980000      0.0432250000
C                  0.4202540000      1.2999690000      0.2031680000
O                  0.3190030000      2.5425430000      0.4187820000
C                 -0.7716750000      0.4687850000      0.1125680000
C                 -2.0428250000      1.0459170000      0.2648650000
O                 -2.2266980000      2.3529520000      0.4949570000
H                 -4.7084690000      1.6725600000     -0.4037990000
H                 -4.6349800000      1.3787550000      1.3212990000
H                 -5.3612630000      0.1570120000      0.2550300000
H                 -3.9503350000     -1.7460830000     -0.1287200000
H                 -0.8490360000     -3.3050550000     -0.5259820000
H                  2.4262860000     -3.0233010000     -0.6173890000
H                  5.2382600000     -0.9438000000     -0.3833390000
H                  5.0349120000      1.5050650000      0.0415250000
H                  1.9232220000      3.0653840000      0.4391710000
H                 -1.3312810000      2.7711600000      0.5279620000
$end
$rem
MAX_SCF_CYCLES=200
BASIS  =  6-311++G(d,p)
GUI  =  2
JOB_TYPE  =  SP
METHOD  =  B3LYP
SOLVENT_METHOD = PCM
$end
$pcm
theory = CPCM
$end
$solvent
dielectric 37.219
opticaldielectric 1.43
$end

--------------------------------------------------------------

             Standard Nuclear Orientation (Angstroms)
    I     Atom           X                Y                Z
 ----------------------------------------------------------------
    1      C      -4.5594670000     0.8903610000     0.3457680000
    2      C      -3.2154080000     0.2413320000     0.1780080000
    3      C      -3.0766070000    -1.1084240000    -0.0574780000
    4      C      -1.8137330000    -1.7181430000    -0.2149830000
    5      O      -1.7957290000    -3.0376070000    -0.4401450000
    6      C      -0.6502600000    -0.9345990000    -0.1313120000
    7      C       0.6563780000    -1.5468030000    -0.2911660000
    8      O       0.7596740000    -2.7892650000    -0.5069430000
    9      C       1.8495400000    -0.7155070000    -0.2005200000
   10      C       3.1220110000    -1.2934660000    -0.3528640000
   11      O       3.3168340000    -2.5980810000    -0.5829160000
   12      C       4.2694940000    -0.4743290000    -0.2623810000
   13      C       4.1576740000     0.8733900000    -0.0285670000
   14      C       2.8919810000     1.4804840000     0.1284570000
   15      O       2.8700110000     2.8001910000     0.3537180000
   16      C       1.7322330000     0.6885980000     0.0432250000
   17      C       0.4202540000     1.2999690000     0.2031680000
   18      O       0.3190030000     2.5425430000     0.4187820000
   19      C      -0.7716750000     0.4687850000     0.1125680000
   20      C      -2.0428250000     1.0459170000     0.2648650000
   21      O      -2.2266980000     2.3529520000     0.4949570000
   22      H      -4.7084690000     1.6725600000    -0.4037990000
   23      H      -4.6349800000     1.3787550000     1.3212990000
   24      H      -5.3612630000     0.1570120000     0.2550300000
   25      H      -3.9503350000    -1.7460830000    -0.1287200000
   26      H      -0.8490360000    -3.3050550000    -0.5259820000
   27      H       2.4262860000    -3.0233010000    -0.6173890000
   28      H       5.2382600000    -0.9438000000    -0.3833390000
   29      H       5.0349120000     1.5050650000     0.0415250000
   30      H       1.9232220000     3.0653840000     0.4391710000
   31      H      -1.3312810000     2.7711600000     0.5279620000
 ----------------------------------------------------------------

    8   -1029.3303652983      9.93e-06  Convergence criterion met
 Total energy in the final basis set =    -1029.3303652983

                    Orbital Energies (a.u.)
 --------------------------------------------------------------

 Alpha MOs
 -- Occupied --
-19.1661 -19.1659 -19.1659 -19.1655 -19.1443 -19.1424 -10.2917 -10.2900
-10.2689 -10.2683 -10.2679 -10.2672 -10.2142 -10.2130 -10.2124 -10.2117
-10.2092 -10.2036 -10.2029 -10.1981 -10.1739  -1.0992  -1.0972  -1.0878
 -1.0866  -1.0569  -1.0553  -0.8968  -0.8783  -0.8297  -0.7927  -0.7778
 -0.7634  -0.7283  -0.7003  -0.6811  -0.6577  -0.6377  -0.6277  -0.5867
 -0.5620  -0.5571  -0.5504  -0.5468  -0.5436  -0.5017  -0.4868  -0.4793
 -0.4747  -0.4718  -0.4641  -0.4532  -0.4439  -0.4401  -0.4385  -0.4358
 -0.4269  -0.4267  -0.4173  -0.4020  -0.3971  -0.3949  -0.3927  -0.3892
 -0.3806  -0.3774  -0.3396  -0.3302  -0.3065  -0.2950  -0.2877  -0.2783
 -0.2466  -0.2261

          Ground-State Mulliken Net Atomic Charges

     Atom                 Charge (a.u.)
  ----------------------------------------
      1 C                    -0.139651
      2 C                     0.992406
      3 C                    -0.850870
      4 C                    -0.347172
      5 O                    -0.340999
      6 C                     0.625172
      7 C                    -0.523493
      8 O                    -0.424574
      9 C                     0.422154
     10 C                    -0.313960
     11 O                    -0.345129
     12 C                    -0.094108
     13 C                    -0.116937
     14 C                    -0.284420
     15 O                    -0.347060
     16 C                     0.465496
     17 C                    -0.422057
     18 O                    -0.429538
     19 C                     0.178764
     20 C                    -0.231923
     21 O                    -0.348046
     22 H                     0.200492
     23 H                     0.200428
     24 H                     0.192845
     25 H                     0.213015
     26 H                     0.388083
     27 H                     0.388027
     28 H                     0.247519
     29 H                     0.247289
     30 H                     0.388089
     31 H                     0.410158
  ----------------------------------------
  Sum of atomic charges =     0.000000

                    Cartesian Multipole Moments
 -----------------------------------------------------------------
    Charge (ESU x 10^10)
                 0.0000
    Dipole Moment (Debye)
         X      -1.1488      Y       0.5601      Z       0.1452
       Tot       1.2863
    Quadrupole Moments (Debye-Ang)
        XX    -103.2861     XY       0.8664     YY    -137.7505
        XZ      -0.6344     YZ      -2.7718     ZZ    -122.1162

 Total job time:  77.15s(wall), 460.46s(cpu)
        *  Thank you very much for using Q-Chem.  Have a nice day.  *
