 Gaussian 16, Revision A.03,
 Gaussian 16:  ES64L-G16RevA.03 25-Dec-2016

 --------------------------------------
 #P UB3LYP/6-311++G(d,p) nosym opt freq
 --------------------------------------

 -------
 Radical
 -------
 Symbolic Z-matrix:
 Charge = -1 Multiplicity = 2

 SCF Done:  E(UB3LYP) =  -994.952656801     A.U. after   23 cycles
 SCF Done:  E(UB3LYP) =  -994.960862308     A.U. after   19 cycles
 SCF Done:  E(UB3LYP) =  -994.961637926     A.U. after   18 cycles
 SCF Done:  E(UB3LYP) =  -994.961701321     A.U. after   16 cycles
 SCF Done:  E(UB3LYP) =  -994.961705372     A.U. after   13 cycles
 Optimization completed.
    -- Stationary point found.
 Normal termination of Gaussian 16 at Tue Dec 26 20:21:51 2023.

 ----------------------------------------------------------------------
 #P Geom=AllCheck Guess=TCheck SCRF=Check GenChk UB3LYP/6-311++G(d,p) F
 req
 ----------------------------------------------------------------------

 Structure from the checkpoint file:  "229-rad.chk"
 -------
 Radical
 -------
 Charge = -1 Multiplicity = 2

                          Input orientation:
 ---------------------------------------------------------------------
 Center     Atomic      Atomic             Coordinates (Angstroms)
 Number     Number       Type             X           Y           Z
 ---------------------------------------------------------------------
      1          6           0        5.770013   -5.127764    1.238448
      2          6           0        6.779381   -5.040389    0.296146
      3          6           0        6.690742   -4.096298   -0.744306
      4          6           0        4.644233   -4.282954    1.177392
      5          6           0        4.555810   -3.331437    0.128015
      6          6           0        5.592604   -3.257832   -0.820820
      7          6           0        3.595434   -4.420523    2.211563
      8          6           0        2.494224   -3.503861    2.044748
      9          6           0        2.392270   -2.575453    1.033981
     10          6           0        3.397789   -2.423267    0.018978
     11          8           0        3.681003   -5.263072    3.134436
     12          8           0        3.301441   -1.573384   -0.904007
     13          1           0        5.812208   -5.845154    2.049954
     14          1           0        7.639964   -5.699972    0.359060
     15          1           0        5.494480   -2.520355   -1.609550
     16         17           0        1.186924   -3.597271    3.241025
     17          1           0        7.482570   -4.027095   -1.484363
     18          1           0        1.531699   -1.919739    0.975240
 ---------------------------------------------------------------------

 SCF Done:  E(UB3LYP) =  -994.961705372     A.U. after    2 cycles

 Alpha  occ. eigenvalues -- -101.42019 -18.94983 -18.94831 -10.10221 -10.09817
 Alpha  occ. eigenvalues --  -10.09698 -10.06251 -10.06199 -10.05671 -10.05500
 Alpha  occ. eigenvalues --  -10.05486 -10.05415 -10.04445  -9.33463  -7.09883
 Alpha  occ. eigenvalues --   -7.08994  -7.08919  -0.87766  -0.87160  -0.74519
 Alpha  occ. eigenvalues --   -0.73475  -0.66961  -0.63407  -0.61400  -0.55310
 Alpha  occ. eigenvalues --   -0.50186  -0.48641  -0.44081  -0.39323  -0.38358
 Alpha  occ. eigenvalues --   -0.34780  -0.33787  -0.30960  -0.30081  -0.29800
 Alpha  occ. eigenvalues --   -0.29430  -0.27626  -0.26955  -0.25404  -0.24074
 Alpha  occ. eigenvalues --   -0.23716  -0.22283  -0.21020  -0.18381  -0.14736
 Alpha  occ. eigenvalues --   -0.13899  -0.12784  -0.11757  -0.11131  -0.02945
 Alpha virt. eigenvalues --    0.08130   0.08484   0.09791   0.10141   0.11001
 Alpha virt. eigenvalues --    0.12204   0.12534   0.13731   0.15440   0.15903
 Alpha virt. eigenvalues --    0.17080   0.17125   0.17481   0.17648   0.17990

  Beta  occ. eigenvalues -- -101.42016 -18.94308 -18.94156 -10.10104 -10.09721
  Beta  occ. eigenvalues --  -10.09517 -10.06222 -10.06165 -10.05622 -10.05506
  Beta  occ. eigenvalues --  -10.05484 -10.05356 -10.04273  -9.33460  -7.09890
  Beta  occ. eigenvalues --   -7.08976  -7.08918  -0.86623  -0.85992  -0.74222
  Beta  occ. eigenvalues --   -0.73341  -0.66575  -0.63258  -0.61153  -0.54413
  Beta  occ. eigenvalues --   -0.50009  -0.48352  -0.43844  -0.39113  -0.38105
  Beta  occ. eigenvalues --   -0.34508  -0.33658  -0.30923  -0.29898  -0.29156
  Beta  occ. eigenvalues --   -0.28468  -0.27013  -0.26631  -0.24086  -0.23568
  Beta  occ. eigenvalues --   -0.22399  -0.22118  -0.19946  -0.18334  -0.13310
  Beta  occ. eigenvalues --   -0.12567  -0.11483  -0.11122  -0.10501
  Beta virt. eigenvalues --    0.03833   0.08126   0.09093   0.10136   0.10937
  Beta virt. eigenvalues --    0.11016   0.12204   0.12592   0.13744   0.15503
  Beta virt. eigenvalues --    0.15928   0.17201   0.17349   0.17675   0.18054

 Mulliken charges and spin densities:
               1          2
     1  C   -0.040422   0.032655
     2  C   -0.345773   0.018021
     3  C   -0.343773   0.028349
     4  C    0.267716   0.012610
     5  C    0.367623   0.047701
     6  C    0.080987   0.014797
     7  C   -1.455766   0.081383
     8  C    1.229509   0.095057
     9  C    0.115946   0.142139
    10  C   -1.163566   0.047085
    11  O   -0.335323   0.251185
    12  O   -0.389811   0.245087
    13  H    0.153376  -0.002376
    14  H    0.130756  -0.001859
    15  H    0.155549  -0.002233
    16  Cl   0.279526   0.004200
    17  H    0.127152  -0.002311
    18  H    0.166293  -0.011491
 Sum of Mulliken charges =  -1.00000   1.00000

 Dipole moment (field-independent basis, Debye):
    X=            -16.0817    Y=             16.8204    Z=             -6.4018  Tot=             24.1357
 Quadrupole moment (field-independent basis, Debye-Ang):
   XX=           -146.2753   YY=           -159.2873   ZZ=           -115.6613
   XY=             57.4183   XZ=            -18.2943   YZ=             37.1913

  Exact polarizability: 182.756 -35.411 134.300 -46.584 -38.839 160.984
 Approx polarizability: 267.776 -55.549 234.827 -58.947 -91.700 275.191

                      1                      2                      3
                      A                      A                      A
 Frequencies --     68.4486               132.7961               161.4489
 Red. masses --     10.6187                 4.5335                 9.6349
 Frc consts  --      0.0293                 0.0471                 0.1480
 IR Inten    --      4.9551                 0.6568                 4.2548

                      4                      5                      6
                      A                      A                      A
 Frequencies --    205.9796               221.4566               278.1870
 Red. masses --     11.0978                 5.1414                 7.6476
 Frc consts  --      0.2774                 0.1486                 0.3487
 IR Inten    --      1.8613                 0.1404                 0.8905

                      7                      8                      9
                      A                      A                      A
 Frequencies --    328.5123               368.9541               376.0289
 Red. masses --     17.9666                10.4398                 6.1784
 Frc consts  --      1.1424                 0.8373                 0.5147
 IR Inten    --      0.8517                 7.9565                 0.0480

                     10                     11                     12
                      A                      A                      A
 Frequencies --    439.9637               466.9991               493.0410
 Red. masses --      3.6323                 9.7751                 4.0953
 Frc consts  --      0.4143                 1.2560                 0.5865
 IR Inten    --      1.4772                 2.3233                 0.1155

                     13                     14                     15
                      A                      A                      A
 Frequencies --    505.5516               610.7467               651.5350
 Red. masses --      9.4121                 7.1584                 3.2686
 Frc consts  --      1.4173                 1.5732                 0.8175
 IR Inten    --      3.7476                14.1840                 2.6129

                     16                     17                     18
                      A                      A                      A
 Frequencies --    661.0614               694.8841               725.4721
 Red. masses --      6.1681                 3.5626                 6.4093
 Frc consts  --      1.5881                 1.0135                 1.9875
 IR Inten    --      1.1495                23.0771                 5.0296

                     19                     20                     21
                      A                      A                      A
 Frequencies --    772.3967               791.2607               824.3964
 Red. masses --      1.5129                 4.0284                 6.2370
 Frc consts  --      0.5318                 1.4860                 2.4974
 IR Inten    --     53.9702                 1.3306                62.0501

                     22                     23                     24
                      A                      A                      A
 Frequencies --    836.3725               853.1800               876.4850
 Red. masses --      6.9455                 1.6143                 1.4548
 Frc consts  --      2.8625                 0.6923                 0.6585
 IR Inten    --     71.5590                18.4040                 0.0009

                     25                     26                     27
                      A                      A                      A
 Frequencies --    980.7433               983.7558              1036.5896
 Red. masses --      1.3639                 1.2588                 2.5013
 Frc consts  --      0.7729                 0.7178                 1.5835
 IR Inten    --      2.9415                 0.0754                11.2944

                     28                     29                     30
                      A                      A                      A
 Frequencies --   1082.3158              1101.3330              1135.8184
 Red. masses --      3.1639                 2.9189                 1.7161
 Frc consts  --      2.1836                 2.0859                 1.3044
 IR Inten    --     27.4456                12.2574                34.7932

                     31                     32                     33
                      A                      A                      A
 Frequencies --   1153.8093              1212.1463              1240.0903
 Red. masses --      1.4743                 2.4000                 1.8910
 Frc consts  --      1.1564                 2.0776                 1.7133
 IR Inten    --      5.9804                 8.9755                17.3662

                     34                     35                     36
                      A                      A                      A
 Frequencies --   1279.7642              1351.9648              1373.1098
 Red. masses --      1.7443                 9.9408                 3.4057
 Frc consts  --      1.6832                10.7054                 3.7833
 IR Inten    --     24.4393                 4.8730                46.3654

                     37                     38                     39
                      A                      A                      A
 Frequencies --   1461.0183              1464.5515              1500.5221
 Red. masses --      3.4294                 2.7814                 5.2365
 Frc consts  --      4.3129                 3.5149                 6.9466
 IR Inten    --     53.4869                78.0380                 2.3626

                     40                     41                     42
                      A                      A                      A
 Frequencies --   1539.9261              1551.5338              1617.8734
 Red. masses --      6.5978                 6.2823                 8.4822
 Frc consts  --      9.2183                 8.9102                13.0812
 IR Inten    --    548.8397                14.0052                 7.1025

                     43                     44                     45
                      A                      A                      A
 Frequencies --   1631.5458              3134.6423              3153.7071
 Red. masses --      6.1090                 1.0847                 1.0913
 Frc consts  --      9.5813                 6.2798                 6.3947
 IR Inten    --     14.0071                15.1406                47.0087

                     46                     47                     48
                      A                      A                      A
 Frequencies --   3180.2559              3182.9475              3184.2088
 Red. masses --      1.0917                 1.0901                 1.0926
 Frc consts  --      6.5054                 6.5070                 6.5269
 IR Inten    --     12.6587                 9.9861                19.9272

 - Thermochemistry -
 -------------------
 Temperature   298.150 Kelvin.  Pressure   1.00000 Atm.
 Atom     1 has atomic number  6 and mass  12.00000

 Molecular mass:   191.99781 amu.
 Principal axes and moments of inertia in atomic units:
                           1         2         3
     Eigenvalues --  1435.849423239.012964674.86234
           X            0.80307  -0.36200   0.47332
           Y           -0.06350   0.73781   0.67202
           Z           -0.59249  -0.56974   0.56952
 This molecule is an asymmetric top.
 Rotational symmetry number  1.
 Warning -- assumption of classical behavior for rotation
           may cause significant error
 Rotational temperatures (Kelvin)      0.06032     0.02674     0.01853
 Rotational constants (GHZ):           1.25692     0.55719     0.38605
 Zero-point vibrational energy     316288.6 (Joules/Mol)
                                   75.59480 (Kcal/Mol)
 Warning -- explicit consideration of  14 degrees of freedom as
           vibrations may cause significant error
 Vibrational temperatures:     98.48   191.06   232.29   296.36   318.63
          (Kelvin)            400.25   472.66   530.84   541.02   633.01
                              671.91   709.38   727.38   878.73   937.41
                              951.12   999.78  1043.79  1111.31  1138.45
                             1186.12  1203.35  1227.54  1261.07  1411.07
                             1415.41  1491.42  1557.21  1584.57  1634.19
                             1660.07  1744.01  1784.21  1841.30  1945.18
                             1975.60  2102.08  2107.16  2158.92  2215.61
                             2232.31  2327.76  2347.43  4510.05  4537.48
                             4575.68  4579.55  4581.37

 Zero-point correction=                           0.120468 (Hartree/Particle)
 Thermal correction to Energy=                    0.130314
 Thermal correction to Enthalpy=                  0.131258
 Thermal correction to Gibbs Free Energy=         0.083929
 Sum of electronic and zero-point Energies=           -994.841237
 Sum of electronic and thermal Energies=              -994.831391
 Sum of electronic and thermal Enthalpies=            -994.830447
 Sum of electronic and thermal Free Energies=         -994.877777

                     E (Thermal)             CV                S
                      KCal/Mol        Cal/Mol-Kelvin    Cal/Mol-Kelvin
 Total                   81.773             38.547             99.613
 Electronic               0.000              0.000              1.377
 Translational            0.889              2.981             41.662
 Rotational               0.889              2.981             31.453
 Vibrational             79.996             32.585             25.120
 Vibration     1          0.598              1.969              4.197
 Vibration     2          0.613              1.921              2.905
 Vibration     3          0.622              1.890              2.533
 Vibration     4          0.640              1.831              2.079
 Vibration     5          0.648              1.808              1.947
 Vibration     6          0.679              1.714              1.545
 Vibration     7          0.712              1.619              1.267
 Vibration     8          0.741              1.536              1.084
 Vibration     9          0.747              1.521              1.055
 Vibration    10          0.800              1.383              0.827
 Vibration    11          0.824              1.323              0.746
 Vibration    12          0.849              1.265              0.676
 Vibration    13          0.861              1.238              0.644
 Vibration    14          0.970              1.009              0.432

 Optimization completed.
    -- Stationary point found.
 Normal termination of Gaussian 16 at Tue Dec 26 20:40:20 2023.
