 Gaussian 16, Revision A.03,
 Gaussian 16:  ES64L-G16RevA.03 25-Dec-2016

 --------------------------------------
 #P UB3LYP/6-311++G(d,p) nosym opt freq
 --------------------------------------

 -------
 Radical
 -------
 Symbolic Z-matrix:
 Charge = -1 Multiplicity = 2

 SCF Done:  E(UB3LYP) =  -609.576049094     A.U. after   22 cycles
 SCF Done:  E(UB3LYP) =  -609.586104927     A.U. after   17 cycles
 SCF Done:  E(UB3LYP) =  -609.586740744     A.U. after   16 cycles
 SCF Done:  E(UB3LYP) =  -609.586190363     A.U. after   18 cycles
 SCF Done:  E(UB3LYP) =  -609.587127566     A.U. after   16 cycles
 SCF Done:  E(UB3LYP) =  -609.587165497     A.U. after   15 cycles
 SCF Done:  E(UB3LYP) =  -609.587202346     A.U. after   18 cycles
 SCF Done:  E(UB3LYP) =  -609.587250237     A.U. after   14 cycles
 SCF Done:  E(UB3LYP) =  -609.587258092     A.U. after   15 cycles
 SCF Done:  E(UB3LYP) =  -609.587259728     A.U. after   13 cycles
 SCF Done:  E(UB3LYP) =  -609.587260065     A.U. after   12 cycles
 Optimization completed.
    -- Stationary point found.
 Normal termination of Gaussian 16 at Wed Dec 20 01:50:12 2023.

 ----------------------------------------------------------------------
 #P Geom=AllCheck Guess=TCheck SCRF=Check GenChk UB3LYP/6-311++G(d,p) F
 req
 ----------------------------------------------------------------------

 Structure from the checkpoint file:  "096-rad.chk"
 -------
 Radical
 -------
 Charge = -1 Multiplicity = 2

                          Input orientation:
 ---------------------------------------------------------------------
 Center     Atomic      Atomic             Coordinates (Angstroms)
 Number     Number       Type             X           Y           Z
 ---------------------------------------------------------------------
      1          6           0        2.031903    3.897799    5.606978
      2          6           0        2.843284    3.359644    4.517884
      3          6           0        2.407000    2.400427    3.656788
      4          6           0        1.076692    1.824150    3.754671
      5          6           0        0.266068    2.334801    4.828943
      6          6           0        0.698601    3.295440    5.732536
      7          8           0        2.466501    4.823902    6.326134
      8          8           0        0.665669    0.934417    2.954216
      9          1           0        3.836062    3.791431    4.425861
     10          1           0        3.041626    2.030033    2.855680
     11          1           0       -0.726513    1.911723    4.925383
     12          6           0       -0.182336    3.694542    6.847145
     13          8           0        0.136793    4.118707    7.935409
     14          8           0       -1.518807    3.504666    6.537829
     15          6           0       -2.430784    3.787713    7.594940
     16          1           0       -3.423478    3.585629    7.191121
     17          1           0       -2.356883    4.831405    7.911499
     18          1           0       -2.240376    3.151422    8.463823
 ---------------------------------------------------------------------

 SCF Done:  E(UB3LYP) =  -609.587260065     A.U. after    1 cycles

 Alpha  occ. eigenvalues --  -19.04238 -18.98166 -18.94332 -18.94191 -10.17165
 Alpha  occ. eigenvalues --  -10.11952 -10.09561 -10.08694 -10.04908 -10.04143
 Alpha  occ. eigenvalues --  -10.04109 -10.03945  -0.97938  -0.89232  -0.86766
 Alpha  occ. eigenvalues --   -0.86206  -0.69969  -0.64510  -0.60198  -0.55688
 Alpha  occ. eigenvalues --   -0.49997  -0.46241  -0.43067  -0.38031  -0.36890
 Alpha  occ. eigenvalues --   -0.35673  -0.33680  -0.33357  -0.31702  -0.29655
 Alpha  occ. eigenvalues --   -0.28612  -0.26891  -0.26578  -0.25246  -0.24269
 Alpha  occ. eigenvalues --   -0.23830  -0.23266  -0.18748  -0.15914  -0.15053
 Alpha  occ. eigenvalues --   -0.13671  -0.10638  -0.09843  -0.03281
 Alpha virt. eigenvalues --    0.07816   0.08568   0.10256   0.11298   0.11696
 Alpha virt. eigenvalues --    0.12535   0.12634   0.14442   0.15192   0.16714
 Alpha virt. eigenvalues --    0.16971   0.17777   0.18414   0.18595   0.19028

  Beta  occ. eigenvalues --  -19.04234 -18.98109 -18.93546 -18.93514 -10.17158
  Beta  occ. eigenvalues --  -10.11952 -10.09521 -10.08613 -10.04796 -10.04071
  Beta  occ. eigenvalues --  -10.03896 -10.03830  -0.97900  -0.89140  -0.85680
  Beta  occ. eigenvalues --   -0.84788  -0.69367  -0.64312  -0.60019  -0.54692
  Beta  occ. eigenvalues --   -0.49673  -0.45951  -0.42889  -0.37769  -0.36820
  Beta  occ. eigenvalues --   -0.35573  -0.33475  -0.33034  -0.31523  -0.29446
  Beta  occ. eigenvalues --   -0.28095  -0.26149  -0.25255  -0.24822  -0.24048
  Beta  occ. eigenvalues --   -0.22999  -0.21079  -0.18598  -0.15758  -0.12775
  Beta  occ. eigenvalues --   -0.11498  -0.09892  -0.09242
  Beta virt. eigenvalues --    0.03936   0.07819   0.09879   0.10271   0.11303
  Beta virt. eigenvalues --    0.11712   0.12550   0.12653   0.15208   0.15595
  Beta virt. eigenvalues --    0.16774   0.17238   0.17825   0.18624   0.19063

 Mulliken charges and spin densities:
               1          2
     1  C   -1.117049  -0.000472
     2  C    0.167801   0.091475
     3  C    0.202745   0.031186
     4  C   -0.683136   0.091109
     5  C   -0.196260   0.164537
     6  C    1.096691   0.073278
     7  O   -0.362451   0.235970
     8  O   -0.406358   0.291166
     9  H    0.153061  -0.007905
    10  H    0.152485  -0.003479
    11  H    0.179624  -0.013424
    12  C   -0.023804   0.027444
    13  O   -0.262150   0.020067
    14  O   -0.105653  -0.000655
    15  C   -0.241364  -0.000458
    16  H    0.123331   0.000104
    17  H    0.161944   0.000190
    18  H    0.160543  -0.000133
 Sum of Mulliken charges =  -1.00000   1.00000

 Dipole moment (field-independent basis, Debye):
    X=             -6.5753    Y=            -14.7062    Z=            -24.9200  Tot=             29.6735
 Quadrupole moment (field-independent basis, Debye-Ang):
   XX=            -82.1103   YY=           -136.4030   ZZ=           -224.8823
   XY=            -27.6448   XZ=            -42.0363   YZ=            -95.9731

  Exact polarizability: 138.928  14.813 115.615 -20.643  47.988 139.836
 Approx polarizability: 193.313  41.677 195.850   0.595  90.520 218.871

                      1                      2                      3
                      A                      A                      A
 Frequencies --     34.3730                83.3323               110.1308
 Red. masses --      7.0297                 4.1112                 3.4568
 Frc consts  --      0.0049                 0.0168                 0.0247
 IR Inten    --      2.3272                 5.7311                 2.8285

                      4                      5                      6
                      A                      A                      A
 Frequencies --    139.3160               145.6547               198.6555
 Red. masses --      4.7336                 1.3060                 5.2747
 Frc consts  --      0.0541                 0.0163                 0.1226
 IR Inten    --      3.9417                 0.6749                 5.9244

                      7                      8                      9
                      A                      A                      A
 Frequencies --    287.6662               307.0734               323.8064
 Red. masses --      8.0961                 6.5726                 4.5085
 Frc consts  --      0.3947                 0.3652                 0.2785
 IR Inten    --      1.0743                 0.6770                 9.1569

                     10                     11                     12
                      A                      A                      A
 Frequencies --    385.5296               419.6723               447.7749
 Red. masses --      5.3302                 7.8413                 5.5312
 Frc consts  --      0.4668                 0.8137                 0.6534
 IR Inten    --      6.5837                 2.3216                 1.4473

                     13                     14                     15
                      A                      A                      A
 Frequencies --    480.5153               545.5300               572.3631
 Red. masses --     10.8454                 3.9014                 3.0330
 Frc consts  --      1.4754                 0.6841                 0.5854
 IR Inten    --      1.9419                 3.4966                 9.3633

                     16                     17                     18
                      A                      A                      A
 Frequencies --    667.8030               737.1666               769.3127
 Red. masses --      6.8569                 5.5575                 2.9580
 Frc consts  --      1.8017                 1.7793                 1.0315
 IR Inten    --      3.2286                 2.3634                 6.2054

                     19                     20                     21
                      A                      A                      A
 Frequencies --    776.1444               818.2758               839.2762
 Red. masses --      5.8907                 5.1149                 2.6038
 Frc consts  --      2.0908                 2.0178                 1.0806
 IR Inten    --     22.2906                24.0084                34.1831

                     22                     23                     24
                      A                      A                      A
 Frequencies --    891.9531               900.9912               959.9734
 Red. masses --      1.6807                 4.4842                 3.7592
 Frc consts  --      0.7878                 2.1447                 2.0411
 IR Inten    --     31.1652                20.7888                48.9773

                     25                     26                     27
                      A                      A                      A
 Frequencies --    966.7753              1071.9340              1110.0274
 Red. masses --      1.2928                 4.4365                 2.3282
 Frc consts  --      0.7119                 3.0035                 1.6902
 IR Inten    --      0.5115                64.8548               135.7282

                     28                     29                     30
                      A                      A                      A
 Frequencies --   1169.4311              1169.6701              1198.2011
 Red. masses --      2.1421                 1.2934                 1.5046
 Frc consts  --      1.7260                 1.0426                 1.2727
 IR Inten    --    482.4664                 9.3905                15.7303

                     31                     32                     33
                      A                      A                      A
 Frequencies --   1231.3373              1258.4189              1353.7305
 Red. masses --      2.0575                 2.3024                 2.3712
 Frc consts  --      1.8380                 2.1482                 2.5603
 IR Inten    --    133.4285                 6.0287                17.3822

                     34                     35                     36
                      A                      A                      A
 Frequencies --   1421.0600              1460.1404              1474.0096
 Red. masses --      4.6547                 1.1896                 5.6779
 Frc consts  --      5.5381                 1.4943                 7.2684
 IR Inten    --     26.1365                 4.4083               209.7830

                     37                     38                     39
                      A                      A                      A
 Frequencies --   1476.1106              1502.0009              1512.1215
 Red. masses --      1.0475                 1.0614                 5.9147
 Frc consts  --      1.3447                 1.4109                 7.9681
 IR Inten    --      5.2546                 5.9247               122.5645

                     40                     41                     42
                      A                      A                      A
 Frequencies --   1547.5452              1636.0395              1755.9459
 Red. masses --      9.0456                 6.7530                11.8616
 Frc consts  --     12.7636                10.6496                21.5484
 IR Inten    --    222.6955                21.6113               469.7678

                     43                     44                     45
                      A                      A                      A
 Frequencies --   3021.8363              3080.9566              3114.8238
 Red. masses --      1.0301                 1.1050                 1.1042
 Frc consts  --      5.5418                 6.1799                 6.3122
 IR Inten    --     84.4636                39.2961                31.6914

                     46                     47                     48
                      A                      A                      A
 Frequencies --   3132.2522              3155.8771              3187.6582
 Red. masses --      1.0853                 1.0950                 1.0890
 Frc consts  --      6.2736                 6.4257                 6.5196
 IR Inten    --     18.8923                43.5517                 5.6801

 - Thermochemistry -
 -------------------
 Temperature   298.150 Kelvin.  Pressure   1.00000 Atm.
 Atom     1 has atomic number  6 and mass  12.00000

 Molecular mass:   166.02661 amu.
 Principal axes and moments of inertia in atomic units:
                           1         2         3
     Eigenvalues --  1194.727082583.116383704.98743
           X           -0.58543   0.75090  -0.30565
           Y            0.34738   0.57298   0.74231
           Z            0.73253   0.32839  -0.59629
 This molecule is an asymmetric top.
 Rotational symmetry number  1.
 Warning -- assumption of classical behavior for rotation
           may cause significant error
 Rotational temperatures (Kelvin)      0.07250     0.03353     0.02338
 Rotational constants (GHZ):           1.51059     0.69867     0.48711
 Zero-point vibrational energy     328077.0 (Joules/Mol)
                                   78.41229 (Kcal/Mol)
 Warning -- explicit consideration of  15 degrees of freedom as
           vibrations may cause significant error
 Vibrational temperatures:     49.46   119.90   158.45   200.44   209.56
          (Kelvin)            285.82   413.89   441.81   465.89   554.69
                              603.81   644.25   691.35   784.90   823.50
                              960.82  1060.62  1106.87  1116.70  1177.32
                             1207.53  1283.32  1296.33  1381.19  1390.97
                             1542.27  1597.08  1682.55  1682.89  1723.94
                             1771.62  1810.58  1947.72  2044.59  2100.82
                             2120.77  2123.79  2161.04  2175.61  2226.57
                             2353.90  2526.41  4347.75  4432.81  4481.54
                             4506.61  4540.60  4586.33

 Zero-point correction=                           0.124958 (Hartree/Particle)
 Thermal correction to Energy=                    0.135661
 Thermal correction to Enthalpy=                  0.136606
 Thermal correction to Gibbs Free Energy=         0.086823
 Sum of electronic and zero-point Energies=           -609.462302
 Sum of electronic and thermal Energies=              -609.451599
 Sum of electronic and thermal Enthalpies=            -609.450655
 Sum of electronic and thermal Free Energies=         -609.500437

                     E (Thermal)             CV                S
                      KCal/Mol        Cal/Mol-Kelvin    Cal/Mol-Kelvin
 Total                   85.129             38.771            104.776
 Electronic               0.000              0.000              1.377
 Translational            0.889              2.981             41.229
 Rotational               0.889              2.981             30.815
 Vibrational             83.351             32.810             31.354
 Vibration     1          0.594              1.983              5.560
 Vibration     2          0.600              1.961              3.811
 Vibration     3          0.606              1.941              3.267
 Vibration     4          0.615              1.914              2.813
 Vibration     5          0.617              1.907              2.728
 Vibration     6          0.637              1.842              2.146
 Vibration     7          0.685              1.697              1.488
 Vibration     8          0.697              1.660              1.378
 Vibration     9          0.708              1.628              1.291
 Vibration    10          0.754              1.501              1.017
 Vibration    11          0.782              1.427              0.893
 Vibration    12          0.807              1.366              0.803
 Vibration    13          0.837              1.293              0.709
 Vibration    14          0.901              1.149              0.554
 Vibration    15          0.929              1.091              0.500

 Optimization completed.
    -- Stationary point found.
 Normal termination of Gaussian 16 at Wed Dec 20 02:07:51 2023.
