 Q-Chem 5.4, Q-Chem, Inc., Pleasanton, CA (2021)
 Q-Chem 5.4.0 for Intel X86 EM64T Linux

User input:
--------------------------------------------------------------
$molecule
0 1
C                 -0.0647740000      0.9985960000     -0.4082430000
C                 -1.0033830000      0.1387190000     -1.1676480000
C                 -1.1592920000     -1.1544600000     -0.8660130000
C                 -0.4130920000     -1.7973460000      0.2439000000
C                  0.5047470000     -0.9083800000      1.0362140000
C                  0.6566750000      0.3957150000      0.7504980000
O                  0.1250780000      2.1609110000     -0.7227950000
O                 -0.5422360000     -2.9770240000      0.4918900000
C                  1.5174950000      1.3450870000      1.5763260000
C                  2.9061210000      1.6154200000      1.0651810000
O                  1.0490080000      1.8380760000      2.5721850000
H                  2.8409930000      2.0762040000      0.0747680000
H                  3.4567470000      0.6756490000      0.9575350000
H                  3.4302200000      2.2808510000      1.7504460000
H                 -1.8299090000     -1.8089210000     -1.4110560000
Cl                 1.3573140000     -1.6742570000      2.3387280000
H                 -1.5352840000      0.6217810000     -1.9795180000
$end
$rem
MAX_SCF_CYCLES=200
BASIS  =  6-311++G(d,p)
GUI  =  2
JOB_TYPE  =  SP
METHOD  =  B3LYP
SOLVENT_METHOD = COSMO
$end
$solvent
dielectric 37.219
opticaldielectric 1.43
$end

--------------------------------------------------------------

             Standard Nuclear Orientation (Angstroms)
    I     Atom           X                Y                Z
 ----------------------------------------------------------------
    1      C       0.3451268421    -1.7053257519    -0.0309180478
    2      C      -1.0246374048    -2.2717224902    -0.0274674285
    3      C      -2.1026357377    -1.4816740791     0.0092247747
    4      C      -1.9912044462    -0.0022646959     0.0401223585
    5      C      -0.5996217189     0.5649678006    -0.0067312622
    6      C       0.4893468743    -0.2203878115    -0.0591095421
    7      O       1.3282834288    -2.4253411260    -0.0001952711
    8      O      -2.9746946176     0.7041091960     0.1001257278
    9      C       1.9107587084     0.3163770360    -0.1847361668
   10      C       2.7050725840     0.4294278743     1.0876302445
   11      O       2.3295200520     0.6042778954    -1.2783564864
   12      H       2.8125664677    -0.5641151057     1.5334989174
   13      H       2.1739312214     1.0597481527     1.8077214785
   14      H       3.6877551220     0.8491499554     0.8749457317
   15      H      -3.1152029770    -1.8684754284     0.0237346056
   16      Cl     -0.4899184501     2.2962835466     0.0154446080
   17      H      -1.0885412951    -3.3538828835    -0.0431404144
 ----------------------------------------------------------------

   10    -993.8611789731      3.25e-06  Convergence criterion met
 Total energy in the final basis set =     -993.8611789731
    5    -993.8791111864      6.28e-06  Convergence criterion met
 Total energy in the final basis set =     -993.8791111864

                    Orbital Energies (a.u.)
 --------------------------------------------------------------

 Alpha MOs
 -- Occupied --
******** -19.1608 -19.1585 -19.1519 -10.3092 -10.3074 -10.3023 -10.2853
-10.2387 -10.2225 -10.2215 -10.1833  -9.5000  -7.2645  -7.2551  -7.2542
 -1.0954  -1.0931  -1.0856  -0.9217  -0.8619  -0.8082  -0.7607  -0.7232
 -0.6658  -0.6261  -0.5783  -0.5492  -0.5205  -0.5050  -0.4881  -0.4829
 -0.4716  -0.4647  -0.4615  -0.4464  -0.4398  -0.4290  -0.4095  -0.3917
 -0.3835  -0.3464  -0.3237  -0.3139  -0.3090  -0.2978  -0.2836

          Ground-State Mulliken Net Atomic Charges

     Atom                 Charge (a.u.)
  ----------------------------------------
      1 C                    -0.930160
      2 C                     0.142523
      3 C                     0.094377
      4 C                    -0.625139
      5 C                     0.237867
      6 C                     0.888179
      7 O                    -0.247285
      8 O                    -0.241880
      9 C                    -0.115316
     10 C                    -0.588637
     11 O                    -0.285550
     12 H                     0.221072
     13 H                     0.181013
     14 H                     0.192434
     15 H                     0.275217
     16 Cl                    0.526562
     17 H                     0.274723
  ----------------------------------------
  Sum of atomic charges =     0.000000

                    Cartesian Multipole Moments
 -----------------------------------------------------------------
    Charge (ESU x 10^10)
                 0.0000
    Dipole Moment (Debye)
         X      -1.2713      Y      -2.3714      Z       3.3417
       Tot       4.2904
    Quadrupole Moments (Debye-Ang)
        XX     -84.0700     XY      13.6784     YY     -75.3104
        XZ       9.3279     YZ       2.1655     ZZ     -76.6377

 Total job time:  20.92s(wall), 155.55s(cpu)
        *  Thank you very much for using Q-Chem.  Have a nice day.  *
