 Gaussian 16, Revision A.03,
 Gaussian 16:  ES64L-G16RevA.03 25-Dec-2016

 ----------------------------------------------------------------
 #P UB3LYP/6-311++G(d,p) SCRF=(PCM,Solvent=n,n-DiMethylFormamide)
 ----------------------------------------------------------------

 -------
 Reduced
 -------
 Symbolic Z-matrix:
 Charge = -2 Multiplicity = 1

                         Standard orientation:
 ---------------------------------------------------------------------
 Center     Atomic      Atomic             Coordinates (Angstroms)
 Number     Number       Type             X           Y           Z
 ---------------------------------------------------------------------
      1          6           0        2.525865    1.005808    0.000169
      2          6           0        3.688924    0.251014    0.000698
      3          6           0        3.658149   -1.170560    0.000775
      4          6           0        1.234629    0.362365   -0.000270
      5          6           0        1.216760   -1.096605   -0.000102
      6          6           0        2.444512   -1.811653    0.000368
      7          6           0        0.000014    1.131107   -0.000891
      8          6           0       -1.234623    0.362382   -0.000273
      9          6           0       -1.216749   -1.096592   -0.000272
     10          6           0        0.000000   -1.869324   -0.000386
     11          6           0       -2.525861    1.005792    0.000317
     12          6           0       -3.688923    0.251005    0.000522
     13          6           0       -3.658146   -1.170565    0.000236
     14          6           0       -2.444505   -1.811647   -0.000108
     15          8           0        0.000041    2.423039   -0.001947
     16          8           0       -0.000010   -3.162282   -0.000595
     17          6           0        2.692588    2.513960    0.000109
     18          1           0        4.648522    0.766871    0.001102
     19          1           0        4.589386   -1.735935    0.001187
     20          1           0        2.362631   -2.893926    0.000439
     21          6           0       -2.692644    2.513949    0.001125
     22          1           0       -2.362616   -2.893920   -0.000216
     23          1           0       -4.648514    0.766883    0.001102
     24          1           0       -4.589382   -1.735940    0.000366
     25          1           0        3.764970    2.761983    0.001492
     26          1           0        2.208308    2.973514    0.864021
     27          1           0        2.210709    2.973161   -0.865360
     28          1           0       -2.208605    2.972931    0.865491
     29          1           0       -3.765039    2.761897    0.002480
     30          1           0       -2.210572    2.973802   -0.863881
 ---------------------------------------------------------------------

 SCF Done:  E(UB3LYP) =  -767.821227263     A.U. after   18 cycles

 The electronic state is 1-A.
 Alpha  occ. eigenvalues --  -19.01182 -19.00635 -10.17384 -10.16352 -10.15715
 Alpha  occ. eigenvalues --  -10.15715 -10.14399 -10.14399 -10.13791 -10.13791
 Alpha  occ. eigenvalues --  -10.13754 -10.13754 -10.13663 -10.13663 -10.13590
 Alpha  occ. eigenvalues --  -10.13589 -10.13010 -10.13009  -0.93012  -0.92643
 Alpha  occ. eigenvalues --   -0.82222  -0.81792  -0.74950  -0.74233  -0.73711
 Alpha  occ. eigenvalues --   -0.69887  -0.66416  -0.65229  -0.62457  -0.59023
 Alpha  occ. eigenvalues --   -0.58417  -0.53260  -0.51183  -0.49283  -0.48188
 Alpha  occ. eigenvalues --   -0.43454  -0.43224  -0.43001  -0.42599  -0.39821
 Alpha  occ. eigenvalues --   -0.38888  -0.38878  -0.37886  -0.37082  -0.37068
 Alpha  occ. eigenvalues --   -0.36037  -0.35911  -0.35345  -0.34380  -0.33076
 Alpha  occ. eigenvalues --   -0.32330  -0.31309  -0.31234  -0.30695  -0.29486
 Alpha  occ. eigenvalues --   -0.29358  -0.22008  -0.21960  -0.21286  -0.21046
 Alpha  occ. eigenvalues --   -0.19284  -0.18038  -0.09887
 Alpha virt. eigenvalues --   -0.01780  -0.00004   0.00519   0.00736   0.01126
 Alpha virt. eigenvalues --    0.02223   0.02278   0.02462   0.03390   0.04196
 Alpha virt. eigenvalues --    0.04234   0.04498   0.05742   0.05764   0.06123

  Beta  occ. eigenvalues --  -19.01182 -19.00635 -10.17384 -10.16352 -10.15715
  Beta  occ. eigenvalues --  -10.15715 -10.14399 -10.14399 -10.13791 -10.13791
  Beta  occ. eigenvalues --  -10.13754 -10.13754 -10.13663 -10.13663 -10.13590
  Beta  occ. eigenvalues --  -10.13589 -10.13010 -10.13009  -0.93012  -0.92643
  Beta  occ. eigenvalues --   -0.82222  -0.81792  -0.74950  -0.74233  -0.73711
  Beta  occ. eigenvalues --   -0.69887  -0.66416  -0.65229  -0.62457  -0.59023
  Beta  occ. eigenvalues --   -0.58417  -0.53260  -0.51183  -0.49283  -0.48188
  Beta  occ. eigenvalues --   -0.43454  -0.43224  -0.43001  -0.42599  -0.39821
  Beta  occ. eigenvalues --   -0.38888  -0.38878  -0.37886  -0.37082  -0.37068
  Beta  occ. eigenvalues --   -0.36037  -0.35911  -0.35345  -0.34380  -0.33076
  Beta  occ. eigenvalues --   -0.32330  -0.31309  -0.31234  -0.30695  -0.29486
  Beta  occ. eigenvalues --   -0.29358  -0.22008  -0.21960  -0.21286  -0.21046
  Beta  occ. eigenvalues --   -0.19284  -0.18038  -0.09887
  Beta virt. eigenvalues --   -0.01780  -0.00004   0.00519   0.00736   0.01126
  Beta virt. eigenvalues --    0.02223   0.02278   0.02462   0.03390   0.04196
  Beta virt. eigenvalues --    0.04234   0.04498   0.05742   0.05764   0.06123

 Mulliken charges and spin densities:
               1          2
     1  C    0.519334   0.000000
     2  C   -0.556678  -0.000000
     3  C   -0.459474   0.000000
     4  C    0.111816   0.000000
     5  C    0.446131   0.000000
     6  C   -0.037348   0.000000
     7  C   -0.818048   0.000000
     8  C    0.111789  -0.000000
     9  C    0.446166  -0.000000
    10  C   -0.671412  -0.000000
    11  C    0.519311  -0.000000
    12  C   -0.556648  -0.000000
    13  C   -0.459489  -0.000000
    14  C   -0.037341  -0.000000
    15  O   -0.566405  -0.000000
    16  O   -0.666051   0.000000
    17  C   -0.476132   0.000000
    18  H    0.093487  -0.000000
    19  H    0.164574   0.000000
    20  H    0.136872   0.000000
    21  C   -0.476181  -0.000000
    22  H    0.136874   0.000000
    23  H    0.093482   0.000000
    24  H    0.164573  -0.000000
    25  H    0.123564   0.000000
    26  H    0.147411  -0.000000
    27  H    0.147422  -0.000000
    28  H    0.147406  -0.000000
    29  H    0.123566  -0.000000
    30  H    0.147430  -0.000000
 Sum of Mulliken charges =  -2.00000   0.00000

 Dipole moment (field-independent basis, Debye):
    X=             -0.0001    Y=              5.4833    Z=              0.0079  Tot=              5.4833
 Quadrupole moment (field-independent basis, Debye-Ang):
   XX=           -138.1391   YY=           -170.6471   ZZ=           -119.1887
   XY=             -0.0005   XZ=             -0.0019   YZ=              0.0095

 Normal termination of Gaussian 16 at Sun Jan 14 01:23:35 2024.
