 Q-Chem 5.4, Q-Chem, Inc., Pleasanton, CA (2021)
 Q-Chem 5.4.0 for Intel X86 EM64T Linux

User input:
--------------------------------------------------------------
$molecule
0 1
C                 -1.3010380000      2.0391240000      0.5582730000
C                 -2.6162510000      1.3963040000      0.2175340000
C                 -2.6964830000      0.1630750000     -0.2984740000
C                 -1.4775300000     -0.6383320000     -0.5618950000
C                 -0.1662460000     -0.0349590000     -0.2374800000
C                 -0.0834270000      1.1982830000      0.2785650000
O                 -1.5555160000     -1.7604670000     -1.0318090000
H                 -3.6398960000     -0.3067520000     -0.5465830000
O                 -1.2195490000      3.1490120000      1.0230870000
Cl                 1.4374260000      1.9291220000      0.6676510000
Br                -4.1600940000      2.4379230000      0.5626360000
H                  0.7089130000     -0.6399610000     -0.4388340000
$end

$rem
BASIS  =  6-311++G(d,p)
GUI  =  2
JOB_TYPE  =  SP
METHOD  =  B3LYP
SCF_CONVERGENCE  = 8
SOLVENT_METHOD = sm12
$end

$smx
solvent dimethylformamide
charges CM5
$end

--------------------------------------------------------------

             Standard Nuclear Orientation (Angstroms)
    I     Atom           X                Y                Z
 ----------------------------------------------------------------
    1      C      -1.3010380000     2.0391240000     0.5582730000
    2      C      -2.6162510000     1.3963040000     0.2175340000
    3      C      -2.6964830000     0.1630750000    -0.2984740000
    4      C      -1.4775300000    -0.6383320000    -0.5618950000
    5      C      -0.1662460000    -0.0349590000    -0.2374800000
    6      C      -0.0834270000     1.1982830000     0.2785650000
    7      O      -1.5555160000    -1.7604670000    -1.0318090000
    8      H      -3.6398960000    -0.3067520000    -0.5465830000
    9      O      -1.2195490000     3.1490120000     1.0230870000
   10      Cl      1.4374260000     1.9291220000     0.6676510000
   11      Br     -4.1600940000     2.4379230000     0.5626360000
   12      H       0.7089130000    -0.6399610000    -0.4388340000
 ----------------------------------------------------------------

   16   -3414.7171661907      2.24e-09  Convergence criterion met
 Total energy in the final basis set =    -3414.7314938112

                    Orbital Energies (a.u.)
 --------------------------------------------------------------

 Alpha MOs
 -- Occupied --
********-101.5835 -62.5089 -56.3295 -56.3256 -56.3251 -19.1647 -19.1535
-10.3178 -10.3029 -10.2862 -10.2792 -10.2305 -10.2296  -9.4981  -8.7177
 -7.2629  -7.2532  -7.2520  -6.5498  -6.5363  -6.5351  -2.6607  -2.6567
 -2.6559  -2.6454  -2.6453  -1.1021  -1.0843  -0.9214  -0.8848  -0.8250
 -0.7755  -0.7250  -0.6424  -0.6235  -0.5557  -0.5270  -0.4954  -0.4799
 -0.4750  -0.4661  -0.4501  -0.4401  -0.4255  -0.3930  -0.3634  -0.3446
 -0.3164  -0.3134  -0.3074  -0.2961  -0.2883

          Ground-State Mulliken Net Atomic Charges

     Atom                 Charge (a.u.)
  ----------------------------------------
      1 C                    -2.312427
      2 C                     0.982977
      3 C                     0.313498
      4 C                    -0.652882
      5 C                     0.181411
      6 C                     1.131054
      7 O                    -0.305210
      8 H                     0.337070
      9 O                    -0.159851
     10 Cl                    0.280962
     11 Br                   -0.115919
     12 H                     0.319319
  ----------------------------------------
  Sum of atomic charges =     0.000000

                    Cartesian Multipole Moments
 -----------------------------------------------------------------
    Charge (ESU x 10^10)
                 0.0000
    Dipole Moment (Debye)
         X      -0.1793      Y      -0.7014      Z      -0.2999
       Tot       0.7836
    Quadrupole Moments (Debye-Ang)
        XX     -69.9708     XY      -1.3229     YY     -90.3683
        XZ      -0.2272     YZ      -6.2983     ZZ     -77.5578

 Total job time:  115.57s(wall), 682.35s(cpu)
        *  Thank you very much for using Q-Chem.  Have a nice day.  *
