 Q-Chem 5.4, Q-Chem, Inc., Pleasanton, CA (2021)
 Q-Chem 5.4.0 for Intel X86 EM64T Linux

User input:
--------------------------------------------------------------
$molecule
0 1
O                 -1.2806830000      2.4648820000      0.3307700000
C                 -1.2463240000      1.2483330000      0.2155320000
C                 -2.4739570000      0.4507970000      0.1937730000
C                 -2.4353800000     -0.8914040000      0.0666220000
O                 -3.5281840000     -1.6602370000      0.0415890000
C                 -1.1454820000     -1.6452190000     -0.0592430000
O                 -1.2099240000     -2.8624210000     -0.1700570000
C                  0.1110940000     -0.8742880000     -0.0410660000
C                  1.3384310000     -1.5336370000     -0.1553320000
C                  2.5203910000     -0.8006000000     -0.1374940000
C                  2.4782970000      0.5888670000     -0.0058180000
C                  1.2569050000      1.2498880000      0.1083480000
C                  0.0668230000      0.5254550000      0.0916770000
H                 -3.4130440000      0.9828830000      0.2838150000
H                  1.3467280000     -2.6120170000     -0.2564760000
H                  3.4734190000     -1.3090160000     -0.2258760000
H                  3.4008530000      1.1580450000      0.0078140000
H                  1.2054680000      2.3268270000      0.2111800000
H                 -3.2159580000     -2.5800110000     -0.0579300000
$end
$rem
MAX_SCF_CYCLES=200
BASIS  =  6-311++G(d,p)
GUI  =  2
JOB_TYPE  =  SP
METHOD  =  B3LYP
SOLVENT_METHOD = COSMO
$end
$solvent
dielectric 37.219
opticaldielectric 1.43
$end

--------------------------------------------------------------

             Standard Nuclear Orientation (Angstroms)
    I     Atom           X                Y                Z
 ----------------------------------------------------------------
    1      O       0.0376186206    -2.9122003002    -0.0000183326
    2      C      -0.2839921318    -1.7327859004     0.0000475892
    3      C      -1.6908653498    -1.3274124386    -0.0000673617
    4      C      -2.0450538750    -0.0259864624    -0.0000126702
    5      O      -3.3145695917     0.3914836050     0.0000441853
    6      C      -1.0306509840     1.0780527902     0.0000672741
    7      O      -1.4469787654     2.2290021240    -0.0001122064
    8      C       0.3961578684     0.7067513605     0.0000369195
    9      C       1.3782330654     1.7015791051     0.0000307645
   10      C       2.7226147039     1.3447473683    -0.0000012752
   11      C       3.0872116528    -0.0031391561    -0.0000128759
   12      C       2.1113112766    -0.9978247905    -0.0000054901
   13      C       0.7616661538    -0.6516538751     0.0000121641
   14      H      -2.4342533065    -2.1151191173    -0.0000961852
   15      H       1.0719480701     2.7405169642     0.0000341919
   16      H       3.4862365172     2.1138002284    -0.0000180661
   17      H       4.1356746126    -0.2787918761    -0.0000253383
   18      H       2.3759045268    -2.0480667656     0.0000188665
   19      H      -3.2838668110     1.3674091299     0.0002071306
 ----------------------------------------------------------------

    9    -610.5188478095      7.72e-06  Convergence criterion met
 Total energy in the final basis set =     -610.5188478095
    5    -610.5342840036      2.97e-06  Convergence criterion met
 Total energy in the final basis set =     -610.5342840036

                    Orbital Energies (a.u.)
 --------------------------------------------------------------

 Alpha MOs
 -- Occupied --
-19.1850 -19.1549 -19.1321 -10.2989 -10.2849 -10.2772 -10.2131 -10.2114
-10.2021 -10.1998 -10.1981 -10.1977 -10.1977  -1.1150  -1.0739  -1.0658
 -0.8941  -0.8373  -0.7822  -0.7759  -0.7036  -0.6611  -0.6432  -0.6067
 -0.5774  -0.5471  -0.5288  -0.4965  -0.4848  -0.4741  -0.4722  -0.4536
 -0.4507  -0.4390  -0.4282  -0.4127  -0.4106  -0.3834  -0.3797  -0.3712
 -0.3076  -0.2934  -0.2842  -0.2816  -0.2693

          Ground-State Mulliken Net Atomic Charges

     Atom                 Charge (a.u.)
  ----------------------------------------
      1 O                    -0.336953
      2 C                    -0.406409
      3 C                     0.361015
      4 C                    -0.214735
      5 O                    -0.242922
      6 C                    -0.514871
      7 O                    -0.315909
      8 C                     0.250867
      9 C                     0.275975
     10 C                    -0.393101
     11 C                    -0.360584
     12 C                     0.293127
     13 C                     0.155373
     14 H                     0.257717
     15 H                     0.204032
     16 H                     0.232661
     17 H                     0.232712
     18 H                     0.196693
     19 H                     0.325312
  ----------------------------------------
  Sum of atomic charges =     0.000000

                    Cartesian Multipole Moments
 -----------------------------------------------------------------
    Charge (ESU x 10^10)
                 0.0000
    Dipole Moment (Debye)
         X       2.8677      Y       3.2733      Z       0.0013
       Tot       4.3517
    Quadrupole Moments (Debye-Ang)
        XX     -62.1022     XY       3.2554     YY     -86.6798
        XZ      -0.0031     YZ       0.0024     ZZ     -75.5233

 Total job time:  24.32s(wall), 169.39s(cpu)
        *  Thank you very much for using Q-Chem.  Have a nice day.  *
