 Q-Chem 5.4, Q-Chem, Inc., Pleasanton, CA (2021)
 Q-Chem 5.4.0 for Intel X86 EM64T Linux

User input:
--------------------------------------------------------------
$molecule
0 1
C                  4.9992020000     -2.4917050000      0.2019770000
C                  5.6902840000     -1.6503070000     -0.6615490000
C                  4.9904480000     -0.8018400000     -1.5244350000
C                  3.6009030000     -2.4938430000      0.2120170000
C                  2.8966880000     -1.6400500000     -0.6562850000
C                  3.6009660000     -0.7967190000     -1.5218110000
C                  2.8865350000     -3.4084100000      1.1504980000
C                  1.3928380000     -3.3825630000      1.1318280000
C                  0.6888360000     -2.5291820000      0.2638050000
C                  1.4063260000     -1.6134210000     -0.6751030000
C                  0.6903390000     -4.2242880000      1.9953080000
C                 -0.7090530000     -2.5310480000      0.2728540000
C                 -1.4032280000     -3.3699510000      1.1332360000
O                  3.4967110000     -4.1480040000      1.9031490000
O                  0.7912570000     -0.8746440000     -1.4259270000
H                  5.5211690000     -3.1568440000      0.8786540000
H                 -2.4850100000     -3.3722830000      1.1410640000
H                  3.0387470000     -0.1477010000     -2.1816820000
H                  1.2347580000     -4.8800820000      2.6625710000
H                 -1.2314810000     -1.8662080000     -0.4035200000
C                 -0.7036180000     -4.2220820000      2.0001770000
H                  5.5319130000     -0.1464680000     -2.1970720000
C                 -1.4029380000     -5.1450990000      2.9469710000
O                 -0.8392650000     -5.8931270000      3.7098690000
O                 -2.7448660000     -5.0498510000      2.8548400000
C                 -3.4977190000     -5.9069890000      3.7346640000
H                 -4.5426020000     -5.6947180000      3.5204160000
H                 -3.2634300000     -5.6812870000      4.7756020000
H                 -3.2670760000     -6.9536480000      3.5329830000
H                  6.7743250000     -1.6525790000     -0.6653400000
$end
$rem
MAX_SCF_CYCLES=200
BASIS  =  6-311++G(d,p)
GUI  =  2
JOB_TYPE  =  SP
METHOD  =  B3LYP
SOLVENT_METHOD = PCM
$end
$pcm
theory = CPCM
$end
$solvent
dielectric 37.219
opticaldielectric 1.43
$end

--------------------------------------------------------------

             Standard Nuclear Orientation (Angstroms)
    I     Atom           X                Y                Z
 ----------------------------------------------------------------
    1      C       4.9992020000    -2.4917050000     0.2019770000
    2      C       5.6902840000    -1.6503070000    -0.6615490000
    3      C       4.9904480000    -0.8018400000    -1.5244350000
    4      C       3.6009030000    -2.4938430000     0.2120170000
    5      C       2.8966880000    -1.6400500000    -0.6562850000
    6      C       3.6009660000    -0.7967190000    -1.5218110000
    7      C       2.8865350000    -3.4084100000     1.1504980000
    8      C       1.3928380000    -3.3825630000     1.1318280000
    9      C       0.6888360000    -2.5291820000     0.2638050000
   10      C       1.4063260000    -1.6134210000    -0.6751030000
   11      C       0.6903390000    -4.2242880000     1.9953080000
   12      C      -0.7090530000    -2.5310480000     0.2728540000
   13      C      -1.4032280000    -3.3699510000     1.1332360000
   14      O       3.4967110000    -4.1480040000     1.9031490000
   15      O       0.7912570000    -0.8746440000    -1.4259270000
   16      H       5.5211690000    -3.1568440000     0.8786540000
   17      H      -2.4850100000    -3.3722830000     1.1410640000
   18      H       3.0387470000    -0.1477010000    -2.1816820000
   19      H       1.2347580000    -4.8800820000     2.6625710000
   20      H      -1.2314810000    -1.8662080000    -0.4035200000
   21      C      -0.7036180000    -4.2220820000     2.0001770000
   22      H       5.5319130000    -0.1464680000    -2.1970720000
   23      C      -1.4029380000    -5.1450990000     2.9469710000
   24      O      -0.8392650000    -5.8931270000     3.7098690000
   25      O      -2.7448660000    -5.0498510000     2.8548400000
   26      C      -3.4977190000    -5.9069890000     3.7346640000
   27      H      -4.5426020000    -5.6947180000     3.5204160000
   28      H      -3.2634300000    -5.6812870000     4.7756020000
   29      H      -3.2670760000    -6.9536480000     3.5329830000
   30      H       6.7743250000    -1.6525790000    -0.6653400000
 ----------------------------------------------------------------

    8    -916.9154719116      9.45e-06  Convergence criterion met
 Total energy in the final basis set =     -916.9154719116

                    Orbital Energies (a.u.)
 --------------------------------------------------------------

 Alpha MOs
 -- Occupied --
-19.1833 -19.1367 -19.1356 -19.1316 -10.3229 -10.2884 -10.2877 -10.2251
-10.2186 -10.2180 -10.2156 -10.2110 -10.2105 -10.2078 -10.2078 -10.2033
-10.1988 -10.1985 -10.1981 -10.1978  -1.1261  -1.0721  -1.0703  -1.0411
 -0.9016  -0.8872  -0.8237  -0.7909  -0.7812  -0.7793  -0.7403  -0.6967
 -0.6739  -0.6538  -0.6231  -0.5989  -0.5897  -0.5647  -0.5614  -0.5265
 -0.5064  -0.5037  -0.4973  -0.4900  -0.4818  -0.4655  -0.4599  -0.4598
 -0.4576  -0.4508  -0.4455  -0.4348  -0.4248  -0.4212  -0.4102  -0.3925
 -0.3867  -0.3810  -0.3718  -0.3713  -0.3669  -0.3251  -0.3062  -0.2952
 -0.2932  -0.2864  -0.2805  -0.2804  -0.2797

          Ground-State Mulliken Net Atomic Charges

     Atom                 Charge (a.u.)
  ----------------------------------------
      1 C                     0.113469
      2 C                    -0.419549
      3 C                    -0.447434
      4 C                     0.416473
      5 C                     0.306165
      6 C                     0.107709
      7 C                    -0.703266
      8 C                     0.396388
      9 C                     0.300234
     10 C                    -0.766523
     11 C                     0.026874
     12 C                    -0.019447
     13 C                    -0.635761
     14 O                    -0.274358
     15 O                    -0.269645
     16 H                     0.195939
     17 H                     0.240557
     18 H                     0.198451
     19 H                     0.189774
     20 H                     0.208760
     21 C                     0.326310
     22 H                     0.224907
     23 C                     0.196847
     24 O                    -0.323997
     25 O                    -0.126643
     26 C                    -0.263140
     27 H                     0.178575
     28 H                     0.197403
     29 H                     0.197373
     30 H                     0.227554
  ----------------------------------------
  Sum of atomic charges =    -0.000001

                    Cartesian Multipole Moments
 -----------------------------------------------------------------
    Charge (ESU x 10^10)
                -0.0000
    Dipole Moment (Debye)
         X      -1.1393      Y       1.6230      Z      -1.6593
       Tot       2.5856
    Quadrupole Moments (Debye-Ang)
        XX     -80.5042     XY      24.7402     YY    -129.3273
        XZ     -22.8265     YZ      10.4821     ZZ    -122.0504

 Total job time:  103.96s(wall), 371.70s(cpu)
        *  Thank you very much for using Q-Chem.  Have a nice day.  *
