 Gaussian 16, Revision A.03,
 Gaussian 16:  ES64L-G16RevA.03 25-Dec-2016

 ----------------------------------------------------------------
 #P UB3LYP/6-311++G(d,p) SCRF=(PCM,Solvent=n,n-DiMethylFormamide)
 ----------------------------------------------------------------

 ------------------
 Quinone PCM in DMF
 ------------------
 Symbolic Z-matrix:
 Charge =  0 Multiplicity = 1

                         Standard orientation:
 ---------------------------------------------------------------------
 Center     Atomic      Atomic             Coordinates (Angstroms)
 Number     Number       Type             X           Y           Z
 ---------------------------------------------------------------------
      1          6           0        3.560619   -1.688654   -0.000444
      2          6           0        4.865037   -1.209367   -0.000715
      3          6           0        5.106882    0.167495   -0.000588
      4          6           0        2.483934   -0.796413   -0.000077
      5          6           0        2.727308    0.589083    0.000051
      6          6           0        4.043622    1.062018   -0.000189
      7          6           0        1.094344   -1.340967    0.000256
      8          6           0       -0.029643   -0.356690    0.000188
      9          6           0        0.213580    1.028295    0.000218
     10          6           0        1.606294    1.571717    0.000451
     11          6           0       -1.342932   -0.828788    0.000151
     12          6           0       -0.862212    1.920960    0.000088
     13          6           0       -2.166432    1.446718   -0.000069
     14          8           0        0.883414   -2.541511    0.000487
     15          8           0        1.812266    2.773971    0.000896
     16          1           0        3.350503   -2.751011   -0.000478
     17          1           0       -2.999731    2.136596   -0.000227
     18          1           0        4.207934    2.132413   -0.000067
     19          1           0       -1.527323   -1.895417    0.000292
     20          1           0       -0.652722    2.983287    0.000118
     21          6           0       -2.411961    0.065819    0.000021
     22          1           0        6.125350    0.538790   -0.000808
     23          6           0       -3.797642   -0.497488    0.000186
     24          8           0       -4.052696   -1.678264    0.001388
     25          8           0       -4.740415    0.466623   -0.001120
     26          6           0       -6.106714    0.009690   -0.000922
     27          1           0       -6.713225    0.912398   -0.002940
     28          1           0       -6.306427   -0.587674    0.889390
     29          1           0       -6.305566   -0.591123   -0.889094
     30          1           0        5.696144   -1.905375   -0.001015
 ---------------------------------------------------------------------

 SCF Done:  E(UB3LYP) =  -916.910264236     A.U. after   15 cycles

 The electronic state is 1-A.
 Alpha  occ. eigenvalues --  -19.18536 -19.13776 -19.13659 -19.13232 -10.32405
 Alpha  occ. eigenvalues --  -10.28940 -10.28868 -10.22983 -10.22069 -10.21987
 Alpha  occ. eigenvalues --  -10.21749 -10.21319 -10.21269 -10.21056 -10.21010
 Alpha  occ. eigenvalues --  -10.20591 -10.20201 -10.20158 -10.20106 -10.20090
 Alpha  occ. eigenvalues --   -1.12779  -1.07295  -1.07111  -1.04235  -0.90368
 Alpha  occ. eigenvalues --   -0.88958  -0.82597  -0.79322  -0.78368  -0.78189
 Alpha  occ. eigenvalues --   -0.74346  -0.69882  -0.67659  -0.65626  -0.62587
 Alpha  occ. eigenvalues --   -0.60144  -0.59211  -0.56720  -0.56374  -0.52840
 Alpha  occ. eigenvalues --   -0.50819  -0.50545  -0.49980  -0.49273  -0.48356
 Alpha  occ. eigenvalues --   -0.46642  -0.46203  -0.46150  -0.46001  -0.45395
 Alpha  occ. eigenvalues --   -0.44744  -0.43776  -0.42589  -0.42374  -0.41282
 Alpha  occ. eigenvalues --   -0.39475  -0.38975  -0.38386  -0.37441  -0.37345
 Alpha  occ. eigenvalues --   -0.36965  -0.32713  -0.30681  -0.29689  -0.29398
 Alpha  occ. eigenvalues --   -0.28855  -0.28280  -0.28197  -0.28143
 Alpha virt. eigenvalues --   -0.12633  -0.08688  -0.05945  -0.03461  -0.00882
 Alpha virt. eigenvalues --   -0.00220  -0.00186   0.00870   0.01172   0.01953
 Alpha virt. eigenvalues --    0.02651   0.02899   0.03427   0.03540   0.03825

  Beta  occ. eigenvalues --  -19.18536 -19.13776 -19.13659 -19.13232 -10.32405
  Beta  occ. eigenvalues --  -10.28940 -10.28868 -10.22983 -10.22069 -10.21987
  Beta  occ. eigenvalues --  -10.21749 -10.21319 -10.21269 -10.21056 -10.21010
  Beta  occ. eigenvalues --  -10.20591 -10.20201 -10.20158 -10.20106 -10.20090
  Beta  occ. eigenvalues --   -1.12779  -1.07295  -1.07111  -1.04235  -0.90368
  Beta  occ. eigenvalues --   -0.88958  -0.82597  -0.79322  -0.78368  -0.78189
  Beta  occ. eigenvalues --   -0.74346  -0.69882  -0.67659  -0.65626  -0.62587
  Beta  occ. eigenvalues --   -0.60144  -0.59211  -0.56720  -0.56374  -0.52840
  Beta  occ. eigenvalues --   -0.50819  -0.50545  -0.49980  -0.49273  -0.48356
  Beta  occ. eigenvalues --   -0.46642  -0.46203  -0.46150  -0.46001  -0.45395
  Beta  occ. eigenvalues --   -0.44744  -0.43776  -0.42589  -0.42374  -0.41282
  Beta  occ. eigenvalues --   -0.39475  -0.38975  -0.38386  -0.37441  -0.37345
  Beta  occ. eigenvalues --   -0.36965  -0.32713  -0.30681  -0.29689  -0.29398
  Beta  occ. eigenvalues --   -0.28855  -0.28280  -0.28197  -0.28143
  Beta virt. eigenvalues --   -0.12633  -0.08688  -0.05945  -0.03461  -0.00882
  Beta virt. eigenvalues --   -0.00220  -0.00186   0.00870   0.01172   0.01953
  Beta virt. eigenvalues --    0.02651   0.02899   0.03427   0.03540   0.03825

 Mulliken charges and spin densities:
               1          2
     1  C    0.117713  -0.000000
     2  C   -0.407156  -0.000000
     3  C   -0.423755  -0.000000
     4  C    0.428488   0.000000
     5  C    0.330793  -0.000000
     6  C    0.118643   0.000000
     7  C   -0.727070   0.000000
     8  C    0.403987  -0.000000
     9  C    0.307055  -0.000000
    10  C   -0.805885  -0.000000
    11  C    0.046155   0.000000
    12  C   -0.010289   0.000000
    13  C   -0.613511  -0.000000
    14  O   -0.259328  -0.000000
    15  O   -0.254744   0.000000
    16  H    0.184672  -0.000000
    17  H    0.226660  -0.000000
    18  H    0.187449  -0.000000
    19  H    0.182852  -0.000000
    20  H    0.197374  -0.000000
    21  C    0.299636   0.000000
    22  H    0.210311   0.000000
    23  C    0.166221   0.000000
    24  O   -0.308950   0.000000
    25  O   -0.120348  -0.000000
    26  C   -0.238682   0.000000
    27  H    0.169657   0.000000
    28  H    0.190124  -0.000000
    29  H    0.190067  -0.000000
    30  H    0.211862  -0.000000
 Sum of Mulliken charges =  -0.00000   0.00000

 Dipole moment (field-independent basis, Debye):
    X=              0.5625    Y=              2.4092    Z=             -0.0048  Tot=              2.4740
 Quadrupole moment (field-independent basis, Debye-Ang):
   XX=            -70.9901   YY=           -130.9977   ZZ=           -115.2617
   XY=            -16.6914   XZ=              0.0042   YZ=              0.0062

 Normal termination of Gaussian 16 at Tue Jan 16 05:23:03 2024.
