 Q-Chem 5.4, Q-Chem, Inc., Pleasanton, CA (2021)
 Q-Chem 5.4.0 for Intel X86 EM64T Linux

User input:
--------------------------------------------------------------
$molecule
0 1
C                  4.7184490000      0.1112400000      1.0138670000
C                  3.9615600000     -0.6112410000     -0.1157340000
C                  4.6135960000     -0.3414800000     -1.4842090000
C                  2.4816980000     -0.2631250000     -0.1173710000
C                  2.0302730000      1.0469540000     -0.3384560000
C                  0.6779860000      1.3630420000     -0.3441760000
C                 -0.3045310000      0.3849640000     -0.1232430000
C                  0.1486080000     -0.9249330000      0.1241890000
C                  1.5139790000     -1.2346900000      0.1131170000
C                 -0.8195660000     -1.9989260000      0.4283840000
O                 -0.5312040000     -3.1755540000      0.4599260000
C                 -2.2685650000     -1.5648710000      0.7698390000
O                 -2.9553420000     -2.3342140000      1.4090570000
C                 -2.7258440000     -0.2414460000      0.2795290000
C                 -4.1086460000      0.0722660000      0.2476640000
C                 -5.1887360000     -0.8713940000      0.7141050000
C                 -4.4937850000      1.3173490000     -0.2558810000
C                 -3.5524530000      2.2341490000     -0.7069470000
C                 -2.1984460000      1.9286060000     -0.6637970000
C                 -1.7568560000      0.6961420000     -0.1705320000
H                  4.2775310000     -0.1075990000      1.9895720000
H                  4.7026980000      1.1964390000      0.8742980000
H                  5.7653550000     -0.2047050000      1.0351620000
H                  4.0316030000     -1.6873350000      0.0763390000
H                  4.0980570000     -0.8815790000     -2.2822060000
H                  5.6597610000     -0.6605160000     -1.4782950000
H                  4.5937440000      0.7239910000     -1.7328050000
H                  2.7476030000      1.8430280000     -0.5074370000
H                  0.3966800000      2.3939850000     -0.5121390000
H                  1.7972080000     -2.2643620000      0.3020150000
H                 -5.1335270000     -1.0378410000      1.7917930000
H                 -6.1699520000     -0.4591240000      0.4707110000
H                 -5.0952920000     -1.8578390000      0.2557590000
H                 -5.5487990000      1.5638320000     -0.2982240000
H                 -3.8747120000      3.1917650000     -1.1006620000
H                 -1.4899340000      2.6554230000     -1.0358670000
$end
$rem
MAX_SCF_CYCLES=200
BASIS  =  6-311++G(d,p)
GUI  =  2
JOB_TYPE  =  SP
METHOD  =  B3LYP
SOLVENT_METHOD = COSMO
$end
$solvent
dielectric 37.219
opticaldielectric 1.43
$end

--------------------------------------------------------------

             Standard Nuclear Orientation (Angstroms)
    I     Atom           X                Y                Z
 ----------------------------------------------------------------
    1      C      -5.0770786475    -0.0646932806     1.3375435883
    2      C      -4.4067398644     0.2736097690    -0.0067239205
    3      C      -5.1310040399    -0.4137955943    -1.1787141247
    4      C      -2.9210896545    -0.0486838377     0.0054930031
    5      C      -2.4499733143    -1.3595603444     0.1746741854
    6      C      -1.0926973554    -1.6534715492     0.1812047004
    7      C      -0.1243151026    -0.6493928121     0.0235680230
    8      C      -0.5955874530     0.6695251719    -0.1204646876
    9      C      -1.9667456766     0.9521009800    -0.1401114289
   10      C       0.3609170980     1.7906291438    -0.2280815278
   11      O       0.0448036587     2.9165407307    -0.5458808092
   12      C       1.8381551637     1.4936093669     0.1381701770
   13      O       2.5413692235     2.4281793777     0.4610011420
   14      C       2.2996196275     0.0860456361     0.0558500520
   15      C       3.6857487889    -0.2135858732     0.0349007118
   16      C       4.7668276047     0.8350243464     0.1145311810
   17      C       4.0724326081    -1.5512910133    -0.0797373076
   18      C       3.1300406909    -2.5687471036    -0.1620129976
   19      C       1.7735206529    -2.2731796126    -0.1296610536
   20      C       1.3302214200    -0.9510123663    -0.0172370236
   21      H      -4.5852937320     0.4504511289     2.1664424193
   22      H      -5.0417153436    -1.1391144080     1.5418794563
   23      H      -6.1286833426     0.2357869194     1.3263138187
   24      H      -4.4929611450     1.3554435878    -0.1549731545
   25      H      -4.6773307524    -0.1466966506    -2.1363807185
   26      H      -6.1828533433    -0.1151759245    -1.2055373903
   27      H      -5.0984677544    -1.5034851002    -1.0841588720
   28      H      -3.1553309571    -2.1729158667     0.3079937670
   29      H      -0.7953893259    -2.6836103273     0.3247670131
   30      H      -2.2647086784     1.9875559567    -0.2633047298
   31      H       4.7708519437     1.3292380606     1.0881330875
   32      H       5.7422858397     0.3733058176    -0.0506634395
   33      H       4.6212956617     1.6285089669    -0.6210564654
   34      H       5.1291075749    -1.7923034119    -0.1105979213
   35      H       3.4530559643    -3.5994503831    -0.2579434440
   36      H       1.0632390537    -3.0840853933    -0.2110253897
 ----------------------------------------------------------------

    9    -846.2354820822      2.81e-06  Convergence criterion met
 Total energy in the final basis set =     -846.2354820822
    5    -846.2530734122      3.18e-06  Convergence criterion met
 Total energy in the final basis set =     -846.2530734122

                    Orbital Energies (a.u.)
 --------------------------------------------------------------

 Alpha MOs
 -- Occupied --
-19.1413 -19.1391 -10.2822 -10.2820 -10.2150 -10.2125 -10.2100 -10.2039
-10.2005 -10.1952 -10.1934 -10.1924 -10.1915 -10.1914 -10.1888 -10.1848
-10.1839 -10.1664 -10.1591 -10.1591  -1.0873  -1.0600  -0.9000  -0.8752
 -0.8264  -0.7965  -0.7891  -0.7751  -0.7406  -0.7176  -0.6859  -0.6843
 -0.6511  -0.6331  -0.6154  -0.5948  -0.5828  -0.5482  -0.5256  -0.5082
 -0.4961  -0.4840  -0.4760  -0.4687  -0.4618  -0.4557  -0.4498  -0.4413
 -0.4326  -0.4265  -0.4246  -0.4186  -0.4066  -0.4003  -0.3920  -0.3894
 -0.3864  -0.3769  -0.3669  -0.3638  -0.3600  -0.3454  -0.3395  -0.3324
 -0.3140  -0.2981  -0.2775  -0.2698  -0.2614  -0.2415

          Ground-State Mulliken Net Atomic Charges

     Atom                 Charge (a.u.)
  ----------------------------------------
      1 C                    -0.714170
      2 C                     0.160566
      3 C                    -0.718981
      4 C                     0.786224
      5 C                    -0.690101
      6 C                    -0.098664
      7 C                     0.391385
      8 C                     0.991635
      9 C                    -0.591574
     10 C                    -0.572591
     11 O                    -0.306220
     12 C                    -0.635946
     13 O                    -0.273699
     14 C                     0.629575
     15 C                     0.697836
     16 C                    -0.441796
     17 C                    -0.757927
     18 C                    -0.766316
     19 C                    -0.292545
     20 C                     0.349704
     21 H                     0.149984
     22 H                     0.165296
     23 H                     0.167765
     24 H                     0.208871
     25 H                     0.150683
     26 H                     0.168286
     27 H                     0.166981
     28 H                     0.218602
     29 H                     0.155779
     30 H                     0.201313
     31 H                     0.201825
     32 H                     0.166119
     33 H                     0.175705
     34 H                     0.165106
     35 H                     0.239206
     36 H                     0.152082
  ----------------------------------------
  Sum of atomic charges =     0.000000

                    Cartesian Multipole Moments
 -----------------------------------------------------------------
    Charge (ESU x 10^10)
                -0.0000
    Dipole Moment (Debye)
         X      -1.9636      Y      -8.6274      Z       0.1239
       Tot       8.8489
    Quadrupole Moments (Debye-Ang)
        XX     -93.4259     XY     -11.5931     YY    -127.2400
        XZ      -2.7977     YZ       0.6930     ZZ    -121.7311

 Total job time:  105.35s(wall), 751.92s(cpu)
        *  Thank you very much for using Q-Chem.  Have a nice day.  *
