 Q-Chem 5.4, Q-Chem, Inc., Pleasanton, CA (2021)
 Q-Chem 5.4.0 for Intel X86 EM64T Linux

User input:
--------------------------------------------------------------
$molecule
-2 1
C                 -4.5563050000      0.8893680000      0.3393740000
C                 -3.1860490000      0.2789010000      0.1861660000
C                 -3.0540000000     -1.1185690000     -0.0826970000
C                 -1.8249330000     -1.7118100000     -0.2479670000
O                 -1.7407120000     -3.0528840000     -0.5012750000
C                 -0.6197610000     -0.9286540000     -0.1500600000
C                  0.6560770000     -1.5374600000     -0.3148510000
O                  0.7593340000     -2.8482680000     -0.5658320000
C                  1.8201580000     -0.7238400000     -0.2074020000
C                  3.1327040000     -1.2973330000     -0.3693010000
O                  3.2601280000     -2.6350460000     -0.6284580000
C                  4.2537270000     -0.5067980000     -0.2645250000
C                  4.1402900000      0.8875690000      0.0046120000
C                  2.9081310000      1.4777680000      0.1664440000
O                  2.8210710000      2.8190710000      0.4234120000
C                  1.7045790000      0.6899290000      0.0656710000
C                  0.4261690000      1.2956400000      0.2337450000
O                  0.3229050000      2.6065000000      0.4934030000
C                 -0.7373730000      0.4831930000      0.1226230000
C                 -2.0517400000      1.0586140000      0.2798740000
O                 -2.1672960000      2.4034250000      0.5188740000
H                 -5.0298360000      1.1033610000     -0.6328290000
H                 -4.5011940000      1.8345070000      0.8842430000
H                 -5.2320670000      0.2118210000      0.8787600000
H                 -3.9430940000     -1.7403940000     -0.1554700000
H                 -0.7453970000     -3.2281200000     -0.5749230000
H                  2.3063330000     -2.9738790000     -0.6532640000
H                  5.2297540000     -0.9666660000     -0.3913400000
H                  5.0288020000      1.5074030000      0.0860880000
H                  1.8258550000      2.9914510000      0.4994930000
H                 -1.2062600000      2.7311990000      0.5574140000
$end

$rem
BASIS  =  6-311++G(d,p)
GUI  =  2
JOB_TYPE  =  SP
METHOD  =  B3LYP
SCF_CONVERGENCE  = 8
SOLVENT_METHOD = sm12
$end

$smx
solvent dimethylformamide
charges CM5
$end

--------------------------------------------------------------

             Standard Nuclear Orientation (Angstroms)
    I     Atom           X                Y                Z
 ----------------------------------------------------------------
    1      C      -4.5563050000     0.8893680000     0.3393740000
    2      C      -3.1860490000     0.2789010000     0.1861660000
    3      C      -3.0540000000    -1.1185690000    -0.0826970000
    4      C      -1.8249330000    -1.7118100000    -0.2479670000
    5      O      -1.7407120000    -3.0528840000    -0.5012750000
    6      C      -0.6197610000    -0.9286540000    -0.1500600000
    7      C       0.6560770000    -1.5374600000    -0.3148510000
    8      O       0.7593340000    -2.8482680000    -0.5658320000
    9      C       1.8201580000    -0.7238400000    -0.2074020000
   10      C       3.1327040000    -1.2973330000    -0.3693010000
   11      O       3.2601280000    -2.6350460000    -0.6284580000
   12      C       4.2537270000    -0.5067980000    -0.2645250000
   13      C       4.1402900000     0.8875690000     0.0046120000
   14      C       2.9081310000     1.4777680000     0.1664440000
   15      O       2.8210710000     2.8190710000     0.4234120000
   16      C       1.7045790000     0.6899290000     0.0656710000
   17      C       0.4261690000     1.2956400000     0.2337450000
   18      O       0.3229050000     2.6065000000     0.4934030000
   19      C      -0.7373730000     0.4831930000     0.1226230000
   20      C      -2.0517400000     1.0586140000     0.2798740000
   21      O      -2.1672960000     2.4034250000     0.5188740000
   22      H      -5.0298360000     1.1033610000    -0.6328290000
   23      H      -4.5011940000     1.8345070000     0.8842430000
   24      H      -5.2320670000     0.2118210000     0.8787600000
   25      H      -3.9430940000    -1.7403940000    -0.1554700000
   26      H      -0.7453970000    -3.2281200000    -0.5749230000
   27      H       2.3063330000    -2.9738790000    -0.6532640000
   28      H       5.2297540000    -0.9666660000    -0.3913400000
   29      H       5.0288020000     1.5074030000     0.0860880000
   30      H       1.8258550000     2.9914510000     0.4994930000
   31      H      -1.2062600000     2.7311990000     0.5574140000
 ----------------------------------------------------------------

   16   -1029.3383039707      7.72e-09  Convergence criterion met
 Total energy in the final basis set =    -1029.5977378079

                    Orbital Energies (a.u.)
 --------------------------------------------------------------

 Alpha MOs
 -- Occupied --
-19.1108 -19.1104 -19.1102 -19.1076 -19.0658 -19.0646 -10.2153 -10.2151
-10.2151 -10.2102 -10.2074 -10.2061 -10.1684 -10.1650 -10.1644 -10.1642
-10.1634 -10.1618 -10.1570 -10.1565 -10.1532  -1.0313  -1.0295  -1.0236
 -1.0214  -0.9635  -0.9612  -0.8435  -0.8257  -0.7842  -0.7456  -0.7282
 -0.7153  -0.6911  -0.6585  -0.6309  -0.6101  -0.5805  -0.5660  -0.5319
 -0.5093  -0.5026  -0.4959  -0.4928  -0.4925  -0.4551  -0.4341  -0.4296
 -0.4285  -0.4140  -0.4049  -0.4016  -0.3983  -0.3927  -0.3918  -0.3896
 -0.3875  -0.3810  -0.3677  -0.3650  -0.3502  -0.3454  -0.3442  -0.3376
 -0.3276  -0.3224  -0.2883  -0.2814  -0.2483  -0.2471  -0.2339  -0.2330
 -0.2078  -0.1893  -0.1292

          Ground-State Mulliken Net Atomic Charges

     Atom                 Charge (a.u.)
  ----------------------------------------
      1 C                     2.162265
      2 C                     2.374978
      3 C                     0.395100
      4 C                    -0.172773
      5 O                    -0.316581
      6 C                    -1.115334
      7 C                    -1.612044
      8 O                    -0.463643
      9 C                    -1.173103
     10 C                    -0.405897
     11 O                    -0.308357
     12 C                     1.100040
     13 C                     1.020227
     14 C                    -0.350444
     15 O                    -0.314310
     16 C                    -0.939291
     17 C                    -1.326746
     18 O                    -0.491127
     19 C                    -2.203845
     20 C                    -0.698874
     21 O                    -0.318866
     22 H                     0.209872
     23 H                     0.250511
     24 H                     0.257659
     25 H                     0.173455
     26 H                     0.426964
     27 H                     0.426728
     28 H                     0.266034
     29 H                     0.263009
     30 H                     0.430613
     31 H                     0.453777
  ----------------------------------------
  Sum of atomic charges =    -2.000000

                    Cartesian Multipole Moments
 -----------------------------------------------------------------
    Charge (ESU x 10^10)
                -9.6064
    Dipole Moment (Debye)
         X      -5.5190      Y       1.1921      Z       0.4396
       Tot       5.6633
    Quadrupole Moments (Debye-Ang)
        XX    -196.9518     XY      -0.1226     YY    -189.3769
        XZ       2.3577     YZ     -10.5435     ZZ    -135.3271

 Total job time:  917.80s(wall), 7181.30s(cpu)
        *  Thank you very much for using Q-Chem.  Have a nice day.  *
