 Q-Chem 5.4, Q-Chem, Inc., Pleasanton, CA (2021)
 Q-Chem 5.4.0 for Intel X86 EM64T Linux

User input:
--------------------------------------------------------------
$molecule
-2 1
C                 -0.2739730000      3.8292160000     -0.1158160000
C                 -1.4973120000      3.2379570000     -0.3635600000
C                 -1.5594260000      1.8812820000     -0.7685760000
C                  0.9397550000      3.1090410000     -0.2562370000
C                  0.8778010000      1.7282300000     -0.6706430000
C                 -0.3853600000      1.1579890000     -0.9143110000
C                  2.2029290000      3.7324340000      0.0069580000
C                  3.3567280000      2.9052200000     -0.1702690000
C                  3.3404840000      1.5710130000     -0.5637330000
C                  2.0884370000      0.9145470000     -0.8408170000
O                  2.3864200000      4.9600200000      0.3869030000
O                  2.0285100000     -0.3053390000     -1.2068060000
H                 -0.2027400000      4.8666120000      0.1953890000
H                 -2.4137910000      3.8133520000     -0.2485980000
H                 -2.5210690000      1.4128580000     -0.9645720000
H                 -0.3990270000      0.1179880000     -1.2249450000
O                  4.5335980000      3.5645720000      0.1001020000
C                  4.6181760000      0.7819360000     -0.6999410000
C                  5.1980150000      0.7643450000     -2.1296520000
C                  6.4853220000     -0.0619500000     -2.2475610000
C                  7.0994820000     -0.0827220000     -3.6540100000
C                  8.3896550000     -0.9075830000     -3.7560120000
H                  4.1778100000      4.4533660000      0.3463920000
H                  4.4077670000     -0.2533130000     -0.4074170000
H                  5.3756580000      1.1879040000     -0.0191240000
H                  5.3949320000      1.7957600000     -2.4470390000
H                  4.4355290000      0.3603220000     -2.8044340000
H                  6.2785100000     -1.0936920000     -1.9313220000
H                  7.2302250000      0.3286920000     -1.5394950000
H                  7.3044630000      0.9481040000     -3.9727840000
H                  6.3606690000     -0.4768470000     -4.3642620000
H                  8.1826530000     -1.9392870000     -3.4406550000
H                  9.1241990000     -0.5155460000     -3.0392880000
C                  9.0177420000     -0.9271690000     -5.1561190000
H                  9.2263140000      0.1029350000     -5.4741090000
H                  8.2886470000     -1.3224130000     -5.8757140000
C                 10.3092660000     -1.7509270000     -5.2454750000
C                 10.9414600000     -1.7660430000     -6.6407450000
H                 10.1008310000     -2.7817760000     -4.9308790000
H                 11.0365310000     -1.3585770000     -4.5227900000
H                 10.2590900000     -2.1916690000     -7.3855520000
H                 11.8605650000     -2.3614700000     -6.6669310000
H                 11.2027350000     -0.7547430000     -6.9732720000
$end
$rem
MAX_SCF_CYCLES=200
SCF_Guess=core
BASIS  =  6-311++G(d,p)
GUI  =  2
JOB_TYPE  =  SP
METHOD  =  B3LYP
THRESH = 14
SCF_CONVERGENCE = 8
SOLVENT_METHOD = COSMO
$end
$solvent
dielectric 37.219
opticaldielectric 1.43
$end

--------------------------------------------------------------

             Standard Nuclear Orientation (Angstroms)
    I     Atom           X                Y                Z
 ----------------------------------------------------------------
    1      C       5.2980487504    -0.2196306757    -0.8320162832
    2      C       5.9772462596     0.9792016706    -0.9269602274
    3      C       5.3496650624     2.1831311622    -0.5205629032
    4      C       3.9721818337    -0.2832332735    -0.3324791228
    5      C       3.3314529227     0.9422755382     0.0795940065
    6      C       4.0529528493     2.1453508586    -0.0307338398
    7      C       3.2788383535    -1.5335826069    -0.2355236819
    8      C       1.9466015905    -1.4705783772     0.2822795801
    9      C       1.2946405925    -0.3126976248     0.6939167092
   10      C       1.9605597848     0.9617206509     0.6058568982
   11      O       3.7478738338    -2.6969640762    -0.5695054369
   12      O       1.3988253205     2.0471644757     0.9690746582
   13      H       5.7590710043    -1.1536402872    -1.1372992340
   14      H       6.9939890307     1.0001655235    -1.3142896469
   15      H       5.8816755053     3.1287179928    -0.5942050766
   16      H       3.5438848230     3.0499708831     0.2867479781
   17      O       1.3406599336    -2.7039235426     0.3498291608
   18      C      -0.1075827039    -0.3610153490     1.2462999118
   19      C      -1.2077728017    -0.1085694190     0.1944210909
   20      C      -2.6238264796    -0.1413471819     0.7839487589
   21      C      -3.7433746627     0.0859317625    -0.2410775423
   22      C      -5.1543874075     0.0443838028     0.3611377417
   23      H       2.0695301793    -3.2709818305    -0.0028629182
   24      H      -0.1928598329     0.4132204579     2.0175777194
   25      H      -0.2857308752    -1.3370068049     1.7129954141
   26      H      -1.1235572356    -0.8630357665    -0.5974223177
   27      H      -1.0221841716     0.8663402993    -0.2693225169
   28      H      -2.7005242730     0.6191557466     1.5732665702
   29      H      -2.7855665800    -1.1096212941     1.2790492491
   30      H      -3.6666057624    -0.6719169845    -1.0322842968
   31      H      -3.5888780352     1.0543618951    -0.7349509457
   32      H      -5.2312955063     0.8053020078     1.1496817409
   33      H      -5.3033570777    -0.9226806155     0.8606731637
   34      C      -6.2822076107     0.2607969519    -0.6568816297
   35      H      -6.2083206746    -0.4987563648    -1.4464091149
   36      H      -6.1401475488     1.2284224355    -1.1560150436
   37      C      -7.6884641266     0.2128056954    -0.0447252521
   38      C      -8.8159131787     0.4217887725    -1.0605307594
   39      H      -7.7642050199     0.9741537567     0.7424709749
   40      H      -7.8287611267    -0.7528626575     0.4581941210
   41      H      -8.7344291979     1.3966083688    -1.5551122912
   42      H      -9.8039443909     0.3800544484    -0.5893348448
   43      H      -8.7986101034    -0.3465802107    -1.8421164748
 ----------------------------------------------------------------

  188    -925.1176792670      5.35e-09  Convergence criterion met
 Total energy in the final basis set =     -925.1176792670
   12    -925.3753818739      5.27e-09  Convergence criterion met
 Total energy in the final basis set =     -925.3753818739

                    Orbital Energies (a.u.)
 --------------------------------------------------------------

 Alpha MOs
 -- Occupied --
-19.1136 -19.0307 -19.0217 -10.1775 -10.1749 -10.1637 -10.1564 -10.1535
-10.1529 -10.1515 -10.1502 -10.1488 -10.1481 -10.1449 -10.1445 -10.1441
-10.1436 -10.1397 -10.1372 -10.1329 -10.1245  -1.0282  -0.9449  -0.9369
 -0.8249  -0.8009  -0.7828  -0.7646  -0.7391  -0.7221  -0.7103  -0.6783
 -0.6431  -0.6231  -0.5930  -0.5812  -0.5684  -0.5644  -0.5526  -0.5354
 -0.5034  -0.4743  -0.4713  -0.4550  -0.4454  -0.4303  -0.4265  -0.4206
 -0.4127  -0.4113  -0.4008  -0.3932  -0.3904  -0.3796  -0.3751  -0.3705
 -0.3625  -0.3529  -0.3511  -0.3469  -0.3437  -0.3384  -0.3246  -0.3235
 -0.3185  -0.3153  -0.3124  -0.3105  -0.3079  -0.3040  -0.2999  -0.2917
 -0.2312  -0.2275  -0.2194  -0.1998  -0.1933  -0.1100

          Ground-State Mulliken Net Atomic Charges

     Atom                 Charge (a.u.)
  ----------------------------------------
      1 C                    -0.079730
      2 C                    -0.399649
      3 C                    -0.531623
      4 C                     0.459292
      5 C                    -0.138161
      6 C                     0.018388
      7 C                    -0.900604
      8 C                    -0.656687
      9 C                     1.985777
     10 C                    -0.715736
     11 O                    -0.771916
     12 O                    -0.678817
     13 H                     0.155884
     14 H                     0.177005
     15 H                     0.170715
     16 H                     0.154559
     17 O                    -0.355321
     18 C                    -0.300039
     19 C                    -0.721494
     20 C                    -0.134010
     21 C                    -0.022964
     22 C                    -0.123597
     23 H                     0.293039
     24 H                     0.173336
     25 H                     0.202096
     26 H                     0.160285
     27 H                     0.181159
     28 H                     0.115640
     29 H                     0.109269
     30 H                     0.127938
     31 H                     0.127535
     32 H                     0.132720
     33 H                     0.131436
     34 C                    -0.351803
     35 H                     0.128942
     36 H                     0.129486
     37 C                    -0.254588
     38 C                    -0.713163
     39 H                     0.136147
     40 H                     0.135604
     41 H                     0.145830
     42 H                     0.151989
     43 H                     0.145833
  ----------------------------------------
  Sum of atomic charges =    -2.000000

                    Cartesian Multipole Moments
 -----------------------------------------------------------------
    Charge (ESU x 10^10)
                -9.6064
    Dipole Moment (Debye)
         X     -25.6693      Y       2.4196      Z      -1.5591
       Tot      25.8302
    Quadrupole Moments (Debye-Ang)
        XX    -230.8772     XY      18.2813     YY    -181.7619
        XZ       3.4628     YZ      -9.3400     ZZ    -146.5055

 Total job time:  2397.02s(wall), 18988.38s(cpu)
        *  Thank you very much for using Q-Chem.  Have a nice day.  *
