 Gaussian 16, Revision A.03,
 Gaussian 16:  ES64L-G16RevA.03 25-Dec-2016

 --------------------------------------
 #P UB3LYP/6-311++G(d,p) nosym opt freq
 --------------------------------------

 --------
 Oxidized
 --------
 Symbolic Z-matrix:
 Charge =  0 Multiplicity = 1

 SCF Done:  E(UB3LYP) =  -989.858901615     A.U. after   15 cycles
 SCF Done:  E(UB3LYP) =  -989.909105411     A.U. after   13 cycles
 SCF Done:  E(UB3LYP) =  -989.962496794     A.U. after   14 cycles
 SCF Done:  E(UB3LYP) =  -989.983252888     A.U. after   14 cycles
 SCF Done:  E(UB3LYP) =  -989.986192984     A.U. after   13 cycles
 SCF Done:  E(UB3LYP) =  -989.986325506     A.U. after   13 cycles
 SCF Done:  E(UB3LYP) =  -989.986685381     A.U. after   12 cycles
 SCF Done:  E(UB3LYP) =  -989.986712451     A.U. after   12 cycles
 SCF Done:  E(UB3LYP) =  -989.986732513     A.U. after   11 cycles
 SCF Done:  E(UB3LYP) =  -989.986733326     A.U. after    9 cycles
 SCF Done:  E(UB3LYP) =  -989.986733578     A.U. after    9 cycles
 Optimization completed.
    -- Stationary point found.
 Normal termination of Gaussian 16 at Thu Dec 21 20:03:16 2023.

 ----------------------------------------------------------------------
 #P Geom=AllCheck Guess=TCheck SCRF=Check GenChk UB3LYP/6-311++G(d,p) F
 req
 ----------------------------------------------------------------------

 Structure from the checkpoint file:  "205.chk"
 --------
 Oxidized
 --------
 Charge =  0 Multiplicity = 1

                          Input orientation:
 ---------------------------------------------------------------------
 Center     Atomic      Atomic             Coordinates (Angstroms)
 Number     Number       Type             X           Y           Z
 ---------------------------------------------------------------------
      1          8           0       -2.733880   -2.540109    0.539106
      2          6           0       -2.558975   -1.220793    0.397586
      3          6           0       -3.716908   -0.410991    0.407595
      4          6           0       -3.626362    0.950992    0.268399
      5          6           0       -2.372549    1.583304    0.111021
      6          8           0       -2.371123    2.915406   -0.018443
      7          6           0       -1.203519    0.801597    0.097412
      8          6           0        0.095590    1.438725   -0.063969
      9          8           0        0.179086    2.693575   -0.192184
     10          6           0        1.297799    0.617708   -0.076305
     11          6           0        2.558815    1.220807   -0.231410
     12          8           0        2.733480    2.540191   -0.372926
     13          6           0        3.716853    0.411141   -0.241416
     14          6           0        3.626443   -0.950873   -0.102228
     15          6           0        2.372681   -1.583352    0.055138
     16          8           0        2.371404   -2.915440    0.184580
     17          6           0        1.203531   -0.801732    0.068746
     18          6           0       -0.095573   -1.438885    0.230116
     19          8           0       -0.178872   -2.693781    0.358381
     20          6           0       -1.297848   -0.617853    0.242469
     21          1           0       -1.839904   -2.957778    0.511275
     22          1           0       -4.676069   -0.899761    0.528461
     23          1           0       -4.511491    1.575484    0.275498
     24          1           0       -1.430618    3.197945   -0.117911
     25          1           0        1.839504    2.957858   -0.345127
     26          1           0        4.675947    0.900030   -0.362274
     27          1           0        4.511643   -1.575262   -0.109328
     28          1           0        1.430915   -3.198151    0.284027
 ---------------------------------------------------------------------

 SCF Done:  E(UB3LYP) =  -989.986733578     A.U. after    1 cycles

 Alpha  occ. eigenvalues --  -19.16981 -19.16979 -19.16978 -19.16977 -19.15075
 Alpha  occ. eigenvalues --  -19.15074 -10.29874 -10.29873 -10.27676 -10.27676
 Alpha  occ. eigenvalues --  -10.27674 -10.27674 -10.22094 -10.22093 -10.22052
 Alpha  occ. eigenvalues --  -10.22051 -10.21464 -10.21463 -10.21400 -10.21399
 Alpha  occ. eigenvalues --   -1.10464  -1.10276  -1.09237  -1.09110  -1.06332
 Alpha  occ. eigenvalues --   -1.06230  -0.90542  -0.88634  -0.83387  -0.79404
 Alpha  occ. eigenvalues --   -0.78579  -0.76987  -0.71731  -0.69254  -0.68540
 Alpha  occ. eigenvalues --   -0.64761  -0.63392  -0.59664  -0.57364  -0.56637
 Alpha  occ. eigenvalues --   -0.56200  -0.55627  -0.55321  -0.51227  -0.49997
 Alpha  occ. eigenvalues --   -0.48634  -0.47846  -0.47836  -0.47284  -0.45432
 Alpha  occ. eigenvalues --   -0.45245  -0.45019  -0.44808  -0.44044  -0.44006
 Alpha  occ. eigenvalues --   -0.42524  -0.41643  -0.40480  -0.40386  -0.40078
 Alpha  occ. eigenvalues --   -0.38818  -0.38431  -0.34634  -0.33763  -0.31310
 Alpha  occ. eigenvalues --   -0.30735  -0.29448  -0.29433  -0.25364  -0.23338
 Alpha virt. eigenvalues --   -0.13527  -0.07534  -0.05483  -0.01262  -0.00956
 Alpha virt. eigenvalues --   -0.00292   0.00424   0.00555   0.01993   0.02232
 Alpha virt. eigenvalues --    0.02979   0.03084   0.03358   0.03718   0.04047

  Beta  occ. eigenvalues --  -19.16981 -19.16979 -19.16978 -19.16977 -19.15075
  Beta  occ. eigenvalues --  -19.15074 -10.29874 -10.29873 -10.27676 -10.27676
  Beta  occ. eigenvalues --  -10.27674 -10.27674 -10.22094 -10.22093 -10.22052
  Beta  occ. eigenvalues --  -10.22051 -10.21464 -10.21463 -10.21400 -10.21399
  Beta  occ. eigenvalues --   -1.10464  -1.10276  -1.09237  -1.09110  -1.06332
  Beta  occ. eigenvalues --   -1.06230  -0.90542  -0.88634  -0.83387  -0.79404
  Beta  occ. eigenvalues --   -0.78579  -0.76987  -0.71731  -0.69254  -0.68540
  Beta  occ. eigenvalues --   -0.64761  -0.63392  -0.59664  -0.57364  -0.56637
  Beta  occ. eigenvalues --   -0.56200  -0.55627  -0.55321  -0.51227  -0.49997
  Beta  occ. eigenvalues --   -0.48634  -0.47846  -0.47836  -0.47284  -0.45432
  Beta  occ. eigenvalues --   -0.45245  -0.45019  -0.44808  -0.44044  -0.44006
  Beta  occ. eigenvalues --   -0.42524  -0.41643  -0.40480  -0.40386  -0.40078
  Beta  occ. eigenvalues --   -0.38818  -0.38431  -0.34634  -0.33763  -0.31310
  Beta  occ. eigenvalues --   -0.30735  -0.29448  -0.29433  -0.25364  -0.23338
  Beta virt. eigenvalues --   -0.13527  -0.07534  -0.05483  -0.01262  -0.00956
  Beta virt. eigenvalues --   -0.00292   0.00424   0.00555   0.01993   0.02232
  Beta virt. eigenvalues --    0.02979   0.03084   0.03358   0.03718   0.04047

 Mulliken charges and spin densities:
               1          2
     1  O   -0.287655   0.000000
     2  C   -0.343827  -0.000000
     3  C   -0.018326   0.000000
     4  C   -0.018449  -0.000000
     5  C   -0.343592  -0.000000
     6  O   -0.287758   0.000000
     7  C    0.465769  -0.000000
     8  C   -0.368069  -0.000000
     9  O   -0.404505   0.000000
    10  C    0.465352   0.000000
    11  C   -0.343299   0.000000
    12  O   -0.287833  -0.000000
    13  C   -0.018412   0.000000
    14  C   -0.018394   0.000000
    15  C   -0.343769  -0.000000
    16  O   -0.287689   0.000000
    17  C    0.465656   0.000000
    18  C   -0.368053  -0.000000
    19  O   -0.404451   0.000000
    20  C    0.465610  -0.000000
    21  H    0.358804  -0.000000
    22  H    0.211562   0.000000
    23  H    0.211557  -0.000000
    24  H    0.358893  -0.000000
    25  H    0.358914   0.000000
    26  H    0.211560   0.000000
    27  H    0.211561   0.000000
    28  H    0.358842   0.000000
 Sum of Mulliken charges =  -0.00000   0.00000

 Dipole moment (field-independent basis, Debye):
    X=             -0.0005    Y=             -0.0002    Z=             -0.0001  Tot=              0.0006
 Quadrupole moment (field-independent basis, Debye-Ang):
   XX=           -102.7166   YY=           -127.7791   ZZ=           -115.4772
   XY=             -1.7630   XZ=             -0.8002   YZ=              1.3354

  Exact polarizability: 331.792  -9.421 216.906 -17.932 -12.022  88.200
 Approx polarizability: 592.865 -15.308 411.923 -33.262 -25.326 144.053

                      1                      2                      3
                      A                      A                      A
 Frequencies --     54.9005                68.0545               131.7615
 Red. masses --      6.5650                 9.3823                13.8928
 Frc consts  --      0.0117                 0.0256                 0.1421
 IR Inten    --      0.8519                 0.0000                 0.0000

                      4                      5                      6
                      A                      A                      A
 Frequencies --    147.6018               153.9041               186.2489
 Red. masses --      5.5407                 8.9891                 7.6985
 Frc consts  --      0.0711                 0.1254                 0.1573
 IR Inten    --      0.0000                 1.6912                 0.0737

                      7                      8                      9
                      A                      A                      A
 Frequencies --    207.1466               237.9838               298.2261
 Red. masses --      6.9062                 8.5337                 7.3475
 Frc consts  --      0.1746                 0.2848                 0.3850
 IR Inten    --      2.2948                 0.0000                 0.0000

                     10                     11                     12
                      A                      A                      A
 Frequencies --    309.9002               363.5488               365.1448
 Red. masses --      7.1490                 5.5059                 5.6481
 Frc consts  --      0.4045                 0.4287                 0.4437
 IR Inten    --      0.0000                 0.0000                 0.0000

                     13                     14                     15
                      A                      A                      A
 Frequencies --    407.1127               421.8874               423.5760
 Red. masses --      5.4064                 7.2612                11.3615
 Frc consts  --      0.5279                 0.7615                 1.2010
 IR Inten    --      3.3092                 0.0000                 0.0000

                     16                     17                     18
                      A                      A                      A
 Frequencies --    438.1186               466.3332               467.4216
 Red. masses --      8.4939                10.1444                 8.8056
 Frc consts  --      0.9606                 1.2998                 1.1335
 IR Inten    --      0.0000                13.6821                 0.0007

                     19                     20                     21
                      A                      A                      A
 Frequencies --    482.7753               485.0329               498.4037
 Red. masses --     12.7619                 6.3604                 7.9469
 Frc consts  --      1.7525                 0.8816                 1.1631
 IR Inten    --     29.6598                 0.0001                17.4885

                     22                     23                     24
                      A                      A                      A
 Frequencies --    512.8045               551.9493               559.7767
 Red. masses --      5.0658                 3.7157                 9.4640
 Frc consts  --      0.7849                 0.6669                 1.7472
 IR Inten    --      0.0000                16.4603                 0.0000

                     25                     26                     27
                      A                      A                      A
 Frequencies --    602.2932               611.4002               667.7708
 Red. masses --      3.1314                 4.2863                 6.3394
 Frc consts  --      0.6693                 0.9440                 1.6655
 IR Inten    --      0.0000                26.5293                 0.0000

                     28                     29                     30
                      A                      A                      A
 Frequencies --    690.9656               718.4838               724.0269
 Red. masses --      8.4252                 7.2659                11.8108
 Frc consts  --      2.3700                 2.2099                 3.6479
 IR Inten    --      0.0000                 0.0000                 0.0000

                     31                     32                     33
                      A                      A                      A
 Frequencies --    751.4434               763.4128               782.7365
 Red. masses --      7.7693                 3.4217                 1.0714
 Frc consts  --      2.5848                 1.1749                 0.3868
 IR Inten    --     20.4371                48.3525                 0.0346

                     34                     35                     36
                      A                      A                      A
 Frequencies --    787.7267               787.9763               790.3601
 Red. masses --      1.1054                 1.0667                 1.2874
 Frc consts  --      0.4041                 0.3902                 0.4738
 IR Inten    --      1.9850                17.3182               338.7863

                     37                     38                     39
                      A                      A                      A
 Frequencies --    846.0986               857.6842               858.0487
 Red. masses --      9.3338                 1.6107                 1.5522
 Frc consts  --      3.9369                 0.6981                 0.6733
 IR Inten    --     24.5269                36.5892                 0.0021

                     40                     41                     42
                      A                      A                      A
 Frequencies --    870.6701               978.9683               981.7969
 Red. masses --      8.6733                 1.2824                 1.2998
 Frc consts  --      3.8738                 0.7241                 0.7382
 IR Inten    --      0.0000                 0.0000                 0.0000

                     43                     44                     45
                      A                      A                      A
 Frequencies --    982.1757               995.6444              1015.5646
 Red. masses --      4.6957                 8.5186                 4.6178
 Frc consts  --      2.6689                 4.9754                 2.8061
 IR Inten    --      0.0000                68.6231                 0.0000

                     46                     47                     48
                      A                      A                      A
 Frequencies --   1126.3940              1173.6685              1184.1600
 Red. masses --      1.4702                 1.2881                 2.4914
 Frc consts  --      1.0991                 1.0454                 2.0583
 IR Inten    --      9.4740                 0.0000                79.2579

                     49                     50                     51
                      A                      A                      A
 Frequencies --   1212.0623              1254.3807              1289.6228
 Red. masses --      2.2807                 1.7491                 4.8768
 Frc consts  --      1.9741                 1.6215                 4.7787
 IR Inten    --    965.7716                 0.0001                 0.0001

                     52                     53                     54
                      A                      A                      A
 Frequencies --   1295.7198              1319.4602              1331.0047
 Red. masses --      5.9574                 3.4306                 3.0019
 Frc consts  --      5.8929                 3.5189                 3.1334
 IR Inten    --    186.4761               190.9268                 0.0007

                     55                     56                     57
                      A                      A                      A
 Frequencies --   1356.3263              1361.7608              1389.1910
 Red. masses --      2.2545                 2.2981                 3.1360
 Frc consts  --      2.4436                 2.5108                 3.5658
 IR Inten    --    523.6938                 0.0393               319.6766

                     58                     59                     60
                      A                      A                      A
 Frequencies --   1422.9934              1429.5547              1438.3285
 Red. masses --      7.3790                10.2083                 3.7916
 Frc consts  --      8.8035                12.2915                 4.6216
 IR Inten    --      0.0005               143.4405                 0.0023

                     61                     62                     63
                      A                      A                      A
 Frequencies --   1466.9421              1480.5690              1487.2384
 Red. masses --      5.1409                 2.1819                 3.0671
 Frc consts  --      6.5180                 2.8180                 3.9970
 IR Inten    --      0.0013               495.8802                 0.0028

                     64                     65                     66
                      A                      A                      A
 Frequencies --   1512.8543              1599.0354              1609.3041
 Red. masses --      2.2707                 2.3146                 3.7100
 Frc consts  --      3.0620                 3.4869                 5.6611
 IR Inten    --    142.9132                 0.0034                 0.0001

                     67                     68                     69
                      A                      A                      A
 Frequencies --   1612.1042              1632.6454              1638.2095
 Red. masses --      7.6992                 5.7403                 3.2572
 Frc consts  --     11.7891                 9.0151                 5.1503
 IR Inten    --    641.4033               225.7502                 9.5495

                     70                     71                     72
                      A                      A                      A
 Frequencies --   1681.1288              3189.6324              3189.7105
 Red. masses --      7.9602                 1.0882                 1.0882
 Frc consts  --     13.2548                 6.5231                 6.5234
 IR Inten    --      0.0003                 0.1112                 1.9801

                     73                     74                     75
                      A                      A                      A
 Frequencies --   3203.2375              3203.2962              3333.5821
 Red. masses --      1.0960                 1.0960                 1.0660
 Frc consts  --      6.6258                 6.6260                 6.9794
 IR Inten    --      3.3916                 0.3397                 0.1460

                     76                     77                     78
                      A                      A                      A
 Frequencies --   3336.2692              3365.7185              3371.2859
 Red. masses --      1.0666                 1.0688                 1.0680
 Frc consts  --      6.9949                 7.1338                 7.1520
 IR Inten    --    423.9942                 0.0210                95.4458

 - Thermochemistry -
 -------------------
 Temperature   298.150 Kelvin.  Pressure   1.00000 Atm.
 Atom     1 has atomic number  8 and mass  15.99491

 Molecular mass:   272.03209 amu.
 Principal axes and moments of inertia in atomic units:
                           1         2         3
     Eigenvalues --  3417.625675507.660358925.28602
           X            0.99493   0.06591   0.07599
           Y           -0.07312   0.99266   0.09637
           Z           -0.06908  -0.10144   0.99244
 This molecule is an asymmetric top.
 Rotational symmetry number  1.
 Warning -- assumption of classical behavior for rotation
           may cause significant error
 Rotational temperatures (Kelvin)      0.02534     0.01573     0.00970
 Rotational constants (GHZ):           0.52807     0.32768     0.20221
 Zero-point vibrational energy     519192.8 (Joules/Mol)
                                  124.09005 (Kcal/Mol)
 Warning -- explicit consideration of  26 degrees of freedom as
           vibrations may cause significant error
 Vibrational temperatures:     78.99    97.92   189.58   212.37   221.43
          (Kelvin)            267.97   298.04   342.41   429.08   445.88
                              523.07   525.36   585.74   607.00   609.43
                              630.35   670.95   672.52   694.61   697.85
                              717.09   737.81   794.13   805.39   866.57
                              879.67   960.77   994.15  1033.74  1041.71
                             1081.16  1098.38  1126.18  1133.36  1133.72
                             1137.15  1217.35  1234.02  1234.54  1252.70
                             1408.52  1412.59  1413.13  1432.51  1461.17
                             1620.63  1688.65  1703.74  1743.89  1804.77
                             1855.48  1864.25  1898.41  1915.02  1951.45
                             1959.27  1998.74  2047.37  2056.81  2069.43
                             2110.60  2130.21  2139.80  2176.66  2300.66
                             2315.43  2319.46  2349.01  2357.02  2418.77
                             4589.17  4589.28  4608.74  4608.83  4796.28
                             4800.15  4842.52  4850.53

 Zero-point correction=                           0.197750 (Hartree/Particle)
 Thermal correction to Energy=                    0.212193
 Thermal correction to Enthalpy=                  0.213138
 Thermal correction to Gibbs Free Energy=         0.156912
 Sum of electronic and zero-point Energies=           -989.788983
 Sum of electronic and thermal Energies=              -989.774540
 Sum of electronic and thermal Enthalpies=            -989.773596
 Sum of electronic and thermal Free Energies=         -989.829822

                     E (Thermal)             CV                S
                      KCal/Mol        Cal/Mol-Kelvin    Cal/Mol-Kelvin
 Total                  133.153             59.702            118.337
 Electronic               0.000              0.000              0.000
 Translational            0.889              2.981             42.701
 Rotational               0.889              2.981             33.485
 Vibrational            131.376             53.740             42.151
 Vibration     1          0.596              1.976              4.633
 Vibration     2          0.598              1.969              4.209
 Vibration     3          0.612              1.922              2.920
 Vibration     4          0.617              1.905              2.703
 Vibration     5          0.619              1.898              2.623
 Vibration     6          0.632              1.859              2.265
 Vibration     7          0.641              1.830              2.069
 Vibration     8          0.656              1.782              1.818
 Vibration     9          0.691              1.677              1.427
 Vibration    10          0.699              1.655              1.363
 Vibration    11          0.737              1.547              1.107
 Vibration    12          0.738              1.544              1.100
 Vibration    13          0.772              1.455              0.937
 Vibration    14          0.784              1.423              0.886
 Vibration    15          0.786              1.419              0.880
 Vibration    16          0.798              1.387              0.833
 Vibration    17          0.824              1.325              0.748
 Vibration    18          0.825              1.322              0.745
 Vibration    19          0.839              1.288              0.703
 Vibration    20          0.841              1.283              0.697
 Vibration    21          0.854              1.254              0.662
 Vibration    22          0.868              1.222              0.627
 Vibration    23          0.907              1.135              0.540
 Vibration    24          0.915              1.118              0.524
 Vibration    25          0.961              1.027              0.446
 Vibration    26          0.971              1.008              0.430

 Optimization completed.
    -- Stationary point found.
 Normal termination of Gaussian 16 at Thu Dec 21 21:03:05 2023.
