 Q-Chem 5.4, Q-Chem, Inc., Pleasanton, CA (2021)
 Q-Chem 5.4.0 for Intel X86 EM64T Linux

User input:
--------------------------------------------------------------
$molecule
-1 2
C                 -0.4680850000      3.9067130000      0.3060420000
C                  0.5566780000      2.9926460000      0.3415090000
C                  0.3874450000      1.6660050000     -0.1652180000
C                 -0.8435470000      1.3099460000     -0.6941040000
C                  1.5202890000      0.7286230000     -0.1367650000
C                  1.5001010000     -0.7024040000      0.1079690000
C                  2.8446020000      1.0506430000     -0.3268330000
C                  2.8422210000     -1.1712610000      0.0482690000
C                  0.4846640000     -1.6236010000      0.4114750000
C                  0.8135460000     -2.9575850000      0.6157860000
C                  2.1473910000     -3.4011220000      0.5295290000
C                  3.1783830000     -2.5124350000      0.2504620000
N                  3.6435690000     -0.0807460000     -0.2044400000
H                 -0.9965820000      0.3264350000     -1.1271810000
H                  3.2856870000      2.0076840000     -0.5565800000
H                 -0.5430290000     -1.2903900000      0.4859250000
H                  0.0307580000     -3.6719050000      0.8473610000
H                  2.3747020000     -4.4500280000      0.6888250000
H                  4.2090500000     -2.8495130000      0.1969850000
H                  4.6343990000     -0.1104010000     -0.3697070000
C                 -1.7769980000      3.6065340000     -0.2330700000
C                 -1.9746280000      2.2035930000     -0.7693770000
O                 -2.6947750000      4.4545050000     -0.2525410000
O                 -3.0666070000      1.8423420000     -1.2640970000
H                 -0.3333160000      4.9076930000      0.7075040000
H                  1.5090150000      3.2647280000      0.7889760000
$end
$rem
MAX_SCF_CYCLES=200
BASIS  =  6-311++G(d,p)
GUI  =  2
JOB_TYPE  =  SP
METHOD  =  B3LYP
SOLVENT_METHOD = PCM
$end
$pcm
theory = CPCM
$end
$solvent
dielectric 37.219
opticaldielectric 1.43
$end

--------------------------------------------------------------

             Standard Nuclear Orientation (Angstroms)
    I     Atom           X                Y                Z
 ----------------------------------------------------------------
    1      C      -0.4680850000     3.9067130000     0.3060420000
    2      C       0.5566780000     2.9926460000     0.3415090000
    3      C       0.3874450000     1.6660050000    -0.1652180000
    4      C      -0.8435470000     1.3099460000    -0.6941040000
    5      C       1.5202890000     0.7286230000    -0.1367650000
    6      C       1.5001010000    -0.7024040000     0.1079690000
    7      C       2.8446020000     1.0506430000    -0.3268330000
    8      C       2.8422210000    -1.1712610000     0.0482690000
    9      C       0.4846640000    -1.6236010000     0.4114750000
   10      C       0.8135460000    -2.9575850000     0.6157860000
   11      C       2.1473910000    -3.4011220000     0.5295290000
   12      C       3.1783830000    -2.5124350000     0.2504620000
   13      N       3.6435690000    -0.0807460000    -0.2044400000
   14      H      -0.9965820000     0.3264350000    -1.1271810000
   15      H       3.2856870000     2.0076840000    -0.5565800000
   16      H      -0.5430290000    -1.2903900000     0.4859250000
   17      H       0.0307580000    -3.6719050000     0.8473610000
   18      H       2.3747020000    -4.4500280000     0.6888250000
   19      H       4.2090500000    -2.8495130000     0.1969850000
   20      H       4.6343990000    -0.1104010000    -0.3697070000
   21      C      -1.7769980000     3.6065340000    -0.2330700000
   22      C      -1.9746280000     2.2035930000    -0.7693770000
   23      O      -2.6947750000     4.4545050000    -0.2525410000
   24      O      -3.0666070000     1.8423420000    -1.2640970000
   25      H      -0.3333160000     4.9076930000     0.7075040000
   26      H       1.5090150000     3.2647280000     0.7889760000
 ----------------------------------------------------------------

    8    -744.4493993169      9.68e-06  Convergence criterion met
 Total energy in the final basis set =     -744.4493993169

                    Orbital Energies (a.u.)
 --------------------------------------------------------------

 Alpha MOs
 -- Occupied --
-19.0819 -19.0765 -14.3562 -10.2182 -10.2170 -10.2080 -10.2058 -10.1829
-10.1754 -10.1753 -10.1740 -10.1720 -10.1713 -10.1678 -10.1670 -10.1569
-10.1515  -1.0155  -0.9893  -0.9816  -0.8463  -0.8372  -0.7872  -0.7399
 -0.7320  -0.7219  -0.6880  -0.6261  -0.6036  -0.5966  -0.5808  -0.5486
 -0.5358  -0.4914  -0.4770  -0.4735  -0.4608  -0.4426  -0.4366  -0.4307
 -0.4266  -0.4134  -0.4091  -0.4058  -0.3977  -0.3768  -0.3658  -0.3561
 -0.3508  -0.3445  -0.3375  -0.3282  -0.2841  -0.2623  -0.2369  -0.2324
 -0.2245  -0.2085  -0.1633

 Beta MOs
 -- Occupied --
-19.0758 -19.0710 -14.3559 -10.2167 -10.2156 -10.2080 -10.2051 -10.1810
-10.1754 -10.1752 -10.1742 -10.1720 -10.1713 -10.1670 -10.1660 -10.1562
-10.1513  -1.0053  -0.9810  -0.9785  -0.8458  -0.8330  -0.7853  -0.7395
 -0.7303  -0.7194  -0.6796  -0.6257  -0.6013  -0.5941  -0.5777  -0.5469
 -0.5340  -0.4906  -0.4766  -0.4712  -0.4583  -0.4392  -0.4359  -0.4298
 -0.4251  -0.4058  -0.4030  -0.3984  -0.3903  -0.3741  -0.3648  -0.3543
 -0.3432  -0.3354  -0.3247  -0.3155  -0.2784  -0.2566  -0.2315  -0.2273
 -0.2192  -0.2003

          Ground-State Mulliken Net Atomic Charges

     Atom                 Charge (a.u.)    Spin (a.u.)
  --------------------------------------------------------
      1 C                     0.276320       0.068338
      2 C                    -1.012530       0.093280
      3 C                     1.180992       0.124925
      4 C                    -0.775147      -0.029208
      5 C                     0.348541       0.090277
      6 C                     1.190795      -0.066167
      7 C                    -0.225978       0.030679
      8 C                     0.116328      -0.026779
      9 C                    -0.993207       0.024628
     10 C                    -0.584533       0.011895
     11 C                    -0.246751      -0.004772
     12 C                    -0.584899      -0.006260
     13 N                    -0.118882       0.009957
     14 H                     0.188502      -0.003471
     15 H                     0.223555      -0.003279
     16 H                     0.155074      -0.001175
     17 H                     0.200017      -0.000076
     18 H                     0.196593      -0.000146
     19 H                     0.200122       0.000122
     20 H                     0.359911      -0.000602
     21 C                    -0.443695       0.131273
     22 C                     0.033131       0.139699
     23 O                    -0.515400       0.226737
     24 O                    -0.543164       0.204713
     25 H                     0.200034      -0.005079
     26 H                     0.174271      -0.009509
  --------------------------------------------------------
  Sum of atomic charges =    -1.000000

                    Cartesian Multipole Moments
 -----------------------------------------------------------------
    Charge (ESU x 10^10)
                -4.8032
    Dipole Moment (Debye)
         X      17.9046      Y     -14.2827      Z       3.3631
       Tot      23.1491
    Quadrupole Moments (Debye-Ang)
        XX    -121.0694     XY      47.4717     YY    -153.4470
        XZ     -15.4593     YZ       8.2840     ZZ    -110.6434

 Total job time:  51.52s(wall), 352.16s(cpu)
        *  Thank you very much for using Q-Chem.  Have a nice day.  *
