 Q-Chem 5.4, Q-Chem, Inc., Pleasanton, CA (2021)
 Q-Chem 5.4.0 for Intel X86 EM64T Linux

User input:
--------------------------------------------------------------
$molecule
-1 2
C                 -4.5694400000      0.2298380000      0.0195070000
C                 -3.1186740000     -0.1910530000      0.0204040000
C                 -2.7776570000     -1.5677950000     -0.0148770000
C                 -1.4582210000     -1.9670220000     -0.0146220000
C                 -0.4050130000     -1.0263920000      0.0205320000
C                  0.9800000000     -1.4981920000      0.0193300000
O                  1.2683200000     -2.7209270000     -0.0121830000
C                  2.0113930000     -0.4585830000      0.0570980000
C                  3.3720380000     -0.8371680000      0.0583200000
C                  4.3788560000      0.1068470000      0.0931610000
C                  4.0533300000      1.4812890000      0.1284800000
C                  2.7304410000      1.8756360000      0.1280330000
C                  1.6824800000      0.9286340000      0.0927460000
C                  0.2953410000      1.3977130000      0.0938580000
O                  0.0067360000      2.6215600000      0.1253910000
C                 -0.7338660000      0.3584460000      0.0561340000
C                 -2.0961910000      0.7375030000      0.0549610000
H                 -5.0909410000     -0.1268730000     -0.8771170000
H                 -4.6637630000      1.3180140000      0.0502070000
H                 -5.1068680000     -0.1780000000      0.8843560000
H                 -3.5689050000     -2.3133510000     -0.0423690000
H                 -1.1869990000     -3.0163740000     -0.0414350000
H                  3.5915830000     -1.8984330000      0.0307560000
H                  5.4193740000     -0.2046800000      0.0934660000
H                  4.8441250000      2.2254210000      0.1559290000
H                  2.4517920000      2.9229190000      0.1547210000
H                 -2.3092710000      1.8010250000      0.0826960000
$end

$rem
BASIS  =  6-311++G(d,p)
GUI  =  2
JOB_TYPE  =  SP
METHOD  =  B3LYP
SCF_CONVERGENCE  = 8
SOLVENT_METHOD = sm12
$end

$smx
solvent dimethylformamide
charges CM5
$end

--------------------------------------------------------------

             Standard Nuclear Orientation (Angstroms)
    I     Atom           X                Y                Z
 ----------------------------------------------------------------
    1      C      -4.5694400000     0.2298380000     0.0195070000
    2      C      -3.1186740000    -0.1910530000     0.0204040000
    3      C      -2.7776570000    -1.5677950000    -0.0148770000
    4      C      -1.4582210000    -1.9670220000    -0.0146220000
    5      C      -0.4050130000    -1.0263920000     0.0205320000
    6      C       0.9800000000    -1.4981920000     0.0193300000
    7      O       1.2683200000    -2.7209270000    -0.0121830000
    8      C       2.0113930000    -0.4585830000     0.0570980000
    9      C       3.3720380000    -0.8371680000     0.0583200000
   10      C       4.3788560000     0.1068470000     0.0931610000
   11      C       4.0533300000     1.4812890000     0.1284800000
   12      C       2.7304410000     1.8756360000     0.1280330000
   13      C       1.6824800000     0.9286340000     0.0927460000
   14      C       0.2953410000     1.3977130000     0.0938580000
   15      O       0.0067360000     2.6215600000     0.1253910000
   16      C      -0.7338660000     0.3584460000     0.0561340000
   17      C      -2.0961910000     0.7375030000     0.0549610000
   18      H      -5.0909410000    -0.1268730000    -0.8771170000
   19      H      -4.6637630000     1.3180140000     0.0502070000
   20      H      -5.1068680000    -0.1780000000     0.8843560000
   21      H      -3.5689050000    -2.3133510000    -0.0423690000
   22      H      -1.1869990000    -3.0163740000    -0.0414350000
   23      H       3.5915830000    -1.8984330000     0.0307560000
   24      H       5.4193740000    -0.2046800000     0.0934660000
   25      H       4.8441250000     2.2254210000     0.1559290000
   26      H       2.4517920000     2.9229190000     0.1547210000
   27      H      -2.3092710000     1.8010250000     0.0826960000
 ----------------------------------------------------------------

   16    -728.3415717027      5.97e-09  Convergence criterion met
 Total energy in the final basis set =     -728.4318102274

                    Orbital Energies (a.u.)
 --------------------------------------------------------------

 Alpha MOs
 -- Occupied --
-19.0788 -19.0781 -10.2282 -10.2266 -10.1891 -10.1833 -10.1828 -10.1807
-10.1803 -10.1796 -10.1795 -10.1795 -10.1794 -10.1789 -10.1779 -10.1740
-10.1717  -1.0049  -1.0025  -0.8687  -0.8606  -0.7997  -0.7671  -0.7588
 -0.7514  -0.7023  -0.6678  -0.6401  -0.6139  -0.5950  -0.5639  -0.5388
 -0.5251  -0.4783  -0.4737  -0.4652  -0.4530  -0.4328  -0.4315  -0.4314
 -0.4202  -0.4186  -0.4126  -0.4055  -0.3850  -0.3824  -0.3787  -0.3691
 -0.3523  -0.3512  -0.3386  -0.3384  -0.2716  -0.2663  -0.2615  -0.2517
 -0.2480  -0.2391  -0.1461

 Beta MOs
 -- Occupied --
-19.0730 -19.0720 -10.2268 -10.2251 -10.1886 -10.1828 -10.1823 -10.1799
-10.1798 -10.1794 -10.1793 -10.1792 -10.1787 -10.1786 -10.1771 -10.1740
-10.1717  -0.9949  -0.9920  -0.8662  -0.8595  -0.7961  -0.7653  -0.7568
 -0.7495  -0.7002  -0.6613  -0.6385  -0.6115  -0.5944  -0.5616  -0.5368
 -0.5234  -0.4762  -0.4720  -0.4639  -0.4521  -0.4324  -0.4309  -0.4258
 -0.4187  -0.4105  -0.4066  -0.4027  -0.3842  -0.3777  -0.3657  -0.3589
 -0.3519  -0.3499  -0.3367  -0.3270  -0.2627  -0.2524  -0.2510  -0.2442
 -0.2425  -0.2337

          Ground-State Mulliken Net Atomic Charges

     Atom                 Charge (a.u.)    Spin (a.u.)
  --------------------------------------------------------
      1 C                     1.917585      -0.001455
      2 C                     2.154773       0.033393
      3 C                     0.929688       0.039351
      4 C                     0.180729       0.022230
      5 C                    -1.679478       0.030680
      6 C                    -2.474544       0.068741
      7 O                    -0.289880       0.215032
      8 C                    -1.199130       0.043480
      9 C                     0.037436       0.022545
     10 C                     1.063458       0.043808
     11 C                     0.970611       0.035085
     12 C                    -0.023635       0.029698
     13 C                    -0.753752       0.042203
     14 C                    -1.770120       0.079876
     15 O                    -0.305646       0.227211
     16 C                    -1.719839       0.055408
     17 C                    -0.413820       0.023872
     18 H                     0.243551       0.002335
     19 H                     0.333424       0.000181
     20 H                     0.243612       0.002333
     21 H                     0.309278      -0.002980
     22 H                     0.188009      -0.001355
     23 H                     0.161651      -0.001249
     24 H                     0.366163      -0.003383
     25 H                     0.363160      -0.002871
     26 H                     0.155963      -0.001824
     27 H                     0.010752      -0.002345
  --------------------------------------------------------
  Sum of atomic charges =    -1.000000

                    Cartesian Multipole Moments
 -----------------------------------------------------------------
    Charge (ESU x 10^10)
                -4.8032
    Dipole Moment (Debye)
         X      -3.8471      Y       0.2383      Z      -0.2790
       Tot       3.8645
    Quadrupole Moments (Debye-Ang)
        XX    -104.2026     XY       6.7323     YY    -132.1089
        XZ       0.0081     YZ      -0.6354     ZZ    -106.7247

 Total job time:  617.28s(wall), 4616.43s(cpu)
        *  Thank you very much for using Q-Chem.  Have a nice day.  *
