 Q-Chem 5.4, Q-Chem, Inc., Pleasanton, CA (2021)
 Q-Chem 5.4.0 for Intel X86 EM64T Linux

User input:
--------------------------------------------------------------
$molecule
-1 2
C                  1.0772950000      1.7141060000     -0.6019280000
C                 -0.1569850000      1.2308600000      0.0293630000
C                 -0.4529760000     -0.1071190000      0.1265380000
C                  0.4528020000     -1.1337060000     -0.3977880000
C                  1.6585730000     -0.6636580000     -1.0303690000
C                  1.9412970000      0.6776180000     -1.1329860000
O                  1.3622460000      2.9364980000     -0.6545450000
O                  0.1977990000     -2.3667590000     -0.3050740000
S                  3.4441350000      1.1440650000     -1.9985820000
C                  4.4764050000      2.0142630000     -0.7818630000
C                  4.3053630000      3.3812110000     -0.5744170000
C                  5.4541250000      1.2926820000     -0.1004730000
C                  6.2743790000      1.9531640000      0.8128120000
C                  5.1336970000      4.0314650000      0.3386630000
C                  6.1148850000      3.3216560000      1.0317080000
O                  3.1595430000      2.0900200000     -3.0878140000
O                  4.1743940000     -0.1005710000     -2.3184750000
H                  3.5203960000      3.9013340000     -1.1051840000
H                  5.5688050000      0.2347600000     -0.3012800000
H                  5.0081060000      5.0949780000      0.5116600000
H                  2.3391190000     -1.4036290000     -1.4325900000
H                  7.0395640000      1.4003230000      1.3474070000
C                 -1.7219660000     -0.5858670000      0.7848740000
C                 -1.0870930000      2.2843180000      0.5778290000
H                  6.7540800000      3.8344020000      1.7432900000
H                 -1.7819050000     -0.2580860000      1.8297330000
H                 -1.7565360000     -1.6750050000      0.7562830000
H                 -2.6108670000     -0.1907590000      0.2785800000
H                 -0.6735020000      3.2735460000      0.3827680000
H                 -1.2295700000      2.1717210000      1.6595710000
H                 -2.0808570000      2.2198590000      0.1190490000
$end
$rem
MAX_SCF_CYCLES=200
BASIS  =  6-311++G(d,p)
GUI  =  2
JOB_TYPE  =  SP
METHOD  =  B3LYP
SOLVENT_METHOD = PCM
$end
$pcm
theory = CPCM
$end
$solvent
dielectric 37.219
opticaldielectric 1.43
$end

--------------------------------------------------------------

             Standard Nuclear Orientation (Angstroms)
    I     Atom           X                Y                Z
 ----------------------------------------------------------------
    1      C       1.0772950000     1.7141060000    -0.6019280000
    2      C      -0.1569850000     1.2308600000     0.0293630000
    3      C      -0.4529760000    -0.1071190000     0.1265380000
    4      C       0.4528020000    -1.1337060000    -0.3977880000
    5      C       1.6585730000    -0.6636580000    -1.0303690000
    6      C       1.9412970000     0.6776180000    -1.1329860000
    7      O       1.3622460000     2.9364980000    -0.6545450000
    8      O       0.1977990000    -2.3667590000    -0.3050740000
    9      S       3.4441350000     1.1440650000    -1.9985820000
   10      C       4.4764050000     2.0142630000    -0.7818630000
   11      C       4.3053630000     3.3812110000    -0.5744170000
   12      C       5.4541250000     1.2926820000    -0.1004730000
   13      C       6.2743790000     1.9531640000     0.8128120000
   14      C       5.1336970000     4.0314650000     0.3386630000
   15      C       6.1148850000     3.3216560000     1.0317080000
   16      O       3.1595430000     2.0900200000    -3.0878140000
   17      O       4.1743940000    -0.1005710000    -2.3184750000
   18      H       3.5203960000     3.9013340000    -1.1051840000
   19      H       5.5688050000     0.2347600000    -0.3012800000
   20      H       5.0081060000     5.0949780000     0.5116600000
   21      H       2.3391190000    -1.4036290000    -1.4325900000
   22      H       7.0395640000     1.4003230000     1.3474070000
   23      C      -1.7219660000    -0.5858670000     0.7848740000
   24      C      -1.0870930000     2.2843180000     0.5778290000
   25      H       6.7540800000     3.8344020000     1.7432900000
   26      H      -1.7819050000    -0.2580860000     1.8297330000
   27      H      -1.7565360000    -1.6750050000     0.7562830000
   28      H      -2.6108670000    -0.1907590000     0.2785800000
   29      H      -0.6735020000     3.2735460000     0.3827680000
   30      H      -1.2295700000     2.1717210000     1.6595710000
   31      H      -2.0808570000     2.2198590000     0.1190490000
 ----------------------------------------------------------------

    8   -1240.1432407105      8.80e-06  Convergence criterion met
 Total energy in the final basis set =    -1240.1432407105

                    Orbital Energies (a.u.)
 --------------------------------------------------------------

 Alpha MOs
 -- Occupied --
-89.0529 -19.1210 -19.1184 -19.0887 -19.0873 -10.2398 -10.2302 -10.2110
-10.2017 -10.1917 -10.1890 -10.1871 -10.1854 -10.1847 -10.1826 -10.1786
-10.1780 -10.1554 -10.1553  -8.1167  -6.0797  -6.0784  -6.0775  -1.1124
 -1.0169  -1.0099  -1.0079  -0.8752  -0.8445  -0.7987  -0.7748  -0.7616
 -0.7295  -0.7086  -0.6745  -0.6543  -0.6210  -0.6063  -0.5726  -0.5644
 -0.5366  -0.5067  -0.4994  -0.4838  -0.4749  -0.4586  -0.4534  -0.4508
 -0.4399  -0.4355  -0.4261  -0.4137  -0.4022  -0.3981  -0.3979  -0.3878
 -0.3857  -0.3787  -0.3750  -0.3627  -0.3580  -0.3536  -0.3438  -0.3310
 -0.3162  -0.3041  -0.2975  -0.2754  -0.2698  -0.2564  -0.2510  -0.2449
 -0.1747

 Beta MOs
 -- Occupied --
-89.0529 -19.1209 -19.1184 -19.0830 -19.0802 -10.2386 -10.2289 -10.2110
-10.2005 -10.1916 -10.1890 -10.1871 -10.1854 -10.1847 -10.1800 -10.1782
-10.1774 -10.1555 -10.1554  -8.1167  -6.0797  -6.0784  -6.0776  -1.1122
 -1.0094  -1.0054  -0.9970  -0.8751  -0.8388  -0.7967  -0.7740  -0.7615
 -0.7262  -0.7051  -0.6698  -0.6512  -0.6210  -0.6049  -0.5691  -0.5626
 -0.5355  -0.5048  -0.4971  -0.4833  -0.4746  -0.4565  -0.4531  -0.4491
 -0.4353  -0.4331  -0.4212  -0.4095  -0.3964  -0.3948  -0.3901  -0.3872
 -0.3822  -0.3761  -0.3618  -0.3578  -0.3535  -0.3518  -0.3427  -0.3304
 -0.3146  -0.3031  -0.2799  -0.2703  -0.2634  -0.2507  -0.2414  -0.2394

          Ground-State Mulliken Net Atomic Charges

     Atom                 Charge (a.u.)    Spin (a.u.)
  --------------------------------------------------------
      1 C                    -1.010294       0.056614
      2 C                     0.133740       0.002430
      3 C                     0.976856       0.070739
      4 C                    -0.933943       0.096669
      5 C                     0.441079       0.183001
      6 C                    -0.131169       0.119493
      7 O                    -0.404231       0.219789
      8 O                    -0.476879       0.261563
      9 S                     0.379584      -0.024768
     10 C                     0.333418       0.003509
     11 C                    -0.304398       0.016100
     12 C                     0.090352       0.007157
     13 C                    -0.457452      -0.001534
     14 C                    -0.396173      -0.005290
     15 C                    -0.374158       0.003838
     16 O                    -0.208376       0.005454
     17 O                    -0.259121      -0.002528
     18 H                     0.283099      -0.000707
     19 H                     0.257407       0.000927
     20 H                     0.228958       0.000064
     21 H                     0.262934      -0.015778
     22 H                     0.225842       0.000045
     23 C                    -0.437100       0.009930
     24 C                    -0.465699      -0.009888
     25 H                     0.205488      -0.000206
     26 H                     0.168222       0.001193
     27 H                     0.182959      -0.002082
     28 H                     0.168528       0.001232
     29 H                     0.187469      -0.001367
     30 H                     0.166469       0.002202
     31 H                     0.166586       0.002199
  --------------------------------------------------------
  Sum of atomic charges =    -1.000000

                    Cartesian Multipole Moments
 -----------------------------------------------------------------
    Charge (ESU x 10^10)
                -4.8032
    Dipole Moment (Debye)
         X      -7.7791      Y       0.0280      Z      10.1136
       Tot      12.7593
    Quadrupole Moments (Debye-Ang)
        XX    -131.1327     XY      -3.7124     YY    -149.0508
        XZ      34.7821     YZ      14.2313     ZZ    -145.4708

 Total job time:  66.54s(wall), 492.20s(cpu)
        *  Thank you very much for using Q-Chem.  Have a nice day.  *
