 Q-Chem 5.4, Q-Chem, Inc., Pleasanton, CA (2021)
 Q-Chem 5.4.0 for Intel X86 EM64T Linux

User input:
--------------------------------------------------------------
$molecule
-2 1
C                  6.8870930000     -1.6443580000     -0.2498260000
C                  7.4529360000     -0.6900720000     -1.0691260000
C                  6.6313090000      0.3240520000     -1.6392040000
C                  5.2796360000      0.3384310000     -1.3642440000
C                  4.6630770000     -0.6266950000     -0.5262900000
C                  5.5005240000     -1.6603980000      0.0548300000
C                  4.9855290000     -2.6986180000      0.9249840000
C                  3.5658830000     -2.6115300000      1.1613490000
C                  2.7213860000     -1.5746650000      0.5793670000
C                  3.2363630000     -0.5422830000     -0.2867500000
C                  2.9571840000     -3.5841940000      2.0038310000
C                  1.6133020000     -3.5391580000      2.2550530000
C                  0.7583240000     -2.5426240000      1.7047320000
C                  1.3387620000     -1.5943910000      0.8862370000
O                  5.7309870000     -3.6138600000      1.4383650000
O                  2.4956830000      0.3755640000     -0.8030870000
H                  7.4850940000     -2.4308810000      0.2005860000
H                  4.6248140000      1.0972080000     -1.7822500000
H                  3.6151290000     -4.3391640000      2.4186570000
H                  0.7352860000     -0.8099360000      0.4383450000
I                  0.7129270000     -5.0259670000      3.5375840000
H                  8.5211390000     -0.7101950000     -1.2800220000
H                  7.0690680000      1.0818410000     -2.2872720000
H                 -0.3034350000     -2.5321160000      1.9216110000
$end
$rem
MAX_SCF_CYCLES=200
BASIS  =  6-311++G(d,p)
GUI  =  2
JOB_TYPE  =  SP
METHOD  =  B3LYP
SOLVENT_METHOD = PCM
$end
$pcm
theory = CPCM
$end
$solvent
dielectric 37.219
opticaldielectric 1.43
$end

--------------------------------------------------------------

             Standard Nuclear Orientation (Angstroms)
    I     Atom           X                Y                Z
 ----------------------------------------------------------------
    1      C       6.8870930000    -1.6443580000    -0.2498260000
    2      C       7.4529360000    -0.6900720000    -1.0691260000
    3      C       6.6313090000     0.3240520000    -1.6392040000
    4      C       5.2796360000     0.3384310000    -1.3642440000
    5      C       4.6630770000    -0.6266950000    -0.5262900000
    6      C       5.5005240000    -1.6603980000     0.0548300000
    7      C       4.9855290000    -2.6986180000     0.9249840000
    8      C       3.5658830000    -2.6115300000     1.1613490000
    9      C       2.7213860000    -1.5746650000     0.5793670000
   10      C       3.2363630000    -0.5422830000    -0.2867500000
   11      C       2.9571840000    -3.5841940000     2.0038310000
   12      C       1.6133020000    -3.5391580000     2.2550530000
   13      C       0.7583240000    -2.5426240000     1.7047320000
   14      C       1.3387620000    -1.5943910000     0.8862370000
   15      O       5.7309870000    -3.6138600000     1.4383650000
   16      O       2.4956830000     0.3755640000    -0.8030870000
   17      H       7.4850940000    -2.4308810000     0.2005860000
   18      H       4.6248140000     1.0972080000    -1.7822500000
   19      H       3.6151290000    -4.3391640000     2.4186570000
   20      H       0.7352860000    -0.8099360000     0.4383450000
   21      I       0.7129270000    -5.0259670000     3.5375840000
   22      H       8.5211390000    -0.7101950000    -1.2800220000
   23      H       7.0690680000     1.0818410000    -2.2872720000
   24      H      -0.3034350000    -2.5321160000     1.9216110000
 ----------------------------------------------------------------

    9   -7608.1166896281      7.75e-06  Convergence criterion met
 Total energy in the final basis set =    -7608.1166896281

                    Orbital Energies (a.u.)
 --------------------------------------------------------------

 Alpha MOs
 -- Occupied --
********-176.2861-165.6896-165.6878-165.6878 -35.7825 -31.2751 -31.2700
-31.2700 -22.9257 -22.9245 -22.9245 -22.9210 -22.9210 -19.0275 -19.0274
-10.2023 -10.1808 -10.1804 -10.1618 -10.1603 -10.1567 -10.1524 -10.1519
-10.1492 -10.1490 -10.1459 -10.1431 -10.1431 -10.1425  -6.3318  -4.7426
 -4.7302  -4.7302  -2.0085  -2.0048  -2.0046  -1.9940  -1.9939  -0.9463
 -0.9430  -0.8396  -0.8269  -0.7616  -0.7381  -0.7267  -0.7153  -0.6526
 -0.6347  -0.6084  -0.5826  -0.5643  -0.5310  -0.5109  -0.4909  -0.4459
 -0.4451  -0.4319  -0.4194  -0.4072  -0.4009  -0.3885  -0.3793  -0.3764
 -0.3697  -0.3525  -0.3483  -0.3331  -0.3252  -0.3156  -0.3144  -0.3043
 -0.2714  -0.2605  -0.2409  -0.2317  -0.2285  -0.2174  -0.2107  -0.2032
 -0.1134

          Ground-State Mulliken Net Atomic Charges

     Atom                 Charge (a.u.)
  ----------------------------------------
      1 C                    -0.004512
      2 C                    -0.518515
      3 C                    -0.514036
      4 C                     0.001543
      5 C                     0.206691
      6 C                     0.245701
      7 C                    -0.287943
      8 C                     0.188495
      9 C                     0.125824
     10 C                    -0.353645
     11 C                     0.034520
     12 C                    -0.048069
     13 C                    -0.621487
     14 C                    -0.109053
     15 O                    -0.679887
     16 O                    -0.677297
     17 H                     0.146680
     18 H                     0.147953
     19 H                     0.131546
     20 H                     0.155295
     21 I                    -0.094224
     22 H                     0.176626
     23 H                     0.176666
     24 H                     0.171127
  ----------------------------------------
  Sum of atomic charges =    -2.000000

                    Cartesian Multipole Moments
 -----------------------------------------------------------------
    Charge (ESU x 10^10)
                -9.6064
    Dipole Moment (Debye)
         X     -37.3266      Y      18.2321      Z      -5.4762
       Tot      41.9008
    Quadrupole Moments (Debye-Ang)
        XX    -306.5011     XY      79.8141     YY    -202.6171
        XZ     -22.0225     YZ      33.5476     ZZ    -153.7671

 Total job time:  178.20s(wall), 323.91s(cpu)
        *  Thank you very much for using Q-Chem.  Have a nice day.  *
