 Gaussian 16, Revision A.03,
 Gaussian 16:  ES64L-G16RevA.03 25-Dec-2016

 ----------------------------------------------------------------
 #P UB3LYP/6-311++G(d,p) SCRF=(PCM,Solvent=n,n-DiMethylFormamide)
 ----------------------------------------------------------------

 ------------------
 Quinone PCM in DMF
 ------------------
 Symbolic Z-matrix:
 Charge =  0 Multiplicity = 1

                         Standard orientation:
 ---------------------------------------------------------------------
 Center     Atomic      Atomic             Coordinates (Angstroms)
 Number     Number       Type             X           Y           Z
 ---------------------------------------------------------------------
      1          6           0       -1.176953   -0.668837    1.102088
      2          6           0       -2.500775   -1.341915    1.151917
      3          6           0       -3.538258   -0.918126    0.419438
      4          6           0       -3.407168    0.252565   -0.481670
      5          6           0       -2.086061    0.924175   -0.538053
      6          6           0       -1.024084    0.481970    0.157553
      7          8           0       -0.271139   -1.025644    1.834863
      8          8           0       -4.345677    0.647319   -1.153602
      9          6           0        1.594913    0.512182   -0.055546
     10          6           0        2.676520    1.108682    0.610308
     11          6           0        1.795815   -0.658267   -0.818727
     12          6           0        3.086756   -1.195537   -0.860986
     13          6           0        3.943222    0.544176    0.570974
     14          6           0        4.147271   -0.618172   -0.169063
     15          1           0       -2.569345   -2.181792    1.834730
     16          1           0       -4.513321   -1.391447    0.452614
     17          1           0       -2.015635    1.790756   -1.186597
     18          1           0        2.496441    2.018729    1.168783
     19          1           0        3.262781   -2.083933   -1.458278
     20          1           0        4.762867    1.007099    1.107848
     21          1           0        5.131495   -1.070620   -0.217365
     22          6           0        0.291158    1.232099    0.075211
     23          8           0        0.248704    2.446909    0.147722
     24          6           0        0.712174   -1.333531   -1.629386
     25          1           0        0.107667   -0.621343   -2.193765
     26          1           0        0.035807   -1.919127   -0.999048
     27          1           0        1.158951   -2.025779   -2.345125
 ---------------------------------------------------------------------

 SCF Done:  E(UB3LYP) =  -765.361563512     A.U. after   15 cycles

 The electronic state is 1-A.
 Alpha  occ. eigenvalues --  -19.15417 -19.15323 -19.14143 -10.30151 -10.29747
 Alpha  occ. eigenvalues --  -10.29404 -10.23322 -10.22707 -10.22115 -10.21998
 Alpha  occ. eigenvalues --  -10.20772 -10.20153 -10.19179 -10.19079 -10.18566
 Alpha  occ. eigenvalues --  -10.18534 -10.17697  -1.08682  -1.08222  -1.07579
 Alpha  occ. eigenvalues --   -0.88133  -0.87639  -0.81418  -0.79059  -0.77589
 Alpha  occ. eigenvalues --   -0.72707  -0.70575  -0.67830  -0.63754  -0.62692
 Alpha  occ. eigenvalues --   -0.61050  -0.56980  -0.53823  -0.52883  -0.51552
 Alpha  occ. eigenvalues --   -0.49818  -0.48905  -0.48161  -0.46583  -0.46066
 Alpha  occ. eigenvalues --   -0.45944  -0.44955  -0.44538  -0.43758  -0.42992
 Alpha  occ. eigenvalues --   -0.42474  -0.42015  -0.41094  -0.39817  -0.37339
 Alpha  occ. eigenvalues --   -0.36855  -0.35880  -0.32350  -0.31532  -0.30559
 Alpha  occ. eigenvalues --   -0.30135  -0.27824  -0.27041  -0.26388
 Alpha virt. eigenvalues --   -0.14904  -0.08618  -0.04529  -0.02579  -0.01579
 Alpha virt. eigenvalues --   -0.00591   0.00225   0.01043   0.01124   0.01588
 Alpha virt. eigenvalues --    0.01953   0.02940   0.03547   0.03607   0.04560

  Beta  occ. eigenvalues --  -19.15417 -19.15323 -19.14143 -10.30151 -10.29747
  Beta  occ. eigenvalues --  -10.29404 -10.23322 -10.22707 -10.22115 -10.21998
  Beta  occ. eigenvalues --  -10.20772 -10.20153 -10.19179 -10.19079 -10.18566
  Beta  occ. eigenvalues --  -10.18534 -10.17697  -1.08682  -1.08222  -1.07579
  Beta  occ. eigenvalues --   -0.88133  -0.87639  -0.81418  -0.79059  -0.77589
  Beta  occ. eigenvalues --   -0.72707  -0.70575  -0.67830  -0.63754  -0.62692
  Beta  occ. eigenvalues --   -0.61050  -0.56980  -0.53823  -0.52883  -0.51552
  Beta  occ. eigenvalues --   -0.49818  -0.48905  -0.48161  -0.46583  -0.46066
  Beta  occ. eigenvalues --   -0.45944  -0.44955  -0.44538  -0.43758  -0.42992
  Beta  occ. eigenvalues --   -0.42474  -0.42015  -0.41094  -0.39817  -0.37339
  Beta  occ. eigenvalues --   -0.36855  -0.35880  -0.32350  -0.31532  -0.30559
  Beta  occ. eigenvalues --   -0.30135  -0.27824  -0.27041  -0.26388
  Beta virt. eigenvalues --   -0.14904  -0.08618  -0.04529  -0.02579  -0.01579
  Beta virt. eigenvalues --   -0.00591   0.00225   0.01043   0.01124   0.01588
  Beta virt. eigenvalues --    0.01953   0.02940   0.03547   0.03607   0.04560

 Mulliken charges and spin densities:
               1          2
     1  C   -1.067095  -0.000000
     2  C   -0.061652  -0.000000
     3  C    0.213818   0.000000
     4  C   -0.450023  -0.000000
     5  C    0.103587   0.000000
     6  C    1.613842   0.000000
     7  O   -0.203256   0.000000
     8  O   -0.271243   0.000000
     9  C    0.601207  -0.000000
    10  C   -0.090985   0.000000
    11  C    0.478524  -0.000000
    12  C   -0.147055   0.000000
    13  C   -0.588751  -0.000000
    14  C   -0.246640   0.000000
    15  H    0.256994   0.000000
    16  H    0.254493   0.000000
    17  H    0.275873  -0.000000
    18  H    0.230282   0.000000
    19  H    0.179311   0.000000
    20  H    0.196628  -0.000000
    21  H    0.199362   0.000000
    22  C   -1.119875  -0.000000
    23  O   -0.241626   0.000000
    24  C   -0.676628  -0.000000
    25  H    0.183384   0.000000
    26  H    0.194535   0.000000
    27  H    0.182989  -0.000000
 Sum of Mulliken charges =  -0.00000   0.00000

 Dipole moment (field-independent basis, Debye):
    X=              0.9591    Y=             -4.4300    Z=             -0.7135  Tot=              4.5884
 Quadrupole moment (field-independent basis, Debye-Ang):
   XX=            -94.2181   YY=           -102.1149   ZZ=           -100.7330
   XY=              6.5411   XZ=             -9.7499   YZ=              4.7767

 Normal termination of Gaussian 16 at Wed Jan 24 22:50:48 2024.
