 Gaussian 16, Revision A.03,
 Gaussian 16:  ES64L-G16RevA.03 25-Dec-2016

 ----------------------------------------------------------------------
 #P UB3LYP/6-311++G(d,p) nosym opt freq SCRF=(PCM,Solvent=n,n-DiMethylF
 ormamide)
 ----------------------------------------------------------------------

 --------
 Oxidized
 --------
 Symbolic Z-matrix:
 Charge =  0 Multiplicity = 1

 SCF Done:  E(UB3LYP) =  -2019.71008488     A.U. after   17 cycles
 SCF Done:  E(UB3LYP) =  -2019.71047585     A.U. after   18 cycles
 SCF Done:  E(UB3LYP) =  -2019.71028138     A.U. after   18 cycles
 SCF Done:  E(UB3LYP) =  -2019.71115878     A.U. after   15 cycles
 SCF Done:  E(UB3LYP) =  -2019.71113148     A.U. after   17 cycles
 SCF Done:  E(UB3LYP) =  -2019.71125105     A.U. after   15 cycles
 SCF Done:  E(UB3LYP) =  -2019.71124650     A.U. after   14 cycles
 SCF Done:  E(UB3LYP) =  -2019.71125573     A.U. after   14 cycles
 SCF Done:  E(UB3LYP) =  -2019.71126088     A.U. after   13 cycles
 SCF Done:  E(UB3LYP) =  -2019.71126241     A.U. after   13 cycles
 SCF Done:  E(UB3LYP) =  -2019.71126773     A.U. after   14 cycles
 SCF Done:  E(UB3LYP) =  -2019.71126876     A.U. after   13 cycles
 SCF Done:  E(UB3LYP) =  -2019.71127105     A.U. after   14 cycles
 SCF Done:  E(UB3LYP) =  -2019.71127267     A.U. after   15 cycles
 SCF Done:  E(UB3LYP) =  -2019.71127317     A.U. after   12 cycles
 SCF Done:  E(UB3LYP) =  -2019.71127352     A.U. after   13 cycles
 SCF Done:  E(UB3LYP) =  -2019.71127357     A.U. after   12 cycles
 SCF Done:  E(UB3LYP) =  -2019.71127358     A.U. after   11 cycles
 SCF Done:  E(UB3LYP) =  -2019.71127358     A.U. after   11 cycles
 Optimization completed.
    -- Stationary point found.
 Normal termination of Gaussian 16 at Sat Feb 10 23:17:38 2024.

 ----------------------------------------------------------------------
 #P Geom=AllCheck Guess=TCheck SCRF=Check GenChk UB3LYP/6-311++G(d,p) F
 req
 ----------------------------------------------------------------------

 Structure from the checkpoint file:  "073.chk"
 --------
 Oxidized
 --------
 Charge =  0 Multiplicity = 1

                          Input orientation:
 ---------------------------------------------------------------------
 Center     Atomic      Atomic             Coordinates (Angstroms)
 Number     Number       Type             X           Y           Z
 ---------------------------------------------------------------------
      1          6           0        0.923600    1.111065   -1.375063
      2          6           0       -0.509773    1.170196   -1.874942
      3          6           0       -1.439541    0.514519   -1.151434
      4          6           0       -1.075667   -0.349104   -0.003201
      5          6           0        0.302835   -0.216018    0.620970
      6          6           0        1.202179    0.545832   -0.033565
      7          8           0        1.823369    1.533764   -2.074434
      8          8           0       -1.866484   -1.153429    0.449640
      9         16           0        2.906129    0.825165    0.596969
     10          6           0        3.225384    2.577687    0.353066
     11          6           0        4.148853    2.974686   -0.610220
     12          6           0        2.579710    3.493924    1.183325
     13          6           0        2.862523    4.848941    1.028411
     14          6           0        4.432263    4.332020   -0.742656
     15          6           0        3.787654    5.265250    0.070148
     16          8           0        3.838452    0.039554   -0.223761
     17          8           0        2.873192    0.591243    2.048831
     18          1           0        4.630241    2.237285   -1.238157
     19          1           0        1.878085    3.161778    1.938225
     20          1           0        5.153437    4.658838   -1.482041
     21          1           0        2.368139    5.575186    1.662138
     22          1           0        4.008477    6.320327   -0.041688
     23         16           0       -3.219279    0.498968   -1.611555
     24          6           0       -4.116096    0.754735   -0.074113
     25          6           0       -4.111385    2.028362    0.494849
     26          6           0       -4.840172   -0.299081    0.477029
     27          6           0       -5.581271   -0.066076    1.633172
     28          6           0       -4.845450    2.241653    1.659184
     29          6           0       -5.579540    1.197981    2.224164
     30          1           0       -3.555986    2.838420    0.039178
     31          1           0       -4.820837   -1.274711    0.010682
     32          1           0       -6.156454   -0.872420    2.072012
     33          1           0       -4.850970    3.223601    2.116568
     34          1           0       -6.154064    1.371307    3.126589
     35          8           0       -3.545066   -0.827997   -2.152854
     36          8           0       -3.458021    1.682975   -2.451099
     37          6           0       -0.698552    1.957658   -3.133527
     38          6           0        0.480988   -0.970024    1.901167
     39          1           0        0.251623    2.024431   -3.659771
     40          1           0       -1.017891    2.974944   -2.884430
     41          1           0       -1.459419    1.527843   -3.778079
     42          1           0       -0.244933   -1.779865    1.942920
     43          1           0        0.287047   -0.303110    2.747878
     44          1           0        1.488802   -1.356847    2.015988
 ---------------------------------------------------------------------

 SCF Done:  E(UB3LYP) =  -2019.71127358     A.U. after    2 cycles

 Alpha  occ. eigenvalues --  -89.07671 -89.07665 -19.16411 -19.16403 -19.13982
 Alpha  occ. eigenvalues --  -19.13975 -19.13757 -19.13749 -10.31578 -10.31570
 Alpha  occ. eigenvalues --  -10.25911 -10.25910 -10.25331 -10.25327 -10.22915
 Alpha  occ. eigenvalues --  -10.22914 -10.20867 -10.20862 -10.20621 -10.20621
 Alpha  occ. eigenvalues --  -10.19989 -10.19988 -10.19837 -10.19832 -10.19771
 Alpha  occ. eigenvalues --  -10.19768 -10.18646 -10.18637  -8.14026  -8.14019
 Alpha  occ. eigenvalues --   -6.10283  -6.10277  -6.10223  -6.10217  -6.10129
 Alpha  occ. eigenvalues --   -6.10123  -1.13365  -1.13340  -1.10049  -1.09875
 Alpha  occ. eigenvalues --   -1.02793  -1.02786  -0.89949  -0.89090  -0.89046
 Alpha  occ. eigenvalues --   -0.85359  -0.79922  -0.79862  -0.77688  -0.77677
 Alpha  occ. eigenvalues --   -0.76437  -0.76231  -0.71901  -0.68859  -0.68384
 Alpha  occ. eigenvalues --   -0.65091  -0.63568  -0.63556  -0.61465  -0.61082
 Alpha  occ. eigenvalues --   -0.59588  -0.57247  -0.55830  -0.55618  -0.52964
 Alpha  occ. eigenvalues --   -0.52351  -0.50221  -0.49893  -0.49358  -0.49280
 Alpha  occ. eigenvalues --   -0.48865  -0.48468  -0.48137  -0.47015  -0.46825
 Alpha  occ. eigenvalues --   -0.46606  -0.46578  -0.45443  -0.45063  -0.45044
 Alpha  occ. eigenvalues --   -0.44699  -0.43513  -0.43347  -0.42451  -0.41742
 Alpha  occ. eigenvalues --   -0.40852  -0.39915  -0.39853  -0.39132  -0.39112
 Alpha  occ. eigenvalues --   -0.37423  -0.37418  -0.36528  -0.36378  -0.35371
 Alpha  occ. eigenvalues --   -0.35265  -0.33650  -0.33445  -0.32744  -0.32396
 Alpha  occ. eigenvalues --   -0.32358  -0.31875  -0.31018  -0.29337  -0.28536
 Alpha  occ. eigenvalues --   -0.28432  -0.28176  -0.28026
 Alpha virt. eigenvalues --   -0.15505  -0.07779  -0.05944  -0.05220  -0.03817
 Alpha virt. eigenvalues --   -0.03608  -0.03127  -0.01233  -0.00386   0.00227
 Alpha virt. eigenvalues --    0.00376   0.00920   0.01429   0.01767   0.02046

  Beta  occ. eigenvalues --  -89.07671 -89.07665 -19.16411 -19.16403 -19.13982
  Beta  occ. eigenvalues --  -19.13975 -19.13757 -19.13749 -10.31578 -10.31570
  Beta  occ. eigenvalues --  -10.25911 -10.25910 -10.25331 -10.25327 -10.22915
  Beta  occ. eigenvalues --  -10.22914 -10.20867 -10.20862 -10.20621 -10.20621
  Beta  occ. eigenvalues --  -10.19989 -10.19988 -10.19837 -10.19832 -10.19771
  Beta  occ. eigenvalues --  -10.19768 -10.18646 -10.18637  -8.14026  -8.14019
  Beta  occ. eigenvalues --   -6.10283  -6.10277  -6.10223  -6.10217  -6.10129
  Beta  occ. eigenvalues --   -6.10123  -1.13365  -1.13340  -1.10049  -1.09875
  Beta  occ. eigenvalues --   -1.02793  -1.02786  -0.89949  -0.89090  -0.89046
  Beta  occ. eigenvalues --   -0.85359  -0.79922  -0.79862  -0.77688  -0.77677
  Beta  occ. eigenvalues --   -0.76437  -0.76231  -0.71901  -0.68859  -0.68384
  Beta  occ. eigenvalues --   -0.65091  -0.63568  -0.63556  -0.61465  -0.61082
  Beta  occ. eigenvalues --   -0.59588  -0.57247  -0.55830  -0.55618  -0.52964
  Beta  occ. eigenvalues --   -0.52351  -0.50221  -0.49893  -0.49358  -0.49280
  Beta  occ. eigenvalues --   -0.48865  -0.48468  -0.48137  -0.47015  -0.46825
  Beta  occ. eigenvalues --   -0.46606  -0.46578  -0.45443  -0.45063  -0.45044
  Beta  occ. eigenvalues --   -0.44699  -0.43513  -0.43347  -0.42451  -0.41742
  Beta  occ. eigenvalues --   -0.40852  -0.39915  -0.39853  -0.39132  -0.39112
  Beta  occ. eigenvalues --   -0.37423  -0.37418  -0.36528  -0.36378  -0.35371
  Beta  occ. eigenvalues --   -0.35265  -0.33650  -0.33445  -0.32744  -0.32396
  Beta  occ. eigenvalues --   -0.32358  -0.31875  -0.31018  -0.29337  -0.28536
  Beta  occ. eigenvalues --   -0.28432  -0.28176  -0.28026
  Beta virt. eigenvalues --   -0.15505  -0.07779  -0.05944  -0.05220  -0.03817
  Beta virt. eigenvalues --   -0.03608  -0.03127  -0.01233  -0.00386   0.00227
  Beta virt. eigenvalues --    0.00376   0.00920   0.01429   0.01767   0.02046

 Mulliken charges and spin densities:
               1          2
     1  C   -0.985368  -0.000000
     2  C    0.553850   0.000000
     3  C    0.181150   0.000000
     4  C   -0.979480   0.000000
     5  C    0.547636  -0.000000
     6  C    0.186552  -0.000000
     7  O   -0.144842   0.000000
     8  O   -0.146332  -0.000000
     9  S    0.517789  -0.000000
    10  C    0.114601  -0.000000
    11  C   -0.130312   0.000000
    12  C    0.080523  -0.000000
    13  C   -0.483332   0.000000
    14  C   -0.402354  -0.000000
    15  C   -0.265965   0.000000
    16  O   -0.160813  -0.000000
    17  O   -0.133062  -0.000000
    18  H    0.262349   0.000000
    19  H    0.264161   0.000000
    20  H    0.223309  -0.000000
    21  H    0.224066  -0.000000
    22  H    0.203713  -0.000000
    23  S    0.505659   0.000000
    24  C    0.127564   0.000000
    25  C    0.086457  -0.000000
    26  C   -0.137013  -0.000000
    27  C   -0.405596  -0.000000
    28  C   -0.485052   0.000000
    29  C   -0.264837   0.000000
    30  H    0.263549  -0.000000
    31  H    0.263033  -0.000000
    32  H    0.223252  -0.000000
    33  H    0.223876   0.000000
    34  H    0.203789  -0.000000
    35  O   -0.160113  -0.000000
    36  O   -0.133669  -0.000000
    37  C   -0.581571  -0.000000
    38  C   -0.582945   0.000000
    39  H    0.206829  -0.000000
    40  H    0.236315  -0.000000
    41  H    0.219468   0.000000
    42  H    0.206687  -0.000000
    43  H    0.237059   0.000000
    44  H    0.219418  -0.000000
 Sum of Mulliken charges =  -0.00000  -0.00000

 Dipole moment (field-independent basis, Debye):
    X=             -2.1502    Y=              7.4527    Z=              4.8058  Tot=              9.1248
 Quadrupole moment (field-independent basis, Debye-Ang):
   XX=           -190.6912   YY=           -145.7957   ZZ=           -182.8940
   XY=              9.8967   XZ=            -34.4567   YZ=              2.7839

  Exact polarizability: 423.033  67.405 404.688 -78.863 -33.996 379.950
 Approx polarizability: 466.784  83.109 492.740-117.961 -44.948 455.757

                      1                      2                      3
                      A                      A                      A
 Frequencies --     11.1526                17.8102                22.8170
 Red. masses --      6.0483                 4.6734                 2.9387
 Frc consts  --      0.0004                 0.0009                 0.0009
 IR Inten    --      1.4586                 0.2915                 0.6531

                      4                      5                      6
                      A                      A                      A
 Frequencies --     34.4686                39.8058                41.5543
 Red. masses --      6.1972                 3.7380                 3.7689
 Frc consts  --      0.0043                 0.0035                 0.0038
 IR Inten    --      2.0197                 0.2758                 0.4813

                      7                      8                      9
                      A                      A                      A
 Frequencies --     50.4220                69.1701                76.2655
 Red. masses --      1.8792                 1.5305                 3.3660
 Frc consts  --      0.0028                 0.0043                 0.0115
 IR Inten    --      5.2033                 3.4626                 0.7213

                     10                     11                     12
                      A                      A                      A
 Frequencies --     81.7366                91.9031               135.9951
 Red. masses --      2.4719                 6.2672                 5.2124
 Frc consts  --      0.0097                 0.0312                 0.0568
 IR Inten    --      8.8637                 2.6414                 3.8569

                     13                     14                     15
                      A                      A                      A
 Frequencies --    161.5913               168.5913               172.3129
 Red. masses --      6.4776                 8.8103                 6.4789
 Frc consts  --      0.0997                 0.1475                 0.1133
 IR Inten    --      8.7352                 0.0354                 2.9785

                     16                     17                     18
                      A                      A                      A
 Frequencies --    179.7202               193.5657               217.6875
 Red. masses --      6.5936                 7.8708                 5.1865
 Frc consts  --      0.1255                 0.1738                 0.1448
 IR Inten    --      2.3539                12.8190                 2.3794

                     19                     20                     21
                      A                      A                      A
 Frequencies --    231.4222               236.6811               270.8283
 Red. masses --      6.8515                 6.1961                 9.1060
 Frc consts  --      0.2162                 0.2045                 0.3935
 IR Inten    --      0.2039                 0.3570                 0.0333

                     22                     23                     24
                      A                      A                      A
 Frequencies --    289.8542               305.7893               309.6323
 Red. masses --      7.9853                 8.3585                 8.4325
 Frc consts  --      0.3953                 0.4605                 0.4763
 IR Inten    --      0.2125                 5.0709                 7.0106

                     25                     26                     27
                      A                      A                      A
 Frequencies --    337.7478               373.5321               377.8390
 Red. masses --      6.2861                 4.0783                 5.1471
 Frc consts  --      0.4225                 0.3353                 0.4329
 IR Inten    --      3.2107                 6.5549                 2.7932

                     28                     29                     30
                      A                      A                      A
 Frequencies --    396.5210               399.3817               409.9876
 Red. masses --      3.9390                 4.5055                 2.8816
 Frc consts  --      0.3649                 0.4234                 0.2854
 IR Inten    --     21.0825                 1.9668                 1.2463

                     31                     32                     33
                      A                      A                      A
 Frequencies --    410.3023               414.9659               423.7666
 Red. masses --      2.8765                 6.3241                 7.6354
 Frc consts  --      0.2853                 0.6416                 0.8079
 IR Inten    --      0.4951                 0.7156                71.0237

                     34                     35                     36
                      A                      A                      A
 Frequencies --    460.2027               466.3269               484.0189
 Red. masses --      5.3647                 6.1985                 6.8853
 Frc consts  --      0.6694                 0.7942                 0.9504
 IR Inten    --      0.1385                54.9467                20.2814

                     37                     38                     39
                      A                      A                      A
 Frequencies --    489.7059               512.0760               535.1710
 Red. masses --      9.0273                 7.8847                10.2896
 Frc consts  --      1.2755                 1.2182                 1.7363
 IR Inten    --     44.1085                 6.8880               125.2667

                     40                     41                     42
                      A                      A                      A
 Frequencies --    577.9791               586.6938               587.0142
 Red. masses --      6.9275                 6.7304                 8.5832
 Frc consts  --      1.3635                 1.3649                 1.7426
 IR Inten    --      6.8094               195.1934               494.9552

                     43                     44                     45
                      A                      A                      A
 Frequencies --    624.8450               624.8653               698.4560
 Red. masses --      6.4613                 6.4630                 2.0989
 Frc consts  --      1.4863                 1.4868                 0.6033
 IR Inten    --      0.6067                 0.1887               101.9728

                     46                     47                     48
                      A                      A                      A
 Frequencies --    698.8059               699.7667               712.2511
 Red. masses --      2.1002                 5.3079                 7.0384
 Frc consts  --      0.6042                 1.5314                 2.1037
 IR Inten    --     32.8374                 0.4461                62.7767

                     49                     50                     51
                      A                      A                      A
 Frequencies --    720.2625               733.8952               749.8610
 Red. masses --      5.6293                 6.7917                 3.2448
 Frc consts  --      1.7206                 2.1552                 1.0750
 IR Inten    --      1.3380               117.0956                74.5998

                     52                     53                     54
                      A                      A                      A
 Frequencies --    761.6082               766.6161               799.0636
 Red. masses --      1.6613                 2.0599                 5.7207
 Frc consts  --      0.5678                 0.7133                 2.1521
 IR Inten    --      8.4960                71.9851                27.3173

                     55                     56                     57
                      A                      A                      A
 Frequencies --    800.9865               851.6052               851.7867
 Red. masses --      8.8348                 1.2481                 1.2478
 Frc consts  --      3.3396                 0.5333                 0.5334
 IR Inten    --     21.4512                 0.0945                 0.0201

                     58                     59                     60
                      A                      A                      A
 Frequencies --    890.8804               944.9446               945.1259
 Red. masses --      3.3090                 1.3350                 1.3363
 Frc consts  --      1.5474                 0.7023                 0.7033
 IR Inten    --     85.7287                 1.6089                 1.3015

                     61                     62                     63
                      A                      A                      A
 Frequencies --    997.6485               997.8639              1011.6483
 Red. masses --      1.3903                 1.3907                 6.0935
 Frc consts  --      0.8153                 0.8159                 3.6743
 IR Inten    --      0.3537                 0.4015                20.4341

                     64                     65                     66
                      A                      A                      A
 Frequencies --   1011.9441              1020.9849              1021.0604
 Red. masses --      6.0775                 1.3219                 1.3223
 Frc consts  --      3.6668                 0.8119                 0.8122
 IR Inten    --     11.4664                 0.0532                 0.0587

                     67                     68                     69
                      A                      A                      A
 Frequencies --   1029.4776              1031.1517              1034.1177
 Red. masses --      1.9425                 2.1153                 3.1607
 Frc consts  --      1.2130                 1.3251                 1.9915
 IR Inten    --     36.8362                18.5932                65.0200

                     70                     71                     72
                      A                      A                      A
 Frequencies --   1036.6195              1051.2029              1056.0648
 Red. masses --      2.9563                 2.6986                 1.9360
 Frc consts  --      1.8717                 1.7569                 1.2722
 IR Inten    --      7.6433               102.2089                 1.5432

                     73                     74                     75
                      A                      A                      A
 Frequencies --   1061.5208              1067.3405              1086.0952
 Red. masses --      3.1734                 2.7323                 3.5174
 Frc consts  --      2.1069                 1.8339                 2.4446
 IR Inten    --     20.0422               141.0946                 1.3015

                     76                     77                     78
                      A                      A                      A
 Frequencies --   1099.7893              1100.7811              1103.0979
 Red. masses --      1.7999                 1.8458                 2.9498
 Frc consts  --      1.2827                 1.3177                 2.1148
 IR Inten    --     91.3467                50.9439               132.1295

                     79                     80                     81
                      A                      A                      A
 Frequencies --   1104.8029              1181.7018              1182.5383
 Red. masses --      3.5447                 1.1104                 1.1118
 Frc consts  --      2.5491                 0.9136                 0.9160
 IR Inten    --    200.5970                 0.3913                 0.3270

                     82                     83                     84
                      A                      A                      A
 Frequencies --   1194.8456              1196.0796              1197.3811
 Red. masses --      1.3075                 2.1551                 1.3566
 Frc consts  --      1.0998                 1.8165                 1.1459
 IR Inten    --     38.6556               146.3671                51.6480

                     85                     86                     87
                      A                      A                      A
 Frequencies --   1231.0841              1235.4356              1241.4079
 Red. masses --     12.3073                18.2123                11.8647
 Frc consts  --     10.9898                16.3778                10.7730
 IR Inten    --    325.7109               429.6417               326.6077

                     88                     89                     90
                      A                      A                      A
 Frequencies --   1288.5746              1330.9188              1331.3875
 Red. masses --      6.2899                 3.0662                 3.2716
 Frc consts  --      6.1533                 3.2000                 3.4168
 IR Inten    --      0.0553                 0.5073                 0.6102

                     91                     92                     93
                      A                      A                      A
 Frequencies --   1344.2491              1345.4328              1397.6330
 Red. masses --      1.7842                 1.7119                 1.1775
 Frc consts  --      1.8996                 1.8258                 1.3552
 IR Inten    --      7.8360                 7.8789                47.4543

                     94                     95                     96
                      A                      A                      A
 Frequencies --   1398.0266              1454.2390              1455.8862
 Red. masses --      1.1767                 1.0676                 1.0787
 Frc consts  --      1.3550                 1.3302                 1.3471
 IR Inten    --      7.3380                88.7950                 3.5548

                     97                     98                     99
                      A                      A                      A
 Frequencies --   1470.5531              1473.3897              1474.9465
 Red. masses --      1.0748                 1.0734                 2.1278
 Frc consts  --      1.3695                 1.3729                 2.7272
 IR Inten    --     19.7729                16.3232                28.3020

                    100                    101                    102
                      A                      A                      A
 Frequencies --   1475.2505              1504.6307              1505.4033
 Red. masses --      2.1240                 2.0109                 2.0038
 Frc consts  --      2.7235                 2.6822                 2.6756
 IR Inten    --     28.7866                 4.7547                 4.8063

                    103                    104                    105
                      A                      A                      A
 Frequencies --   1615.9922              1616.2858              1622.6183
 Red. masses --      5.3766                 5.3529                 5.8274
 Frc consts  --      8.2725                 8.2391                 9.0398
 IR Inten    --      3.4671                 3.3343                 0.5817

                    106                    107                    108
                      A                      A                      A
 Frequencies --   1622.8621              1628.3024              1657.1933
 Red. masses --      5.8146                 8.8854                 9.3334
 Frc consts  --      9.0227                13.8803                15.1020
 IR Inten    --      0.8323               283.3639                 0.1902

                    109                    110                    111
                      A                      A                      A
 Frequencies --   1713.7856              1716.9082              3043.1237
 Red. masses --     12.9495                12.9551                 1.0501
 Frc consts  --     22.4087                22.5001                 5.7294
 IR Inten    --    855.9211                26.2373                 0.6544

                    112                    113                    114
                      A                      A                      A
 Frequencies --   3044.5606              3121.7305              3122.5775
 Red. masses --      1.0495                 1.0834                 1.0837
 Frc consts  --      5.7316                 6.2206                 6.2257
 IR Inten    --      0.7292                 8.6394                 7.2980

                    115                    116                    117
                      A                      A                      A
 Frequencies --   3171.2428              3172.7689              3178.1335
 Red. masses --      1.1030                 1.1027                 1.0870
 Frc consts  --      6.5354                 6.5401                 6.4686
 IR Inten    --      1.2346                 0.8671                 0.6634

                    118                    119                    120
                      A                      A                      A
 Frequencies --   3178.1443              3187.9782              3188.3102
 Red. masses --      1.0870                 1.0895                 1.0896
 Frc consts  --      6.4688                 6.5242                 6.5259
 IR Inten    --      0.7619                10.0534                10.2448

                    121                    122                    123
                      A                      A                      A
 Frequencies --   3195.3396              3195.7186              3203.1643
 Red. masses --      1.0935                 1.0936                 1.0965
 Frc consts  --      6.5781                 6.5806                 6.6287
 IR Inten    --     10.6717                10.7302                 8.5872

                    124                    125                    126
                      A                      A                      A
 Frequencies --   3204.0399              3215.6556              3216.3343
 Red. masses --      1.0963                 1.0938                 1.0937
 Frc consts  --      6.6309                 6.6636                 6.6662
 IR Inten    --      8.1340                 4.7057                 4.5877

 - Thermochemistry -
 -------------------
 Temperature   298.150 Kelvin.  Pressure   1.00000 Atm.
 Atom     1 has atomic number  6 and mass  12.00000

 Molecular mass:   416.03883 amu.
 Principal axes and moments of inertia in atomic units:
                           1         2         3
     Eigenvalues --  6221.88170********************
           X            0.96529   0.12252  -0.23066
           Y            0.26009  -0.53156   0.80610
           Z            0.02385   0.83811   0.54498
 This molecule is an asymmetric top.
 Rotational symmetry number  1.
 Warning -- assumption of classical behavior for rotation
           may cause significant error
 Rotational temperatures (Kelvin)      0.01392     0.00446     0.00438
 Rotational constants (GHZ):           0.29006     0.09296     0.09127
 Zero-point vibrational energy     838562.0 (Joules/Mol)
                                  200.42112 (Kcal/Mol)
 Warning -- explicit consideration of  42 degrees of freedom as
           vibrations may cause significant error
 Vibrational temperatures:     16.05    25.62    32.83    49.59    57.27
          (Kelvin)             59.79    72.55    99.52   109.73   117.60
                              132.23   195.67   232.49   242.57   247.92
                              258.58   278.50   313.20   332.96   340.53
                              389.66   417.04   439.96   445.49   485.94
                              537.43   543.63   570.51   574.62   589.88
                              590.33   597.04   609.71   662.13   670.94
                              696.40   704.58   736.76   769.99   831.58
                              844.12   844.58   899.01   899.04  1004.92
                             1005.43  1006.81  1024.77  1036.30  1055.91
                             1078.88  1095.78  1102.99  1149.67  1152.44
                             1225.27  1225.53  1281.78  1359.56  1359.83
                             1435.39  1435.70  1455.54  1455.96  1468.97
                             1469.08  1481.19  1483.60  1487.86  1491.46
                             1512.45  1519.44  1527.29  1535.66  1562.65
                             1582.35  1583.78  1587.11  1589.57  1700.21
                             1701.41  1719.12  1720.89  1722.76  1771.26
                             1777.52  1786.11  1853.97  1914.90  1915.57
                             1934.07  1935.78  2010.88  2011.45  2092.33
                             2094.70  2115.80  2119.88  2122.12  2122.56
                             2164.83  2165.94  2325.05  2325.47  2334.59
                             2334.94  2342.76  2384.33  2465.76  2470.25
                             4378.38  4380.44  4491.47  4492.69  4562.71
                             4564.91  4572.63  4572.64  4586.79  4587.27
                             4597.38  4597.93  4608.64  4609.90  4626.61
                             4627.59

 Zero-point correction=                           0.319391 (Hartree/Particle)
 Thermal correction to Energy=                    0.345623
 Thermal correction to Enthalpy=                  0.346567
 Thermal correction to Gibbs Free Energy=         0.258749
 Sum of electronic and zero-point Energies=          -2019.391882
 Sum of electronic and thermal Energies=             -2019.365650
 Sum of electronic and thermal Enthalpies=           -2019.364706
 Sum of electronic and thermal Free Energies=        -2019.452524

                     E (Thermal)             CV                S
                      KCal/Mol        Cal/Mol-Kelvin    Cal/Mol-Kelvin
 Total                  216.882             97.815            184.829
 Electronic               0.000              0.000              0.000
 Translational            0.889              2.981             43.967
 Rotational               0.889              2.981             36.122
 Vibrational            215.104             91.853            104.739
 Vibration     1          0.593              1.987              7.794
 Vibration     2          0.593              1.986              6.864
 Vibration     3          0.593              1.985              6.373
 Vibration     4          0.594              1.983              5.554
 Vibration     5          0.594              1.981              5.269
 Vibration     6          0.594              1.981              5.184
 Vibration     7          0.595              1.977              4.801
 Vibration     8          0.598              1.969              4.177
 Vibration     9          0.599              1.965              3.985
 Vibration    10          0.600              1.962              3.849
 Vibration    11          0.602              1.955              3.619
 Vibration    12          0.614              1.917              2.859
 Vibration    13          0.622              1.889              2.531
 Vibration    14          0.625              1.881              2.451
 Vibration    15          0.626              1.877              2.410
 Vibration    16          0.629              1.867              2.331
 Vibration    17          0.635              1.849              2.193
 Vibration    18          0.646              1.814              1.978
 Vibration    19          0.653              1.793              1.868
 Vibration    20          0.656              1.785              1.828
 Vibration    21          0.675              1.727              1.591
 Vibration    22          0.686              1.693              1.475
 Vibration    23          0.696              1.663              1.385
 Vibration    24          0.699              1.655              1.364
 Vibration    25          0.718              1.600              1.223
 Vibration    26          0.745              1.526              1.065
 Vibration    27          0.748              1.517              1.048
 Vibration    28          0.763              1.478              0.976
 Vibration    29          0.765              1.471              0.965
 Vibration    30          0.774              1.449              0.927
 Vibration    31          0.774              1.448              0.926
 Vibration    32          0.778              1.438              0.909
 Vibration    33          0.786              1.419              0.879
 Vibration    34          0.818              1.338              0.766
 Vibration    35          0.824              1.325              0.748
 Vibration    36          0.840              1.285              0.699
 Vibration    37          0.846              1.273              0.684
 Vibration    38          0.867              1.223              0.629
 Vibration    39          0.890              1.172              0.576
 Vibration    40          0.935              1.079              0.489
 Vibration    41          0.944              1.060              0.473
 Vibration    42          0.944              1.059              0.473

                           ! Non-Optimized Parameters !
 Normal termination of Gaussian 16 at Sun Feb 11 14:14:18 2024.
