 Q-Chem 5.4, Q-Chem, Inc., Pleasanton, CA (2021)
 Q-Chem 5.4.0 for Intel X86 EM64T Linux

User input:
--------------------------------------------------------------
$molecule
-2 1
C                 -4.3777060000     -0.4541030000     -0.0669050000
C                 -2.8933770000     -0.7010510000     -0.0796060000
C                 -2.3864280000     -1.9992180000     -0.3302720000
C                 -1.0365490000     -2.2461390000     -0.3245450000
Cl                -0.6230090000     -3.9602280000     -0.6918430000
C                 -0.0503350000     -1.2416320000     -0.0847340000
C                  1.3754960000     -1.5325540000     -0.0189960000
O                  1.8708890000     -2.7056130000     -0.0605480000
C                  2.2404820000     -0.3699210000      0.1022700000
C                  3.6432250000     -0.5633560000      0.1185540000
C                  4.5300060000      0.4892190000      0.2270630000
C                  4.0289680000      1.8166590000      0.3333930000
C                  2.6682560000      2.0364280000      0.3226010000
C                  1.7342500000      0.9708120000      0.2076580000
C                  0.3265890000      1.2595390000      0.2135080000
O                 -0.0783530000      2.4998520000      0.3181190000
C                 -0.5635440000      0.1292160000      0.0917500000
C                 -1.9965960000      0.3441320000      0.1183290000
N                 -2.4915550000      1.6242980000      0.3850500000
H                 -4.7119200000      0.0008490000      0.8745230000
H                 -4.7137500000      0.2306950000     -0.8715470000
H                 -4.9303650000     -1.3887330000     -0.2073770000
H                 -3.0758520000     -2.8164730000     -0.5139350000
H                  3.9867570000     -1.5898230000      0.0385160000
H                  5.6032430000      0.3071040000      0.2318880000
H                  4.7185480000      2.6545670000      0.4240080000
H                  2.2542340000      3.0358610000      0.4042380000
H                 -1.7096140000      2.3114580000      0.3335360000
H                 -3.3419900000      1.8581550000     -0.1116310000
$end
$rem
MAX_SCF_CYCLES=200
BASIS  =  6-311++G(d,p)
GUI  =  2
JOB_TYPE  =  SP
METHOD  =  B3LYP
SOLVENT_METHOD = COSMO
$end
$solvent
dielectric 37.219
opticaldielectric 1.43
$end

--------------------------------------------------------------

             Standard Nuclear Orientation (Angstroms)
    I     Atom           X                Y                Z
 ----------------------------------------------------------------
    1      C       4.2480254807    -1.6247713613     0.0476179704
    2      C       2.9487151370    -0.8657967593     0.0363310459
    3      C       2.9470949684     0.5483831081    -0.0355088448
    4      C       1.7720202446     1.2570962268    -0.0254489086
    5      Cl      2.0115092013     3.0378497283    -0.1502938483
    6      C       0.4822657175     0.6480453717     0.0434858310
    7      C      -0.7527654432     1.4169205763     0.1175134427
    8      O      -0.8025834759     2.6845940832     0.2346896097
    9      C      -1.9758730256     0.6333704285     0.0491122492
   10      C      -3.2197892887     1.3100605239     0.0606464243
   11      C      -4.4238666392     0.6377781378    -0.0049508553
   12      C      -4.4274526659    -0.7830517199    -0.0802619161
   13      C      -3.2324010560    -1.4698450731    -0.0911507784
   14      C      -1.9791833981    -0.8014955135    -0.0289339896
   15      C      -0.7655877363    -1.5709638757    -0.0322510914
   16      O      -0.8283680055    -2.8766884144    -0.0988835867
   17      C       0.4697558934    -0.8262191428     0.0315709428
   18      C       1.7313468383    -1.5390386507     0.0600314772
   19      N       1.7268841915    -2.9343238746     0.1500799079
   20      H       4.3324722163    -2.2846250030     0.9207897288
   21      H       4.3814221342    -2.2761507261    -0.8396434763
   22      H       5.1011174786    -0.9385877880     0.0567687572
   23      H       3.8900819007     1.0826802816    -0.0828951314
   24      H      -3.1761639688     2.3928254280     0.1220615080
   25      H      -5.3631060223     1.1880667994     0.0012605838
   26      H      -5.3710046418    -1.3245871951    -0.1279113531
   27      H      -3.2008512654    -2.5528977074    -0.1454346609
   28      H       0.7601150993    -3.2853455233    -0.0184893947
   29      H       2.4758529965    -3.3906358365    -0.3553366768
 ----------------------------------------------------------------

   19   -1243.2541797128      3.76e-06  Convergence criterion met
 Total energy in the final basis set =    -1243.2541797128
    6   -1243.5203248244      3.69e-06  Convergence criterion met
 Total energy in the final basis set =    -1243.5203248244

                    Orbital Energies (a.u.)
 --------------------------------------------------------------

 Alpha MOs
 -- Occupied --
******** -19.0323 -19.0241 -14.2791 -10.2023 -10.1887 -10.1858 -10.1828
-10.1550 -10.1539 -10.1527 -10.1522 -10.1522 -10.1512 -10.1489 -10.1486
-10.1485 -10.1410 -10.1397  -9.4410  -7.2051  -7.1963  -7.1955  -0.9530
 -0.9496  -0.8872  -0.8496  -0.8293  -0.7941  -0.7660  -0.7273  -0.7257
 -0.6974  -0.6755  -0.6338  -0.6068  -0.5908  -0.5521  -0.5309  -0.5207
 -0.4916  -0.4800  -0.4513  -0.4439  -0.4311  -0.4200  -0.4154  -0.4077
 -0.4001  -0.3953  -0.3870  -0.3745  -0.3729  -0.3648  -0.3553  -0.3527
 -0.3470  -0.3378  -0.3241  -0.3194  -0.3101  -0.3070  -0.2936  -0.2748
 -0.2335  -0.2320  -0.2197  -0.2131  -0.1978  -0.1901  -0.1106

          Ground-State Mulliken Net Atomic Charges

     Atom                 Charge (a.u.)
  ----------------------------------------
      1 C                    -0.489484
      2 C                     0.122730
      3 C                    -0.719168
      4 C                     0.846356
      5 Cl                    0.291971
      6 C                     0.343906
      7 C                    -1.368592
      8 O                    -0.562283
      9 C                    -0.024476
     10 C                     0.082722
     11 C                    -0.490918
     12 C                    -0.576873
     13 C                     0.032506
     14 C                    -0.176901
     15 C                    -0.425738
     16 O                    -0.662440
     17 C                     0.221051
     18 C                     0.076197
     19 N                    -0.478045
     20 H                     0.168271
     21 H                     0.169203
     22 H                     0.166512
     23 H                     0.179765
     24 H                     0.153032
     25 H                     0.181473
     26 H                     0.180650
     27 H                     0.160858
     28 H                     0.337093
     29 H                     0.260626
  ----------------------------------------
  Sum of atomic charges =    -2.000000

                    Cartesian Multipole Moments
 -----------------------------------------------------------------
    Charge (ESU x 10^10)
                -9.6064
    Dipole Moment (Debye)
         X       5.7606      Y      -2.8630      Z      -1.6062
       Tot       6.6303
    Quadrupole Moments (Debye-Ang)
        XX    -145.0449     XY      -8.2375     YY    -184.2274
        XZ      -2.2268     YZ       1.8771     ZZ    -131.2799

 Total job time:  125.07s(wall), 967.80s(cpu)
        *  Thank you very much for using Q-Chem.  Have a nice day.  *
