 Q-Chem 5.4, Q-Chem, Inc., Pleasanton, CA (2021)
 Q-Chem 5.4.0 for Intel X86 EM64T Linux

User input:
--------------------------------------------------------------
$molecule
-1 2
C                 -1.5179100000      0.3291200000      0.9024090000
C                 -1.9966420000      1.4667350000      0.3019080000
C                 -1.0703610000      2.3865020000     -0.3508830000
O                 -1.4721230000      3.4468800000     -0.9164170000
C                  0.3288690000      2.0213510000     -0.3166990000
C                  0.8076000000      0.8837410000      0.2838120000
C                 -0.1186830000     -0.0360510000      0.9365590000
O                  0.2830700000     -1.0964560000      1.5020510000
H                  0.9955770000      2.7228420000     -0.8094420000
C                  2.2695410000      0.4975960000      0.3223030000
C                  3.2523750000      1.4552170000     -0.3549850000
C                  4.7072370000      0.9794510000     -0.2619240000
C                  5.7102460000      1.9269050000     -0.9319660000
C                  7.1627160000      1.4433880000     -0.8346790000
C                  8.2242660000      2.4069670000     -1.3989620000
C                  9.6388600000      1.9141340000     -1.0610440000
C                  8.0789410000      2.6218600000     -2.9125490000
C                 -3.4585930000      1.8528500000      0.2633470000
C                 -4.4411200000      0.8967590000      0.9432400000
C                 -5.8959250000      1.3727790000      0.8505590000
C                 -6.8986620000      0.4267570000      1.5230250000
C                 -8.3510610000      0.9105770000      1.4261650000
C                 -9.4124540000     -0.0517750000      1.9928330000
C                -10.8271680000      0.4409830000      1.6553140000
C                 -9.2659430000     -0.2643520000      3.5066330000
H                 -2.1846080000     -0.3723470000      1.3951950000
H                  2.3710940000     -0.5038870000     -0.1167930000
H                  2.5587430000      0.3564880000      1.3722670000
H                  3.1713450000      2.4516540000      0.0970440000
H                  2.9822220000      1.5793180000     -1.4110960000
H                  4.7925530000     -0.0166090000     -0.7165220000
H                  4.9803270000      0.8527020000      0.7941630000
H                  5.6300930000      2.9204720000     -0.4706390000
H                  5.4258650000      2.0562620000     -1.9826540000
H                  7.2590150000      0.4735450000     -1.3432630000
H                  7.3955950000      1.2530400000      0.2210430000
H                  8.0828230000      3.3794690000     -0.9067910000
H                  9.7732410000      1.8004340000      0.0190640000
H                 10.4022030000      2.6104540000     -1.4235270000
H                  9.8323350000      0.9394240000     -1.5236250000
H                  8.8477630000      3.3050780000     -3.2879870000
H                  7.1057400000      3.0430890000     -3.1740870000
H                  8.1866900000      1.6723920000     -3.4499670000
H                 -3.7484570000      1.9916560000     -0.7867640000
H                 -3.5597700000      2.8552970000      0.7002700000
H                 -4.1700400000      0.7745430000      1.9993350000
H                 -4.3608200000     -0.1005440000      0.4929990000
H                 -6.1698440000      1.4978080000     -0.2055200000
H                 -5.9805790000      2.3696350000      1.3035290000
H                 -6.6134320000      0.2990540000      2.5736840000
H                 -6.8192190000     -0.5676010000      1.0632820000
H                 -8.5847480000      1.0993330000      0.3703350000
H                 -8.4466370000      1.8812510000      1.9332980000
H                 -9.2717320000     -1.0250920000      1.5020660000
H                -11.5904340000     -0.2545280000      2.0195090000
H                -10.9624020000      0.5530410000      0.5751400000
H                -11.0199520000      1.4164730000      2.1165330000
H                -10.0346790000     -0.9467270000      3.8837770000
H                 -9.3729290000      0.6859890000      4.0426590000
H                 -8.2926640000     -0.6854970000      3.7680180000
$end
$rem
MAX_SCF_CYCLES=200
BASIS  =  6-311++G(d,p)
GUI  =  2
JOB_TYPE  =  SP
METHOD  =  B3LYP
THRESH = 14
SCF_CONVERGENCE  = 5
SOLVENT_METHOD = COSMO
$end
$solvent
dielectric 37.219
opticaldielectric 1.43
$end

--------------------------------------------------------------

             Standard Nuclear Orientation (Angstroms)
    I     Atom           X                Y                Z
 ----------------------------------------------------------------
    1      C       1.0911187795    -0.8555134097     0.1337166857
    2      C       1.3482080710     0.4810853669    -0.0433778470
    3      C       0.2397571033     1.4197055663    -0.1863201026
    4      O       0.4347974033     2.6608310899    -0.3512735167
    5      C      -1.0911311705     0.8559365908    -0.1293171509
    6      C      -1.3482180029    -0.4806639695     0.0477665758
    7      C      -0.2397713412    -1.4192775068     0.1907588520
    8      O      -0.4348085502    -2.6603978379     0.3557626397
    9      H      -1.8966745564     1.5760660381    -0.2383963742
   10      C      -2.7378321921    -1.0749769243     0.1079788880
   11      C      -3.9094762528    -0.1025024455    -0.0445441236
   12      C      -5.2741523683    -0.7981868945     0.0283895652
   13      C      -6.4632824679     0.1583201865    -0.1256111749
   14      C      -7.8241552644    -0.5455141755    -0.0510124262
   15      C      -9.0517509586     0.3505571421    -0.3037043357
   16      C     -10.3289279930    -0.4956096234    -0.4084409257
   17      C      -9.2163586452     1.4390486605     0.7669657757
   18      C       2.7378212475     1.0754178554    -0.1035158800
   19      C       3.9095315640     0.1025536161     0.0459963392
   20      C       5.2742027784     0.7982032024    -0.0273966160
   21      C       6.4634071926    -0.1586575199     0.1237988079
   22      C       7.8242661908     0.5451502219     0.0486725367
   23      C       9.0520586521    -0.3513918662     0.2987266326
   24      C      10.3294354627     0.4945025427     0.4032080024
   25      C       9.2153502715    -1.4384050951    -0.7736459618
   26      H       1.8966585419    -1.5756511818     0.2427464867
   27      H      -2.8357493782    -1.6221346714     1.0551415629
   28      H      -2.8085653977    -1.8583223017    -0.6584025439
   29      H      -3.8287366447     0.4292965265    -1.0008148707
   30      H      -3.8570993173     0.6676034440     0.7351659003
   31      H      -5.3596052829    -1.3289594718     0.9860178625
   32      H      -5.3291812437    -1.5708993063    -0.7499744628
   33      H      -6.3813845994     0.6822165641    -1.0875092009
   34      H      -6.3964037333     0.9319680611     0.6480471870
   35      H      -7.9328660812    -1.0258362865     0.9318401849
   36      H      -7.8345244190    -1.3606558261    -0.7861658123
   37      H      -8.9022440226     0.8509262335    -1.2708015407
   38      H     -10.2448318941    -1.2468079081    -1.1997993894
   39      H     -11.2037133580     0.1259019171    -0.6262067943
   40      H     -10.5234943183    -1.0247065564     0.5315982872
   41      H     -10.0978583289     2.0568947347     0.5668349902
   42      H      -8.3502168472     2.1029516283     0.8115462336
   43      H      -9.3434939960     0.9896601113     1.7588347042
   44      H       2.8093694454     1.8571609818     0.6644554061
   45      H       2.8348746538     1.6245466329    -1.0496008144
   46      H       3.8560848328    -0.6662303669    -0.7349469368
   47      H       3.8299202390    -0.4308473270     1.0014667954
   48      H       5.3301900634     1.5697102220     0.7520962103
   49      H       5.3586303548     1.3304407818    -0.9843005552
   50      H       6.3955520937    -0.9311431824    -0.6509334879
   51      H       6.3825727948    -0.6839802146     1.0850087304
   52      H       7.8355402337     1.3592517192     0.7849653307
   53      H       7.9319227731     1.0268492668    -0.9336221015
   54      H       8.9035936775    -0.8530979503     1.2652927548
   55      H      11.2044030801    -0.1273968195     0.6191278666
   56      H      10.2463005143     1.2446048257     1.1957079998
   57      H      10.5230001447     1.0248896669    -0.5363086760
   58      H      10.0970193734    -2.0566103634    -0.5753781733
   59      H       9.3413999447    -0.9876487184    -1.7650329004
   60      H       8.3490958933    -2.1021660463    -0.8181655429
 ----------------------------------------------------------------

    9   -1010.8360647076      7.05e-06  Convergence criterion met
 Total energy in the final basis set =    -1010.8360647076
    4   -1010.9244521276      3.10e-06  Convergence criterion met
 Total energy in the final basis set =    -1010.9244521276

                    Orbital Energies (a.u.)
 --------------------------------------------------------------

 Alpha MOs
 -- Occupied --
-19.0766 -19.0766 -10.2153 -10.2153 -10.1679 -10.1679 -10.1656 -10.1656
-10.1587 -10.1587 -10.1556 -10.1556 -10.1552 -10.1552 -10.1545 -10.1545
-10.1543 -10.1543 -10.1540 -10.1540 -10.1492 -10.1492 -10.1487 -10.1487
 -0.9980  -0.9956  -0.8280  -0.8117  -0.8088  -0.7966  -0.7811  -0.7616
 -0.7349  -0.7129  -0.6860  -0.6770  -0.6768  -0.6767  -0.6456  -0.6213
 -0.5935  -0.5845  -0.5730  -0.5599  -0.5508  -0.5497  -0.5363  -0.4761
 -0.4746  -0.4738  -0.4613  -0.4550  -0.4541  -0.4368  -0.4339  -0.4321
 -0.4300  -0.4290  -0.4153  -0.4129  -0.4102  -0.4003  -0.3967  -0.3924
 -0.3817  -0.3811  -0.3799  -0.3773  -0.3743  -0.3671  -0.3626  -0.3599
 -0.3554  -0.3492  -0.3455  -0.3413  -0.3355  -0.3351  -0.3270  -0.3233
 -0.3182  -0.3181  -0.3133  -0.3133  -0.3112  -0.3111  -0.2999  -0.2999
 -0.2765  -0.2443  -0.2425  -0.2355  -0.1589

 Beta MOs
 -- Occupied --
-19.0700 -19.0700 -10.2136 -10.2136 -10.1666 -10.1666 -10.1656 -10.1656
-10.1588 -10.1588 -10.1557 -10.1557 -10.1552 -10.1552 -10.1545 -10.1545
-10.1540 -10.1540 -10.1535 -10.1535 -10.1492 -10.1492 -10.1487 -10.1487
 -0.9864  -0.9838  -0.8232  -0.8115  -0.8084  -0.7958  -0.7803  -0.7606
 -0.7342  -0.7119  -0.6787  -0.6769  -0.6768  -0.6761  -0.6427  -0.6201
 -0.5921  -0.5831  -0.5728  -0.5584  -0.5508  -0.5491  -0.5324  -0.4753
 -0.4745  -0.4721  -0.4575  -0.4543  -0.4539  -0.4364  -0.4319  -0.4316
 -0.4283  -0.4265  -0.4138  -0.4121  -0.4081  -0.3944  -0.3908  -0.3892
 -0.3803  -0.3795  -0.3779  -0.3752  -0.3722  -0.3610  -0.3582  -0.3551
 -0.3480  -0.3460  -0.3454  -0.3401  -0.3334  -0.3316  -0.3267  -0.3227
 -0.3176  -0.3173  -0.3133  -0.3132  -0.3112  -0.3110  -0.2997  -0.2995
 -0.2462  -0.2381  -0.2350  -0.2298

          Ground-State Mulliken Net Atomic Charges

     Atom                 Charge (a.u.)    Spin (a.u.)
  --------------------------------------------------------
      1 C                    -0.754011       0.035492
      2 C                     0.853213       0.116554
      3 C                    -0.827401       0.116201
      4 O                    -0.520014       0.235081
      5 C                    -0.754553       0.035489
      6 C                     0.853825       0.116540
      7 C                    -0.826774       0.116199
      8 O                    -0.520039       0.235081
      9 H                     0.184077      -0.006584
     10 C                    -0.244332      -0.003485
     11 C                     0.208238      -0.002569
     12 C                    -0.468842      -0.002889
     13 C                     0.193819      -0.000878
     14 C                    -0.721599      -0.000186
     15 C                     0.474518      -0.000047
     16 C                    -0.667349      -0.000001
     17 C                    -0.697393       0.000004
     18 C                    -0.244681      -0.003470
     19 C                     0.209700      -0.002567
     20 C                    -0.469396      -0.002888
     21 C                     0.193650      -0.000877
     22 C                    -0.721551      -0.000187
     23 C                     0.474997      -0.000048
     24 C                    -0.667380      -0.000001
     25 C                    -0.697341       0.000004
     26 H                     0.184213      -0.006584
     27 H                     0.187519       0.007473
     28 H                     0.184822       0.007458
     29 H                     0.131024      -0.000707
     30 H                     0.129431      -0.000769
     31 H                     0.142767      -0.000138
     32 H                     0.132397      -0.000165
     33 H                     0.140274       0.000082
     34 H                     0.111158       0.000088
     35 H                     0.140754      -0.000007
     36 H                     0.135371      -0.000003
     37 H                     0.144306      -0.000000
     38 H                     0.140939      -0.000000
     39 H                     0.164570      -0.000000
     40 H                     0.146288      -0.000000
     41 H                     0.152384      -0.000001
     42 H                     0.151325      -0.000002
     43 H                     0.150796      -0.000001
     44 H                     0.184835       0.007484
     45 H                     0.187557       0.007445
     46 H                     0.129612      -0.000759
     47 H                     0.130753      -0.000714
     48 H                     0.132464      -0.000166
     49 H                     0.142708      -0.000137
     50 H                     0.111216       0.000086
     51 H                     0.140303       0.000084
     52 H                     0.135513      -0.000003
     53 H                     0.140733      -0.000007
     54 H                     0.144327      -0.000001
     55 H                     0.164560      -0.000000
     56 H                     0.140974      -0.000000
     57 H                     0.146269      -0.000000
     58 H                     0.152474      -0.000001
     59 H                     0.150713      -0.000001
     60 H                     0.151272      -0.000002
  --------------------------------------------------------
  Sum of atomic charges =    -1.000000

                    Cartesian Multipole Moments
 -----------------------------------------------------------------
    Charge (ESU x 10^10)
                -4.8032
    Dipole Moment (Debye)
         X       0.0005      Y      -0.0013      Z      -0.0108
       Tot       0.0109
    Quadrupole Moments (Debye-Ang)
        XX    -158.5954     XY      -6.7659     YY    -200.6577
        XZ       3.0634     YZ       5.1891     ZZ    -157.3866

 Total job time:  460.53s(wall), 3338.18s(cpu)
        *  Thank you very much for using Q-Chem.  Have a nice day.  *
