 Gaussian 16, Revision A.03,
 Gaussian 16:  ES64L-G16RevA.03 25-Dec-2016

 --------------------------------------
 #P UB3LYP/6-311++G(d,p) nosym opt freq
 --------------------------------------

 -------
 Reduced
 -------
 Symbolic Z-matrix:
 Charge = -2 Multiplicity = 1

 SCF Done:  E(UB3LYP) =  -837.424607288     A.U. after   37 cycles
 SCF Done:  E(UB3LYP) =  -837.446477343     A.U. after   33 cycles
 SCF Done:  E(UB3LYP) =  -837.450094970     A.U. after   30 cycles
 SCF Done:  E(UB3LYP) =  -837.449745203     A.U. after   25 cycles
 SCF Done:  E(UB3LYP) =  -837.451058928     A.U. after   26 cycles
 SCF Done:  E(UB3LYP) =  -837.451304041     A.U. after   30 cycles
 SCF Done:  E(UB3LYP) =  -837.451521920     A.U. after   29 cycles
 SCF Done:  E(UB3LYP) =  -837.451853113     A.U. after   25 cycles
 SCF Done:  E(UB3LYP) =  -837.451958273     A.U. after   25 cycles
 SCF Done:  E(UB3LYP) =  -837.452064507     A.U. after   22 cycles
 SCF Done:  E(UB3LYP) =  -837.452111724     A.U. after   23 cycles
 SCF Done:  E(UB3LYP) =  -837.452102050     A.U. after   21 cycles
 SCF Done:  E(UB3LYP) =  -837.452126034     A.U. after   21 cycles
 SCF Done:  E(UB3LYP) =  -837.452161394     A.U. after   23 cycles
 SCF Done:  E(UB3LYP) =  -837.452113363     A.U. after   20 cycles
 SCF Done:  E(UB3LYP) =  -837.452113384     A.U. after   16 cycles
 SCF Done:  E(UB3LYP) =  -837.452113407     A.U. after   15 cycles
 SCF Done:  E(UB3LYP) =  -837.452113450     A.U. after   15 cycles
 SCF Done:  E(UB3LYP) =  -837.452113459     A.U. after   15 cycles
 Optimization completed.
    -- Stationary point found.
 Normal termination of Gaussian 16 at Wed Dec 20 05:26:37 2023.

 ----------------------------------------------------------------------
 #P Geom=AllCheck Guess=TCheck SCRF=Check GenChk UB3LYP/6-311++G(d,p) F
 req
 ----------------------------------------------------------------------

 Structure from the checkpoint file:  "098-an.chk"
 -------
 Reduced
 -------
 Charge = -2 Multiplicity = 1

                          Input orientation:
 ---------------------------------------------------------------------
 Center     Atomic      Atomic             Coordinates (Angstroms)
 Number     Number       Type             X           Y           Z
 ---------------------------------------------------------------------
      1          6           0        1.054697    4.326841    4.982914
      2          6           0        1.672292    3.968718    3.747182
      3          6           0        1.608516    2.704586    3.117073
      4          6           0        0.865250    1.591408    3.727439
      5          6           0        0.252776    1.949831    4.967825
      6          6           0        0.320025    3.210649    5.596479
      7          8           0        1.145952    5.514116    5.456729
      8          8           0        0.766249    0.414805    3.241826
      9          1           0        2.222132    4.767102    3.264076
     10          6           0       -0.397094    3.303556    6.868630
     11          8           0       -1.135060    2.448220    7.363550
     12          8           0       -0.190622    4.472933    7.572843
     13          6           0       -0.886923    4.569307    8.798506
     14          1           0       -0.629427    5.551589    9.204226
     15          1           0       -0.589776    3.784473    9.504929
     16          1           0       -1.972226    4.495714    8.660549
     17          6           0        2.287589    2.509592    1.843080
     18          8           0        3.104558    3.621173    1.487331
     19          8           0        2.256991    1.571558    1.064012
     20          6           0        3.744877    3.505463    0.236548
     21          1           0       -0.307850    1.163509    5.461970
     22          1           0        4.320160    4.427378    0.105176
     23          1           0        3.026645    3.399010   -0.586172
     24          1           0        4.419027    2.641008    0.196300
 ---------------------------------------------------------------------

 SCF Done:  E(UB3LYP) =  -837.452113459     A.U. after    1 cycles

 Alpha  occ. eigenvalues --  -18.91548 -18.91250 -18.84983 -18.84939 -18.76039
 Alpha  occ. eigenvalues --  -18.75988 -10.03832 -10.03479 -10.01242 -10.01091
 Alpha  occ. eigenvalues --   -9.93162  -9.93073  -9.90050  -9.90024  -9.87743
 Alpha  occ. eigenvalues --   -9.87681  -0.85231  -0.84412  -0.75757  -0.75651
 Alpha  occ. eigenvalues --   -0.68090  -0.67746  -0.54476  -0.51896  -0.49650
 Alpha  occ. eigenvalues --   -0.46456  -0.40385  -0.38458  -0.33394  -0.31142
 Alpha  occ. eigenvalues --   -0.29626  -0.26000  -0.25211  -0.25074  -0.23617
 Alpha  occ. eigenvalues --   -0.22461  -0.21816  -0.18651  -0.18508  -0.17072
 Alpha  occ. eigenvalues --   -0.15862  -0.15488  -0.14311  -0.12331  -0.11411
 Alpha  occ. eigenvalues --   -0.09930  -0.09632  -0.09518  -0.06940  -0.06385
 Alpha  occ. eigenvalues --   -0.06198  -0.05476  -0.02694  -0.02478   0.02030
 Alpha  occ. eigenvalues --    0.02642   0.06536   0.06875   0.12997
 Alpha virt. eigenvalues --    0.15168   0.15344   0.18887   0.19195   0.19510
 Alpha virt. eigenvalues --    0.19622   0.19932   0.21340   0.22130   0.23403
 Alpha virt. eigenvalues --    0.24911   0.26521   0.26941   0.27141   0.27383

  Beta  occ. eigenvalues --  -18.91548 -18.91250 -18.84983 -18.84939 -18.76039
  Beta  occ. eigenvalues --  -18.75988 -10.03832 -10.03479 -10.01242 -10.01091
  Beta  occ. eigenvalues --   -9.93162  -9.93073  -9.90050  -9.90024  -9.87743
  Beta  occ. eigenvalues --   -9.87681  -0.85231  -0.84412  -0.75757  -0.75651
  Beta  occ. eigenvalues --   -0.68090  -0.67746  -0.54476  -0.51896  -0.49650
  Beta  occ. eigenvalues --   -0.46456  -0.40385  -0.38458  -0.33394  -0.31142
  Beta  occ. eigenvalues --   -0.29626  -0.26000  -0.25211  -0.25074  -0.23617
  Beta  occ. eigenvalues --   -0.22461  -0.21816  -0.18651  -0.18508  -0.17072
  Beta  occ. eigenvalues --   -0.15862  -0.15488  -0.14311  -0.12331  -0.11411
  Beta  occ. eigenvalues --   -0.09930  -0.09632  -0.09518  -0.06940  -0.06385
  Beta  occ. eigenvalues --   -0.06198  -0.05476  -0.02694  -0.02478   0.02030
  Beta  occ. eigenvalues --    0.02642   0.06536   0.06875   0.12997
  Beta virt. eigenvalues --    0.15168   0.15344   0.18887   0.19195   0.19510
  Beta virt. eigenvalues --    0.19622   0.19932   0.21340   0.22130   0.23403
  Beta virt. eigenvalues --    0.24911   0.26521   0.26941   0.27141   0.27383

 Mulliken charges and spin densities:
               1          2
     1  C   -1.168054   0.000000
     2  C   -0.036019  -0.000000
     3  C    0.598314  -0.000000
     4  C   -0.873844   0.000000
     5  C   -0.339158  -0.000000
     6  C    0.874430  -0.000000
     7  O   -0.526461  -0.000000
     8  O   -0.505106  -0.000000
     9  H    0.135213  -0.000000
    10  C    0.083268   0.000000
    11  O   -0.367692  -0.000000
    12  O   -0.056120  -0.000000
    13  C   -0.257324   0.000000
    14  H    0.105333   0.000000
    15  H    0.134977  -0.000000
    16  H    0.139413  -0.000000
    17  C    0.258661  -0.000000
    18  O   -0.128954   0.000000
    19  O   -0.321178  -0.000000
    20  C   -0.243492   0.000000
    21  H    0.131855  -0.000000
    22  H    0.085547  -0.000000
    23  H    0.138281   0.000000
    24  H    0.138112   0.000000
 Sum of Mulliken charges =  -2.00000   0.00000

 Dipole moment (field-independent basis, Debye):
    X=             -8.4950    Y=            -26.3370    Z=            -41.3533  Tot=             49.7585
 Quadrupole moment (field-independent basis, Debye-Ang):
   XX=           -119.6983   YY=           -221.5882   ZZ=           -318.8452
   XY=            -29.1783   XZ=            -18.9996   YZ=           -134.4924

  Exact polarizability: 168.097  24.899 188.976 -97.997  14.671 274.213
 Approx polarizability: 261.856  80.235 339.249-142.562 -16.201 382.527

                      1                      2                      3
                      A                      A                      A
 Frequencies --     11.9016                18.6537                34.0107
 Red. masses --      6.9181                 7.0681                 6.3651
 Frc consts  --      0.0006                 0.0014                 0.0043
 IR Inten    --      4.1763                 1.1059                 3.6556

                      4                      5                      6
                      A                      A                      A
 Frequencies --     88.0317                97.7982               115.6744
 Red. masses --      2.8583                 3.5625                 4.3735
 Frc consts  --      0.0131                 0.0201                 0.0345
 IR Inten    --      0.4334                 1.5604                 8.8160

                      7                      8                      9
                      A                      A                      A
 Frequencies --    136.6079               152.2627               167.4876
 Red. masses --      1.3308                 1.2478                 3.4905
 Frc consts  --      0.0146                 0.0170                 0.0577
 IR Inten    --      0.3289                 1.1505                 8.9462

                     10                     11                     12
                      A                      A                      A
 Frequencies --    175.0786               195.4993               252.7994
 Red. masses --      4.9321                 4.9857                 8.5058
 Frc consts  --      0.0891                 0.1123                 0.3203
 IR Inten    --      4.9298                 0.3754                 0.4883

                     13                     14                     15
                      A                      A                      A
 Frequencies --    305.2820               320.2077               333.0267
 Red. masses --      7.9111                 4.5909                 8.3284
 Frc consts  --      0.4344                 0.2773                 0.5442
 IR Inten    --      4.3771                 4.8718                 0.7259

                     16                     17                     18
                      A                      A                      A
 Frequencies --    372.1433               399.7938               422.0130
 Red. masses --      9.3056                 7.5738                 7.4913
 Frc consts  --      0.7593                 0.7132                 0.7861
 IR Inten    --      9.5492                14.0013                 6.3914

                     19                     20                     21
                      A                      A                      A
 Frequencies --    451.3643               484.1854               524.9021
 Red. masses --      3.8891                12.8464                 8.2285
 Frc consts  --      0.4668                 1.7744                 1.3358
 IR Inten    --      0.7237                 0.3955                 5.5058

                     22                     23                     24
                      A                      A                      A
 Frequencies --    623.6828               632.3063               686.9692
 Red. masses --      3.9809                 6.1379                 3.7507
 Frc consts  --      0.9123                 1.4459                 1.0429
 IR Inten    --     19.0191                20.5003                 2.7285

                     25                     26                     27
                      A                      A                      A
 Frequencies --    698.9292               742.7364               776.1778
 Red. masses --      4.5158                 5.9040                 4.0454
 Frc consts  --      1.2997                 1.9189                 1.4359
 IR Inten    --     28.0049                99.0341                15.9867

                     28                     29                     30
                      A                      A                      A
 Frequencies --    779.1409               798.8208               850.3560
 Red. masses --      5.6967                11.5717                 4.2208
 Frc consts  --      2.0375                 4.3506                 1.7982
 IR Inten    --     20.7139                23.6124                73.5049

                     31                     32                     33
                      A                      A                      A
 Frequencies --    850.6869               864.3463               891.4320
 Red. masses --      2.2777                 1.7397                 8.3870
 Frc consts  --      0.9711                 0.7658                 3.9268
 IR Inten    --     17.2852                22.4824               180.3960

                     34                     35                     36
                      A                      A                      A
 Frequencies --    990.3240              1087.7772              1090.0352
 Red. masses --      4.6485                 8.5885                 8.8995
 Frc consts  --      2.6861                 5.9875                 6.2301
 IR Inten    --    174.7379               434.7000               313.7093

                     37                     38                     39
                      A                      A                      A
 Frequencies --   1112.8314              1158.6307              1163.3169
 Red. masses --      3.4323                 1.2866                 1.2862
 Frc consts  --      2.5043                 1.0176                 1.0255
 IR Inten    --   1314.2802                 0.6269                 2.3392

                     40                     41                     42
                      A                      A                      A
 Frequencies --   1174.9566              1194.8682              1207.0950
 Red. masses --      2.0917                 1.6130                 2.6029
 Frc consts  --      1.7013                 1.3568                 2.2346
 IR Inten    --     67.6759                57.9918                82.9316

                     43                     44                     45
                      A                      A                      A
 Frequencies --   1229.3709              1246.1400              1287.5685
 Red. masses --      5.4343                 1.3128                 5.4629
 Frc consts  --      4.8391                 1.2011                 5.3360
 IR Inten    --    118.6127                 6.6289                90.3572

                     46                     47                     48
                      A                      A                      A
 Frequencies --   1382.9641              1414.5163              1418.5221
 Red. masses --     11.0970                 8.1620                 3.0977
 Frc consts  --     12.5048                 9.6220                 3.6725
 IR Inten    --     12.3538                94.2181               367.4428

                     49                     50                     51
                      A                      A                      A
 Frequencies --   1446.8134              1448.5206              1463.6760
 Red. masses --      1.2367                 1.1803                 1.0507
 Frc consts  --      1.5252                 1.4592                 1.3263
 IR Inten    --    102.3602                 2.5768                 1.7074

                     52                     53                     54
                      A                      A                      A
 Frequencies --   1465.1741              1482.7043              1498.3385
 Red. masses --      1.0529                 6.0138                 1.0593
 Frc consts  --      1.3317                 7.7894                 1.4011
 IR Inten    --      2.9159              1015.1535                 5.9616

                     55                     56                     57
                      A                      A                      A
 Frequencies --   1502.4136              1597.5350              1634.7765
 Red. masses --      1.0558                 7.1165                10.4032
 Frc consts  --      1.4041                10.7008                16.3807
 IR Inten    --     10.5848               187.2348               763.2735

                     58                     59                     60
                      A                      A                      A
 Frequencies --   1709.7081              2981.2996              2985.6176
 Red. masses --     11.5818                 1.0301                 1.0313
 Frc consts  --     19.9466                 5.3946                 5.4162
 IR Inten    --    741.3996               234.7361               149.3809

                     61                     62                     63
                      A                      A                      A
 Frequencies --   3020.7075              3025.7394              3058.2930
 Red. masses --      1.1032                 1.1031                 1.1016
 Frc consts  --      5.9310                 5.9502                 6.0705
 IR Inten    --     71.3962                94.7582                72.2464

                     64                     65                     66
                      A                      A                      A
 Frequencies --   3071.0315              3163.1775              3179.5285
 Red. masses --      1.1010                 1.0871                 1.0871
 Frc consts  --      6.1179                 6.4089                 6.4752
 IR Inten    --     64.3619                23.1316                16.4577

 - Thermochemistry -
 -------------------
 Temperature   298.150 Kelvin.  Pressure   1.00000 Atm.
 Atom     1 has atomic number  6 and mass  12.00000

 Molecular mass:   224.03209 amu.
 Principal axes and moments of inertia in atomic units:
                           1         2         3
     Eigenvalues --  1446.661036707.092858118.35362
           X           -0.45012   0.36401   0.81541
           Y            0.18126   0.93138  -0.31572
           Z            0.87438  -0.00569   0.48521
 This molecule is an asymmetric top.
 Rotational symmetry number  1.
 Warning -- assumption of classical behavior for rotation
           may cause significant error
 Rotational temperatures (Kelvin)      0.05987     0.01291     0.01067
 Rotational constants (GHZ):           1.24752     0.26908     0.22230
 Zero-point vibrational energy     431542.6 (Joules/Mol)
                                  103.14115 (Kcal/Mol)
 Warning -- explicit consideration of  21 degrees of freedom as
           vibrations may cause significant error
 Vibrational temperatures:     17.12    26.84    48.93   126.66   140.71
          (Kelvin)            166.43   196.55   219.07   240.98   251.90
                              281.28   363.72   439.23   460.71   479.15
                              535.43   575.21   607.18   649.41   696.63
                              755.22   897.34   909.75   988.40  1005.60
                             1068.63  1116.75  1121.01  1149.32  1223.47
                             1223.95  1243.60  1282.57  1424.86  1565.07
                             1568.32  1601.12  1667.01  1673.75  1690.50
                             1719.15  1736.74  1768.79  1792.92  1852.52
                             1989.78  2035.17  2040.94  2081.64  2084.10
                             2105.90  2108.06  2133.28  2155.77  2161.64
                             2298.50  2352.08  2459.89  4289.43  4295.64
                             4346.12  4353.36  4400.20  4418.53  4551.11
                             4574.63

 Zero-point correction=                           0.164366 (Hartree/Particle)
 Thermal correction to Energy=                    0.179919
 Thermal correction to Enthalpy=                  0.180863
 Thermal correction to Gibbs Free Energy=         0.118051
 Sum of electronic and zero-point Energies=           -837.287748
 Sum of electronic and thermal Energies=              -837.272195
 Sum of electronic and thermal Enthalpies=            -837.271250
 Sum of electronic and thermal Free Energies=         -837.334063

                     E (Thermal)             CV                S
                      KCal/Mol        Cal/Mol-Kelvin    Cal/Mol-Kelvin
 Total                  112.901             54.596            132.200
 Electronic               0.000              0.000              0.000
 Translational            0.889              2.981             42.122
 Rotational               0.889              2.981             32.732
 Vibrational            111.123             48.634             57.345
 Vibration     1          0.593              1.987              7.665
 Vibration     2          0.593              1.986              6.773
 Vibration     3          0.594              1.983              5.581
 Vibration     4          0.601              1.958              3.703
 Vibration     5          0.603              1.951              3.498
 Vibration     6          0.608              1.936              3.171
 Vibration     7          0.614              1.917              2.851
 Vibration     8          0.619              1.900              2.644
 Vibration     9          0.624              1.882              2.463
 Vibration    10          0.627              1.873              2.380
 Vibration    11          0.636              1.846              2.175
 Vibration    12          0.664              1.758              1.711
 Vibration    13          0.696              1.664              1.388
 Vibration    14          0.706              1.635              1.309
 Vibration    15          0.715              1.610              1.245
 Vibration    16          0.744              1.529              1.071
 Vibration    17          0.766              1.471              0.963
 Vibration    18          0.784              1.422              0.885
 Vibration    19          0.810              1.358              0.792
 Vibration    20          0.840              1.285              0.699
 Vibration    21          0.880              1.195              0.599

 Optimization completed.
    -- Stationary point found.
 Normal termination of Gaussian 16 at Wed Dec 20 05:52:13 2023.
