 Gaussian 16, Revision A.03,
 Gaussian 16:  ES64L-G16RevA.03 25-Dec-2016

 --------------------------------------
 #P UB3LYP/6-311++G(d,p) nosym opt freq
 --------------------------------------

 -------
 Reduced
 -------
 Symbolic Z-matrix:
 Charge = -2 Multiplicity = 1

 SCF Done:  E(UB3LYP) =  -846.227861251     A.U. after   54 cycles
 Optimization completed.
    -- Stationary point found.
 Normal termination of Gaussian 16 at Wed Dec 27 20:13:46 2023.

 ----------------------------------------------------------------------
 #P Geom=AllCheck Guess=TCheck SCRF=Check GenChk UB3LYP/6-311++G(d,p) F
 req
 ----------------------------------------------------------------------

 Structure from the checkpoint file:  "126-an.chk"
 -------
 Reduced
 -------
 Charge = -2 Multiplicity = 1

                          Input orientation:
 ---------------------------------------------------------------------
 Center     Atomic      Atomic             Coordinates (Angstroms)
 Number     Number       Type             X           Y           Z
 ---------------------------------------------------------------------
      1          6           0       -3.931051    0.942463    0.950771
      2          6           0       -3.275459   -0.077498   -0.011570
      3          6           0       -3.478590   -1.486164    0.576300
      4          6           0       -4.015930   -0.026564   -1.371790
      5          6           0       -1.788022    0.269026   -0.208628
      6          6           0       -1.429807    1.536218   -0.767224
      7          6           0       -0.109858    1.884498   -0.950490
      8          6           0        0.956588    1.021810   -0.600300
      9          6           0        2.326259    1.447409   -0.822600
     10          8           0        2.623278    2.581899   -1.331661
     11          6           0        3.334382    0.484848   -0.416039
     12          6           0        4.704722    0.802886   -0.585573
     13          6           0        5.711766   -0.067336   -0.220271
     14          6           0        5.378886   -1.328848    0.345795
     15          6           0        4.053045   -1.667599    0.525174
     16          6           0        2.995624   -0.796793    0.161912
     17          6           0        1.623143   -1.217861    0.382690
     18          8           0        1.327185   -2.351132    0.894564
     19          6           0        0.616477   -0.253745   -0.024975
     20          6           0       -0.755576   -0.581329    0.140946
     21          1           0       -4.999570    0.734942    1.080328
     22          1           0       -3.449961    0.901956    1.933374
     23          1           0       -3.830756    1.965221    0.576740
     24          1           0       -3.044370   -2.253620   -0.070619
     25          1           0       -4.549071   -1.697174    0.681977
     26          1           0       -3.013790   -1.581148    1.561688
     27          1           0       -3.948862    0.964247   -1.829657
     28          1           0       -5.080368   -0.269562   -1.250314
     29          1           0       -3.577247   -0.745606   -2.070778
     30          1           0       -2.205251    2.239208   -1.060277
     31          1           0        0.159887    2.846438   -1.375243
     32          1           0        4.925690    1.772662   -1.020585
     33          1           0        6.754783    0.208145   -0.364467
     34          1           0        6.166482   -2.021912    0.635385
     35          1           0        3.766667   -2.622339    0.955135
     36          1           0       -0.941322   -1.557648    0.571770
 ---------------------------------------------------------------------

 SCF Done:  E(UB3LYP) =  -846.227861251     A.U. after   12 cycles

 Alpha  occ. eigenvalues --  -18.80785 -18.80703  -9.99506  -9.97218  -9.97130
 Alpha  occ. eigenvalues --   -9.96812  -9.96527  -9.96449  -9.95193  -9.94940
 Alpha  occ. eigenvalues --   -9.94895  -9.94289  -9.94123  -9.94093  -9.93781
 Alpha  occ. eigenvalues --   -9.93470  -9.92756  -9.92718  -9.92526  -9.92433
 Alpha  occ. eigenvalues --   -0.72714  -0.72353  -0.63988  -0.61819  -0.60070
 Alpha  occ. eigenvalues --   -0.54153  -0.51634  -0.51478  -0.50033  -0.49877
 Alpha  occ. eigenvalues --   -0.49319  -0.42661  -0.40811  -0.38755  -0.35800
 Alpha  occ. eigenvalues --   -0.34389  -0.31703  -0.29832  -0.29142  -0.25825
 Alpha  occ. eigenvalues --   -0.25137  -0.25044  -0.22977  -0.22275  -0.22125
 Alpha  occ. eigenvalues --   -0.20747  -0.20002  -0.19695  -0.19149  -0.17987
 Alpha  occ. eigenvalues --   -0.17454  -0.16609  -0.16385  -0.16058  -0.14690
 Alpha  occ. eigenvalues --   -0.14574  -0.13971  -0.13366  -0.12606  -0.10847
 Alpha  occ. eigenvalues --   -0.10785  -0.10404  -0.08847  -0.08642  -0.02491
 Alpha  occ. eigenvalues --   -0.01326  -0.00888  -0.00358   0.01524   0.02217
 Alpha  occ. eigenvalues --    0.11620
 Alpha virt. eigenvalues --    0.12848   0.15042   0.15490   0.15597   0.16723
 Alpha virt. eigenvalues --    0.16871   0.18194   0.18364   0.19249   0.19402
 Alpha virt. eigenvalues --    0.19606   0.19716   0.20919   0.20953   0.21058

  Beta  occ. eigenvalues --  -18.80785 -18.80703  -9.99506  -9.97218  -9.97130
  Beta  occ. eigenvalues --   -9.96812  -9.96527  -9.96449  -9.95193  -9.94940
  Beta  occ. eigenvalues --   -9.94895  -9.94289  -9.94123  -9.94093  -9.93781
  Beta  occ. eigenvalues --   -9.93470  -9.92756  -9.92718  -9.92526  -9.92433
  Beta  occ. eigenvalues --   -0.72714  -0.72353  -0.63988  -0.61819  -0.60070
  Beta  occ. eigenvalues --   -0.54153  -0.51634  -0.51478  -0.50033  -0.49877
  Beta  occ. eigenvalues --   -0.49319  -0.42661  -0.40811  -0.38755  -0.35800
  Beta  occ. eigenvalues --   -0.34389  -0.31703  -0.29832  -0.29142  -0.25825
  Beta  occ. eigenvalues --   -0.25137  -0.25044  -0.22977  -0.22275  -0.22125
  Beta  occ. eigenvalues --   -0.20747  -0.20002  -0.19695  -0.19149  -0.17987
  Beta  occ. eigenvalues --   -0.17454  -0.16609  -0.16385  -0.16058  -0.14690
  Beta  occ. eigenvalues --   -0.14574  -0.13971  -0.13366  -0.12606  -0.10847
  Beta  occ. eigenvalues --   -0.10785  -0.10404  -0.08847  -0.08642  -0.02491
  Beta  occ. eigenvalues --   -0.01326  -0.00888  -0.00358   0.01524   0.02217
  Beta  occ. eigenvalues --    0.11620
  Beta virt. eigenvalues --    0.12848   0.15042   0.15490   0.15597   0.16723
  Beta virt. eigenvalues --    0.16871   0.18194   0.18364   0.19249   0.19402
  Beta virt. eigenvalues --    0.19606   0.19716   0.20919   0.20953   0.21058

 Mulliken charges and spin densities:
               1          2
     1  C    0.217361   0.000000
     2  C   -1.974810  -0.000000
     3  C   -0.517947  -0.000000
     4  C    0.506720   0.000000
     5  C    1.540131   0.000000
     6  C   -0.818904  -0.000000
     7  C   -0.122314   0.000000
     8  C    0.655066   0.000000
     9  C   -1.100519  -0.000000
    10  O   -0.465073  -0.000000
    11  C    0.385869  -0.000000
    12  C    0.014748   0.000000
    13  C   -0.424016  -0.000000
    14  C   -0.482122  -0.000000
    15  C    0.042670   0.000000
    16  C    0.519285  -0.000000
    17  C   -0.752053  -0.000000
    18  O   -0.465740  -0.000000
    19  C    0.855113   0.000000
    20  C    0.539151   0.000000
    21  H   -0.451913  -0.000000
    22  H    0.157639   0.000000
    23  H   -0.037230   0.000000
    24  H    0.029744  -0.000000
    25  H   -0.326110   0.000000
    26  H    0.108857  -0.000000
    27  H    0.002025   0.000000
    28  H   -0.704924  -0.000000
    29  H    0.150833   0.000000
    30  H    0.142206   0.000000
    31  H    0.132777   0.000000
    32  H    0.134389   0.000000
    33  H    0.084150  -0.000000
    34  H    0.084638   0.000000
    35  H    0.135949  -0.000000
    36  H    0.204354  -0.000000
 Sum of Mulliken charges =  -2.00000   0.00000

 Dipole moment (field-independent basis, Debye):
    X=             -4.2685    Y=             -0.1982    Z=              1.9760  Tot=              4.7079
 Quadrupole moment (field-independent basis, Debye-Ang):
   XX=           -278.4096   YY=           -174.5496   ZZ=           -148.3316
   XY=             -8.3875   XZ=              3.2712   YZ=             13.8943

  Exact polarizability:2392.642  32.209 815.745 -73.901 -31.283 703.819
 Approx polarizability:******** 543.852 842.837-138.659-106.576 611.458

                      1                      2                      3
                      A                      A                      A
 Frequencies --     36.2801                45.4373                82.9788
 Red. masses --      3.2927                 4.7637                 5.1296
 Frc consts  --      0.0026                 0.0058                 0.0208
 IR Inten    --      0.2155                 0.5442                 2.1578

                      4                      5                      6
                      A                      A                      A
 Frequencies --    124.9754               129.7920               166.6966
 Red. masses --      4.4351                 4.1551                 5.1067
 Frc consts  --      0.0408                 0.0412                 0.0836
 IR Inten    --      0.8177                 0.1618                 1.1799

                      7                      8                      9
                      A                      A                      A
 Frequencies --    183.5127               227.8749               236.9746
 Red. masses --      4.4115                 1.2533                 4.2856
 Frc consts  --      0.0875                 0.0383                 0.1418
 IR Inten    --      3.6838                 0.3764                 8.4441

                     10                     11                     12
                      A                      A                      A
 Frequencies --    245.6913               249.0958               275.6183
 Red. masses --      2.6880                 2.7793                 1.3623
 Frc consts  --      0.0956                 0.1016                 0.0610
 IR Inten    --      5.3260                 3.7157                 5.3015

                     13                     14                     15
                      A                      A                      A
 Frequencies --    297.8100               313.8265               347.5516
 Red. masses --      3.1350                 1.0553                 3.0068
 Frc consts  --      0.1638                 0.0612                 0.2140
 IR Inten    --      2.6435                10.1408                 4.5143

                     16                     17                     18
                      A                      A                      A
 Frequencies --    353.7173               368.9485               396.7682
 Red. masses --      2.7500                10.7314                 3.5169
 Frc consts  --      0.2027                 0.8607                 0.3262
 IR Inten    --     10.9164                13.7201                 0.7665

                     19                     20                     21
                      A                      A                      A
 Frequencies --    407.5825               421.3452               440.5714
 Red. masses --      5.0300                 3.6668                 4.3328
 Frc consts  --      0.4923                 0.3835                 0.4955
 IR Inten    --    179.3826                 0.4273                24.6697

                     22                     23                     24
                      A                      A                      A
 Frequencies --    449.4462               470.7348               480.2578
 Red. masses --      4.0263                 3.8108                 3.0034
 Frc consts  --      0.4792                 0.4975                 0.4081
 IR Inten    --      3.2804               117.3411                 7.6008

                     25                     26                     27
                      A                      A                      A
 Frequencies --    490.4184               556.9998               561.0337
 Red. masses --      7.1491                 4.3107                 3.6339
 Frc consts  --      1.0131                 0.7880                 0.6739
 IR Inten    --    403.2117                 4.7014                21.8442

                     28                     29                     30
                      A                      A                      A
 Frequencies --    636.1778               655.0486               657.4958
 Red. masses --      6.9174                 5.8953                 3.2610
 Frc consts  --      1.6495                 1.4904                 0.8306
 IR Inten    --      2.9292                 7.1065                21.3679

                     31                     32                     33
                      A                      A                      A
 Frequencies --    693.7495               695.2521               708.0255
 Red. masses --      1.9777                 6.3765                 6.4125
 Frc consts  --      0.5608                 1.8160                 1.8940
 IR Inten    --     42.7733                 1.8205                 1.5750

                     34                     35                     36
                      A                      A                      A
 Frequencies --    731.8828               757.7050               785.1975
 Red. masses --      3.5564                 2.4600                 1.7483
 Frc consts  --      1.1224                 0.8321                 0.6351
 IR Inten    --      1.0630                11.4307                 0.2649

                     37                     38                     39
                      A                      A                      A
 Frequencies --    803.9762               807.5931               838.3001
 Red. masses --      1.5404                 3.6865                 3.6491
 Frc consts  --      0.5867                 1.4166                 1.5109
 IR Inten    --      2.6470                 7.7872                 0.2903

                     40                     41                     42
                      A                      A                      A
 Frequencies --    852.9205               913.0290               931.2987
 Red. masses --      3.7582                 1.8497                 1.7334
 Frc consts  --      1.6108                 0.9085                 0.8858
 IR Inten    --     17.7161                64.0131                27.6199

                     43                     44                     45
                      A                      A                      A
 Frequencies --    932.6600               947.1799               955.6443
 Red. masses --      6.3902                 1.3941                 1.1968
 Frc consts  --      3.2750                 0.7369                 0.6439
 IR Inten    --      6.1569                 0.9178                 5.1834

                     46                     47                     48
                      A                      A                      A
 Frequencies --    960.3387               964.6040               972.6872
 Red. masses --      1.2534                 1.3578                 4.0293
 Frc consts  --      0.6810                 0.7443                 2.2461
 IR Inten    --      0.2157                 1.5952               127.1397

                     49                     50                     51
                      A                      A                      A
 Frequencies --    977.8092              1016.0211              1038.7942
 Red. masses --      1.3357                 2.0501                 1.4647
 Frc consts  --      0.7524                 1.2469                 0.9312
 IR Inten    --     10.3443               400.9368                22.6457

                     52                     53                     54
                      A                      A                      A
 Frequencies --   1045.0322              1085.3056              1100.3231
 Red. masses --      1.3960                 2.4522                 1.9345
 Frc consts  --      0.8982                 1.7018                 1.3800
 IR Inten    --     21.9149                68.6270                41.9984

                     55                     56                     57
                      A                      A                      A
 Frequencies --   1118.8302              1133.7761              1172.8997
 Red. masses --      1.6184                 1.5242                 3.3352
 Frc consts  --      1.1936                 1.1544                 2.7033
 IR Inten    --     51.7854               102.9843               436.8419

                     58                     59                     60
                      A                      A                      A
 Frequencies --   1192.9496              1203.5618              1214.2002
 Red. masses --      2.0059                 2.3456                 2.6815
 Frc consts  --      1.6819                 2.0019                 2.3292
 IR Inten    --    143.9709               102.8288                19.3042

                     61                     62                     63
                      A                      A                      A
 Frequencies --   1219.7632              1227.0627              1250.0424
 Red. masses --      1.7539                 2.5532                 2.1858
 Frc consts  --      1.5375                 2.2650                 2.0123
 IR Inten    --      4.0855               135.8578               230.9795

                     64                     65                     66
                      A                      A                      A
 Frequencies --   1275.5054              1333.2697              1339.8685
 Red. masses --      2.8567                 2.3701                 6.0778
 Frc consts  --      2.7383                 2.4822                 6.4287
 IR Inten    --    148.3127               154.9558               493.7610

                     67                     68                     69
                      A                      A                      A
 Frequencies --   1356.5301              1379.1803              1382.6471
 Red. masses --      7.4071                 1.2237                 1.8432
 Frc consts  --      8.0308                 1.3715                 2.0761
 IR Inten    --    256.1096               226.9445               102.6887

                     70                     71                     72
                      A                      A                      A
 Frequencies --   1388.0697              1415.4438              1449.1569
 Red. masses --      1.5745                 1.2412                 3.8862
 Frc consts  --      1.7873                 1.4652                 4.8084
 IR Inten    --    506.2868               139.4743               454.7691

                     73                     74                     75
                      A                      A                      A
 Frequencies --   1462.0523              1471.7458              1473.8562
 Red. masses --      2.8268                 6.5249                 1.0667
 Frc consts  --      3.5602                 8.3271                 1.3652
 IR Inten    --    362.8565              2136.1032                45.0035

                     76                     77                     78
                      A                      A                      A
 Frequencies --   1482.9412              1484.1716              1487.2089
 Red. masses --      1.0468                 1.1000                 3.4514
 Frc consts  --      1.3563                 1.4277                 4.4976
 IR Inten    --     78.0779               158.1919               126.3858

                     79                     80                     81
                      A                      A                      A
 Frequencies --   1491.4947              1497.7351              1499.6918
 Red. masses --      2.0119                 1.3630                 1.0786
 Frc consts  --      2.6370                 1.8014                 1.4292
 IR Inten    --    416.8030                96.6724                18.6623

                     82                     83                     84
                      A                      A                      A
 Frequencies --   1515.0454              1526.5066              1565.1098
 Red. masses --      1.1200                 4.3247                 7.2483
 Frc consts  --      1.5146                 5.9375                10.4610
 IR Inten    --     63.1149                33.7655              4456.3101

                     85                     86                     87
                      A                      A                      A
 Frequencies --   1590.4219              1606.2290              2981.7659
 Red. masses --      5.4660                 5.8401                 1.0442
 Frc consts  --      8.1460                 8.8775                 5.4697
 IR Inten    --      5.9132               102.1249                 5.0886

                     88                     89                     90
                      A                      A                      A
 Frequencies --   2999.4694              3007.0875              3052.3907
 Red. masses --      1.0369                 1.0386                 1.0906
 Frc consts  --      5.4966                 5.5331                 5.9871
 IR Inten    --      7.4682                22.5440                34.1279

                     91                     92                     93
                      A                      A                      A
 Frequencies --   3059.2901              3064.8378              3075.8198
 Red. masses --      1.0991                 1.0965                 1.1009
 Frc consts  --      6.0608                 6.0685                 6.1363
 IR Inten    --    138.9380               163.9378                 1.7484

                     94                     95                     96
                      A                      A                      A
 Frequencies --   3080.1522              3084.4645              3097.7656
 Red. masses --      1.1006                 1.1014                 1.0828
 Frc consts  --      6.1520                 6.1737                 6.1220
 IR Inten    --      2.3672                 2.1482                36.7409

                     97                     98                     99
                      A                      A                      A
 Frequencies --   3120.7041              3123.6341              3159.8591
 Red. masses --      1.0905                 1.0854                 1.0904
 Frc consts  --      6.2572                 6.2399                 6.4147
 IR Inten    --    340.5843                10.7746                28.8702

                    100                    101                    102
                      A                      A                      A
 Frequencies --   3161.6184              3162.5272              3187.4279
 Red. masses --      1.0914                 1.0916                 1.0874
 Frc consts  --      6.4275                 6.4327                 6.5091
 IR Inten    --     20.8184               244.2014                 5.9045

 - Thermochemistry -
 -------------------
 Temperature   298.150 Kelvin.  Pressure   1.00000 Atm.
 Atom     1 has atomic number  6 and mass  12.00000

 Molecular mass:   264.11503 amu.
 Principal axes and moments of inertia in atomic units:
                           1         2         3
     Eigenvalues --  2215.754419270.67711**********
           X            0.99928   0.03158   0.02084
           Y           -0.03732   0.91336   0.40543
           Z           -0.00623  -0.40592   0.91389
 This molecule is an asymmetric top.
 Rotational symmetry number  1.
 Warning -- assumption of classical behavior for rotation
           may cause significant error
 Rotational temperatures (Kelvin)      0.03909     0.00934     0.00781
 Rotational constants (GHZ):           0.81450     0.19467     0.16276
 Zero-point vibrational energy     750368.2 (Joules/Mol)
                                  179.34231 (Kcal/Mol)
 Warning -- explicit consideration of  27 degrees of freedom as
           vibrations may cause significant error
 Vibrational temperatures:     52.20    65.37   119.39   179.81   186.74
          (Kelvin)            239.84   264.03   327.86   340.95   353.50
                              358.39   396.55   428.48   451.53   500.05
                              508.92   530.83   570.86   586.42   606.22
                              633.88   646.65   677.28   690.98   705.60
                              801.40   807.20   915.32   942.47   945.99
                              998.15  1000.31  1018.69  1053.02  1090.17
                             1129.72  1156.74  1161.95  1206.13  1227.16
                             1313.65  1339.93  1341.89  1362.78  1374.96
                             1381.71  1387.85  1399.48  1406.85  1461.83
                             1494.59  1503.57  1561.51  1583.12  1609.75
                             1631.25  1687.54  1716.39  1731.66  1746.96
                             1754.97  1765.47  1798.53  1835.17  1918.28
                             1927.77  1951.74  1984.33  1989.32  1997.12
                             2036.51  2085.01  2103.57  2117.51  2120.55
                             2133.62  2135.39  2139.76  2145.93  2154.91
                             2157.72  2179.81  2196.30  2251.84  2288.26
                             2311.01  4290.10  4315.57  4326.53  4391.71
                             4401.64  4409.62  4425.42  4431.65  4437.86
                             4456.99  4490.00  4494.21  4546.33  4548.86
                             4550.17  4586.00

 Zero-point correction=                           0.285800 (Hartree/Particle)
 Thermal correction to Energy=                    0.302703
 Thermal correction to Enthalpy=                  0.303647
 Thermal correction to Gibbs Free Energy=         0.242050
 Sum of electronic and zero-point Energies=           -845.942061
 Sum of electronic and thermal Energies=              -845.925159
 Sum of electronic and thermal Enthalpies=            -845.924215
 Sum of electronic and thermal Free Energies=         -845.985811

                     E (Thermal)             CV                S
                      KCal/Mol        Cal/Mol-Kelvin    Cal/Mol-Kelvin
 Total                  189.949             68.942            129.641
 Electronic               0.000              0.000              0.000
 Translational            0.889              2.981             42.613
 Rotational               0.889              2.981             33.787
 Vibrational            188.171             62.980             53.241
 Vibration     1          0.594              1.982              5.453
 Vibration     2          0.595              1.979              5.007
 Vibration     3          0.600              1.961              3.819
 Vibration     4          0.610              1.928              3.022
 Vibration     5          0.612              1.923              2.949
 Vibration     6          0.624              1.883              2.472
 Vibration     7          0.631              1.862              2.292
 Vibration     8          0.651              1.799              1.896
 Vibration     9          0.656              1.784              1.825
 Vibration    10          0.660              1.770              1.761
 Vibration    11          0.662              1.764              1.737
 Vibration    12          0.677              1.718              1.561
 Vibration    13          0.691              1.678              1.429
 Vibration    14          0.702              1.647              1.342
 Vibration    15          0.725              1.580              1.177
 Vibration    16          0.730              1.568              1.150
 Vibration    17          0.741              1.536              1.084
 Vibration    18          0.763              1.477              0.975
 Vibration    19          0.772              1.454              0.935
 Vibration    20          0.784              1.424              0.887
 Vibration    21          0.800              1.382              0.825
 Vibration    22          0.808              1.362              0.797
 Vibration    23          0.828              1.315              0.735
 Vibration    24          0.837              1.294              0.709
 Vibration    25          0.846              1.271              0.683
 Vibration    26          0.913              1.124              0.530
 Vibration    27          0.917              1.116              0.522

 Optimization completed.
    -- Stationary point found.
 Normal termination of Gaussian 16 at Wed Dec 27 22:18:00 2023.
