 Q-Chem 5.4, Q-Chem, Inc., Pleasanton, CA (2021)
 Q-Chem 5.4.0 for Intel X86 EM64T Linux

User input:
--------------------------------------------------------------
$molecule
-2 1
C                 -3.9310510000      0.9424630000      0.9507710000
C                 -3.2754590000     -0.0774980000     -0.0115700000
C                 -3.4785900000     -1.4861640000      0.5763000000
C                 -4.0159300000     -0.0265640000     -1.3717900000
C                 -1.7880220000      0.2690260000     -0.2086280000
C                 -1.4298070000      1.5362180000     -0.7672240000
C                 -0.1098580000      1.8844980000     -0.9504900000
C                  0.9565880000      1.0218100000     -0.6003000000
C                  2.3262590000      1.4474090000     -0.8226000000
O                  2.6232780000      2.5818990000     -1.3316610000
C                  3.3343820000      0.4848480000     -0.4160390000
C                  4.7047220000      0.8028860000     -0.5855730000
C                  5.7117660000     -0.0673360000     -0.2202710000
C                  5.3788860000     -1.3288480000      0.3457950000
C                  4.0530450000     -1.6675990000      0.5251740000
C                  2.9956240000     -0.7967930000      0.1619120000
C                  1.6231430000     -1.2178610000      0.3826900000
O                  1.3271850000     -2.3511320000      0.8945640000
C                  0.6164770000     -0.2537450000     -0.0249750000
C                 -0.7555760000     -0.5813290000      0.1409460000
H                 -4.9995700000      0.7349420000      1.0803280000
H                 -3.4499610000      0.9019560000      1.9333740000
H                 -3.8307560000      1.9652210000      0.5767400000
H                 -3.0443700000     -2.2536200000     -0.0706190000
H                 -4.5490710000     -1.6971740000      0.6819770000
H                 -3.0137900000     -1.5811480000      1.5616880000
H                 -3.9488620000      0.9642470000     -1.8296570000
H                 -5.0803680000     -0.2695620000     -1.2503140000
H                 -3.5772470000     -0.7456060000     -2.0707780000
H                 -2.2052510000      2.2392080000     -1.0602770000
H                  0.1598870000      2.8464380000     -1.3752430000
H                  4.9256900000      1.7726620000     -1.0205850000
H                  6.7547830000      0.2081450000     -0.3644670000
H                  6.1664820000     -2.0219120000      0.6353850000
H                  3.7666670000     -2.6223390000      0.9551350000
H                 -0.9413220000     -1.5576480000      0.5717700000
$end
$rem
MAX_SCF_CYCLES=200
BASIS  =  6-311++G(d,p)
GUI  =  2
JOB_TYPE  =  SP
METHOD  =  B3LYP
SOLVENT_METHOD = PCM
$end
$pcm
theory = CPCM
$end
$solvent
dielectric 37.219
opticaldielectric 1.43
$end

--------------------------------------------------------------

             Standard Nuclear Orientation (Angstroms)
    I     Atom           X                Y                Z
 ----------------------------------------------------------------
    1      C      -3.9310510000     0.9424630000     0.9507710000
    2      C      -3.2754590000    -0.0774980000    -0.0115700000
    3      C      -3.4785900000    -1.4861640000     0.5763000000
    4      C      -4.0159300000    -0.0265640000    -1.3717900000
    5      C      -1.7880220000     0.2690260000    -0.2086280000
    6      C      -1.4298070000     1.5362180000    -0.7672240000
    7      C      -0.1098580000     1.8844980000    -0.9504900000
    8      C       0.9565880000     1.0218100000    -0.6003000000
    9      C       2.3262590000     1.4474090000    -0.8226000000
   10      O       2.6232780000     2.5818990000    -1.3316610000
   11      C       3.3343820000     0.4848480000    -0.4160390000
   12      C       4.7047220000     0.8028860000    -0.5855730000
   13      C       5.7117660000    -0.0673360000    -0.2202710000
   14      C       5.3788860000    -1.3288480000     0.3457950000
   15      C       4.0530450000    -1.6675990000     0.5251740000
   16      C       2.9956240000    -0.7967930000     0.1619120000
   17      C       1.6231430000    -1.2178610000     0.3826900000
   18      O       1.3271850000    -2.3511320000     0.8945640000
   19      C       0.6164770000    -0.2537450000    -0.0249750000
   20      C      -0.7555760000    -0.5813290000     0.1409460000
   21      H      -4.9995700000     0.7349420000     1.0803280000
   22      H      -3.4499610000     0.9019560000     1.9333740000
   23      H      -3.8307560000     1.9652210000     0.5767400000
   24      H      -3.0443700000    -2.2536200000    -0.0706190000
   25      H      -4.5490710000    -1.6971740000     0.6819770000
   26      H      -3.0137900000    -1.5811480000     1.5616880000
   27      H      -3.9488620000     0.9642470000    -1.8296570000
   28      H      -5.0803680000    -0.2695620000    -1.2503140000
   29      H      -3.5772470000    -0.7456060000    -2.0707780000
   30      H      -2.2052510000     2.2392080000    -1.0602770000
   31      H       0.1598870000     2.8464380000    -1.3752430000
   32      H       4.9256900000     1.7726620000    -1.0205850000
   33      H       6.7547830000     0.2081450000    -0.3644670000
   34      H       6.1664820000    -2.0219120000     0.6353850000
   35      H       3.7666670000    -2.6223390000     0.9551350000
   36      H      -0.9413220000    -1.5576480000     0.5717700000
 ----------------------------------------------------------------

    8    -846.4907401678      6.90e-06  Convergence criterion met
 Total energy in the final basis set =     -846.4907401678

                    Orbital Energies (a.u.)
 --------------------------------------------------------------

 Alpha MOs
 -- Occupied --
-19.0227 -19.0221 -10.1758 -10.1741 -10.1732 -10.1530 -10.1477 -10.1473
-10.1460 -10.1459 -10.1455 -10.1453 -10.1446 -10.1440 -10.1440 -10.1398
-10.1349 -10.1345 -10.1336 -10.1329  -0.9451  -0.9420  -0.8344  -0.8234
 -0.7959  -0.7456  -0.7224  -0.7194  -0.7020  -0.6737  -0.6730  -0.6325
 -0.6092  -0.5887  -0.5591  -0.5391  -0.5239  -0.5009  -0.4848  -0.4506
 -0.4407  -0.4336  -0.4273  -0.4248  -0.4114  -0.4036  -0.3982  -0.3873
 -0.3856  -0.3776  -0.3727  -0.3702  -0.3624  -0.3585  -0.3542  -0.3373
 -0.3355  -0.3288  -0.3240  -0.3208  -0.3086  -0.3025  -0.2969  -0.2939
 -0.2338  -0.2257  -0.2245  -0.2119  -0.2058  -0.1973  -0.1041

          Ground-State Mulliken Net Atomic Charges

     Atom                 Charge (a.u.)
  ----------------------------------------
      1 C                    -0.702929
      2 C                     0.621929
      3 C                    -0.546593
      4 C                    -0.700786
      5 C                     0.151578
      6 C                    -0.677078
      7 C                    -0.194418
      8 C                     0.232169
      9 C                    -0.640069
     10 O                    -0.675843
     11 C                     0.194914
     12 C                     0.016165
     13 C                    -0.529749
     14 C                    -0.545906
     15 C                     0.003968
     16 C                     0.372729
     17 C                    -0.506806
     18 O                    -0.680265
     19 C                     0.372106
     20 C                    -0.018372
     21 H                     0.163194
     22 H                     0.146973
     23 H                     0.153917
     24 H                     0.141201
     25 H                     0.171589
     26 H                     0.141661
     27 H                     0.150793
     28 H                     0.163982
     29 H                     0.147902
     30 H                     0.164133
     31 H                     0.155961
     32 H                     0.144194
     33 H                     0.170064
     34 H                     0.172048
     35 H                     0.144156
     36 H                     0.121487
  ----------------------------------------
  Sum of atomic charges =    -2.000002

                    Cartesian Multipole Moments
 -----------------------------------------------------------------
    Charge (ESU x 10^10)
                -9.6064
    Dipole Moment (Debye)
         X     -19.6366      Y      -0.9763      Z       2.0658
       Tot      19.7691
    Quadrupole Moments (Debye-Ang)
        XX    -184.3945     XY     -10.3511     YY    -172.8525
        XZ       8.1416     YZ      18.0806     ZZ    -141.6286

 Total job time:  108.17s(wall), 520.88s(cpu)
        *  Thank you very much for using Q-Chem.  Have a nice day.  *
