 Q-Chem 5.4, Q-Chem, Inc., Pleasanton, CA (2021)
 Q-Chem 5.4.0 for Intel X86 EM64T Linux

User input:
--------------------------------------------------------------
$molecule
0 1
C                 -3.3771490000      3.6872340000      0.0365510000
C                 -4.5920050000      3.0123770000      0.0577090000
C                 -4.6176280000      1.6151870000      0.0814750000
C                 -2.1756580000      2.9720830000      0.0389260000
C                 -2.2012570000      1.5655170000      0.0628530000
C                 -3.4284490000      0.8957120000      0.0840380000
C                 -0.8869420000      3.7239980000      0.0158770000
C                  0.3704130000      2.9214600000      0.0190150000
C                  0.3465820000      1.5183140000      0.0428510000
C                 -0.9409050000      0.7661020000      0.0661820000
C                  1.5973830000      3.5869310000     -0.0022810000
C                  2.7762490000      2.8562380000      0.0003210000
C                  2.7897180000      1.4494910000      0.0239720000
C                  1.5490320000      0.8097750000      0.0449430000
O                 -0.8610070000      4.9433380000     -0.0046910000
O                 -0.9624560000     -0.4538990000      0.0871000000
Br                 4.4294180000      3.8294040000     -0.0300210000
C                  4.0627630000      0.6487950000      0.0268070000
H                 -3.3338170000      4.7691770000      0.0179770000
H                 -5.5207070000      3.5715610000      0.0557530000
H                 -5.5662700000      1.0907730000      0.0979560000
H                 -3.4251640000     -0.1870950000      0.1022740000
H                  1.6057510000      4.6686620000     -0.0205460000
H                  1.5014010000     -0.2726980000      0.0636710000
H                  4.6817330000      0.8958470000      0.8937890000
H                  4.6635770000      0.8611870000     -0.8619480000
H                  3.8444340000     -0.4192200000      0.0500060000
$end
$rem
MAX_SCF_CYCLES=200
BASIS  =  6-311++G(d,p)
GUI  =  2
JOB_TYPE  =  SP
METHOD  =  B3LYP
SOLVENT_METHOD = COSMO
$end
$solvent
dielectric 37.219
opticaldielectric 1.43
$end

--------------------------------------------------------------

             Standard Nuclear Orientation (Angstroms)
    I     Atom           X                Y                Z
 ----------------------------------------------------------------
    1      C       3.7662210397    -1.6811481197    -0.0001203534
    2      C       5.0591410974    -1.1711359544    -0.0003392646
    3      C       5.2677482977     0.2108352070    -0.0003860371
    4      C       2.6688135113    -0.8147048688     0.0000407774
    5      C       2.8786263611     0.5765658772    -0.0000031848
    6      C       4.1831142553     1.0799534395    -0.0002110629
    7      C       1.2925632238    -1.3914469625     0.0002769668
    8      C       0.1512268625    -0.4310460117     0.0001837095
    9      C       0.3588382453     0.9570650352     0.0001210431
   10      C       1.7339119934     1.5342670696     0.0001718789
   11      C      -1.1524745729    -0.9301683605     0.0002055842
   12      C      -2.2254155907    -0.0512817663     0.0001454037
   13      C      -2.0543113758     1.3452859025     0.0001432150
   14      C      -0.7403887360     1.8170754637     0.0001187730
   15      O       1.1069690568    -2.5970341425     0.0005198944
   16      O       1.9152503281     2.7410896910     0.0003037218
   17      Br     -3.9920089545    -0.7996721880    -0.0001807737
   18      C      -3.2114461291     2.3059131979    -0.0000930495
   19      H       3.5813932144    -2.7482291768    -0.0000615345
   20      H       5.9065513269    -1.8472083327    -0.0004758813
   21      H       6.2770123439     0.6065489515    -0.0005543327
   22      H       4.3218386531     2.1539971457    -0.0002396494
   23      H      -1.3026103980    -2.0016182277     0.0002826835
   24      H      -0.5512281639     2.8841206929     0.0001696769
   25      H      -3.8484278750     2.1557553593     0.8759909754
   26      H      -3.8440680624     2.1602224153    -0.8801708641
   27      H      -2.8549136066     3.3363184734     0.0032706806
 ----------------------------------------------------------------

    9   -3301.8220616979      2.60e-06  Convergence criterion met
 Total energy in the final basis set =    -3301.8220616979
    5   -3301.8357248817      2.44e-06  Convergence criterion met
 Total energy in the final basis set =    -3301.8357248817

                    Orbital Energies (a.u.)
 --------------------------------------------------------------

 Alpha MOs
 -- Occupied --
******** -62.4965 -56.3169 -56.3132 -56.3129 -19.1349 -19.1346 -10.2872
-10.2867 -10.2533 -10.2202 -10.2132 -10.2118 -10.2098 -10.2093 -10.2073
-10.2010 -10.1976 -10.1973 -10.1969 -10.1967 -10.1754  -8.7053  -6.5367
 -6.5241  -6.5233  -2.6477  -2.6439  -2.6435  -2.6335  -2.6335  -1.0708
 -1.0689  -0.9064  -0.8880  -0.8392  -0.8078  -0.7897  -0.7789  -0.7592
 -0.7207  -0.6840  -0.6586  -0.6330  -0.6226  -0.5893  -0.5555  -0.5511
 -0.5121  -0.4979  -0.4803  -0.4743  -0.4633  -0.4604  -0.4579  -0.4505
 -0.4492  -0.4363  -0.4357  -0.4235  -0.4014  -0.3917  -0.3911  -0.3796
 -0.3741  -0.3734  -0.3670  -0.3319  -0.3061  -0.2926  -0.2871  -0.2799
 -0.2789  -0.2773  -0.2653

          Ground-State Mulliken Net Atomic Charges

     Atom                 Charge (a.u.)
  ----------------------------------------
      1 C                     0.235768
      2 C                    -0.515074
      3 C                    -0.492732
      4 C                     0.018861
      5 C                     0.269562
      6 C                     0.120982
      7 C                    -0.780160
      8 C                     0.365333
      9 C                     0.328538
     10 C                    -0.535629
     11 C                     0.047825
     12 C                    -0.216257
     13 C                     0.442634
     14 C                    -0.096499
     15 O                    -0.286722
     16 O                    -0.287290
     17 Br                   -0.257815
     18 C                    -0.193614
     19 H                     0.201992
     20 H                     0.228213
     21 H                     0.229995
     22 H                     0.198436
     23 H                     0.233771
     24 H                     0.162367
     25 H                     0.190197
     26 H                     0.190935
     27 H                     0.196383
  ----------------------------------------
  Sum of atomic charges =     0.000000

                    Cartesian Multipole Moments
 -----------------------------------------------------------------
    Charge (ESU x 10^10)
                -0.0000
    Dipole Moment (Debye)
         X       1.4095      Y       1.2843      Z      -0.0014
       Tot       1.9069
    Quadrupole Moments (Debye-Ang)
        XX     -87.1900     XY     -11.2753     YY    -126.3350
        XZ      -0.0050     YZ      -0.0001     ZZ    -118.1972

 Total job time:  113.54s(wall), 561.84s(cpu)
        *  Thank you very much for using Q-Chem.  Have a nice day.  *
