 Gaussian 16, Revision A.03,
 Gaussian 16:  ES64L-G16RevA.03 25-Dec-2016

 --------------------------------------
 #P UB3LYP/6-311++G(d,p) nosym opt freq
 --------------------------------------

 --------
 Oxidized
 --------
 Symbolic Z-matrix:
 Charge =  0 Multiplicity = 1

 SCF Done:  E(UB3LYP) =  -3301.82394410     A.U. after   16 cycles
 Optimization completed.
    -- Stationary point found.
 Normal termination of Gaussian 16 at Wed Dec 27 19:51:40 2023.

 ----------------------------------------------------------------------
 #P Geom=AllCheck Guess=TCheck SCRF=Check GenChk UB3LYP/6-311++G(d,p) F
 req
 ----------------------------------------------------------------------

 Structure from the checkpoint file:  "120.chk"
 --------
 Oxidized
 --------
 Charge =  0 Multiplicity = 1

                          Input orientation:
 ---------------------------------------------------------------------
 Center     Atomic      Atomic             Coordinates (Angstroms)
 Number     Number       Type             X           Y           Z
 ---------------------------------------------------------------------
      1          6           0       -3.377149    3.687234    0.036551
      2          6           0       -4.592005    3.012377    0.057709
      3          6           0       -4.617628    1.615187    0.081475
      4          6           0       -2.175658    2.972083    0.038926
      5          6           0       -2.201257    1.565517    0.062853
      6          6           0       -3.428449    0.895712    0.084038
      7          6           0       -0.886942    3.723998    0.015877
      8          6           0        0.370413    2.921460    0.019015
      9          6           0        0.346582    1.518314    0.042851
     10          6           0       -0.940905    0.766102    0.066182
     11          6           0        1.597383    3.586931   -0.002281
     12          6           0        2.776249    2.856238    0.000321
     13          6           0        2.789718    1.449491    0.023972
     14          6           0        1.549032    0.809775    0.044943
     15          8           0       -0.861007    4.943338   -0.004691
     16          8           0       -0.962456   -0.453899    0.087100
     17         35           0        4.429418    3.829404   -0.030021
     18          6           0        4.062763    0.648795    0.026807
     19          1           0       -3.333817    4.769177    0.017977
     20          1           0       -5.520707    3.571561    0.055753
     21          1           0       -5.566270    1.090773    0.097956
     22          1           0       -3.425164   -0.187095    0.102274
     23          1           0        1.605751    4.668662   -0.020546
     24          1           0        1.501401   -0.272698    0.063671
     25          1           0        4.681733    0.895847    0.893789
     26          1           0        4.663577    0.861187   -0.861948
     27          1           0        3.844434   -0.419220    0.050006
 ---------------------------------------------------------------------

 SCF Done:  E(UB3LYP) =  -3301.82394410     A.U. after    1 cycles

 Alpha  occ. eigenvalues -- -482.84471 -62.49755 -56.31789 -56.31411 -56.31384
 Alpha  occ. eigenvalues --  -19.13078 -19.13053 -10.28349 -10.28313 -10.25663
 Alpha  occ. eigenvalues --  -10.22470 -10.21529 -10.21378 -10.21307 -10.21257
 Alpha  occ. eigenvalues --  -10.20974 -10.20580 -10.20527 -10.20520 -10.20246
 Alpha  occ. eigenvalues --  -10.20244 -10.18845  -8.70726  -6.53862  -6.52598
 Alpha  occ. eigenvalues --   -6.52529  -2.64957  -2.64605  -2.64554  -2.63548
 Alpha  occ. eigenvalues --   -2.63548  -1.06575  -1.06379  -0.90935  -0.89243
 Alpha  occ. eigenvalues --   -0.84198  -0.81205  -0.79468  -0.78327  -0.76207
 Alpha  occ. eigenvalues --   -0.72741  -0.68702  -0.66379  -0.63744  -0.62731
 Alpha  occ. eigenvalues --   -0.59208  -0.55821  -0.55555  -0.51335  -0.50155
 Alpha  occ. eigenvalues --   -0.48489  -0.47868  -0.46206  -0.46150  -0.45558
 Alpha  occ. eigenvalues --   -0.45435  -0.45266  -0.44422  -0.43749  -0.41908
 Alpha  occ. eigenvalues --   -0.41145  -0.39994  -0.39670  -0.38542  -0.37892
 Alpha  occ. eigenvalues --   -0.37527  -0.37142  -0.33209  -0.30700  -0.28983
 Alpha  occ. eigenvalues --   -0.28726  -0.28417  -0.28023  -0.27483  -0.26771
 Alpha virt. eigenvalues --   -0.12025  -0.07951  -0.04402  -0.03417  -0.02698
 Alpha virt. eigenvalues --   -0.01157  -0.00714   0.00979   0.01268   0.01782
 Alpha virt. eigenvalues --    0.02288   0.02824   0.03293   0.03367   0.03576

  Beta  occ. eigenvalues -- -482.84471 -62.49755 -56.31789 -56.31411 -56.31384
  Beta  occ. eigenvalues --  -19.13078 -19.13053 -10.28349 -10.28313 -10.25663
  Beta  occ. eigenvalues --  -10.22470 -10.21529 -10.21378 -10.21307 -10.21257
  Beta  occ. eigenvalues --  -10.20974 -10.20580 -10.20527 -10.20520 -10.20246
  Beta  occ. eigenvalues --  -10.20244 -10.18845  -8.70726  -6.53862  -6.52598
  Beta  occ. eigenvalues --   -6.52529  -2.64957  -2.64605  -2.64554  -2.63548
  Beta  occ. eigenvalues --   -2.63548  -1.06575  -1.06379  -0.90935  -0.89243
  Beta  occ. eigenvalues --   -0.84198  -0.81205  -0.79468  -0.78327  -0.76207
  Beta  occ. eigenvalues --   -0.72741  -0.68702  -0.66379  -0.63744  -0.62731
  Beta  occ. eigenvalues --   -0.59208  -0.55821  -0.55555  -0.51335  -0.50155
  Beta  occ. eigenvalues --   -0.48489  -0.47868  -0.46206  -0.46150  -0.45558
  Beta  occ. eigenvalues --   -0.45435  -0.45266  -0.44422  -0.43749  -0.41908
  Beta  occ. eigenvalues --   -0.41145  -0.39994  -0.39670  -0.38542  -0.37892
  Beta  occ. eigenvalues --   -0.37527  -0.37142  -0.33209  -0.30700  -0.28983
  Beta  occ. eigenvalues --   -0.28726  -0.28417  -0.28023  -0.27483  -0.26771
  Beta virt. eigenvalues --   -0.12025  -0.07951  -0.04402  -0.03417  -0.02698
  Beta virt. eigenvalues --   -0.01157  -0.00714   0.00979   0.01268   0.01782
  Beta virt. eigenvalues --    0.02288   0.02824   0.03293   0.03367   0.03576

 Mulliken charges and spin densities:
               1          2
     1  C    0.198853  -0.000000
     2  C   -0.419248  -0.000000
     3  C   -0.389852   0.000000
     4  C    0.098359  -0.000000
     5  C    0.319185  -0.000000
     6  C    0.088832   0.000000
     7  C   -0.952634   0.000000
     8  C    0.271107   0.000000
     9  C    0.260222   0.000000
    10  C   -0.692773   0.000000
    11  C   -0.015969   0.000000
    12  C   -0.230652   0.000000
    13  C    0.604470  -0.000000
    14  C   -0.046015  -0.000000
    15  O   -0.202923   0.000000
    16  O   -0.206598  -0.000000
    17  Br  -0.179282  -0.000000
    18  C   -0.154159  -0.000000
    19  H    0.186860   0.000000
    20  H    0.178472  -0.000000
    21  H    0.180071  -0.000000
    22  H    0.182463   0.000000
    23  H    0.245171   0.000000
    24  H    0.145981  -0.000000
    25  H    0.179035  -0.000000
    26  H    0.179743  -0.000000
    27  H    0.171282  -0.000000
 Sum of Mulliken charges =  -0.00000   0.00000

 Dipole moment (field-independent basis, Debye):
    X=             -0.8714    Y=             -1.0499    Z=              0.0234  Tot=              1.3646
 Quadrupole moment (field-independent basis, Debye-Ang):
   XX=            -94.1208   YY=           -130.9861   ZZ=           -118.2262
   XY=             -7.3943   XZ=             -0.1342   YZ=              0.1981

  Exact polarizability: 318.500   9.960 213.430  -1.970  -2.003  99.385
 Approx polarizability: 436.504  16.763 411.367  -2.536  -4.332 162.497

                      1                      2                      3
                      A                      A                      A
 Frequencies --     33.5790                58.7870               114.2082
 Red. masses --      8.3725                 5.5221                 5.8245
 Frc consts  --      0.0056                 0.0112                 0.0448
 IR Inten    --      3.1183                 1.8191                 1.3455

                      4                      5                      6
                      A                      A                      A
 Frequencies --    117.8834               124.9337               150.9847
 Red. masses --      5.1780                10.7065                 1.0595
 Frc consts  --      0.0424                 0.0985                 0.0142
 IR Inten    --      0.4386                 0.1305                 0.5692

                      7                      8                      9
                      A                      A                      A
 Frequencies --    184.0922               204.0868               217.0377
 Red. masses --      6.1310                 3.9985                10.1526
 Frc consts  --      0.1224                 0.0981                 0.2818
 IR Inten    --      0.2455                 0.1212                 0.1940

                     10                     11                     12
                      A                      A                      A
 Frequencies --    233.7702               280.9704               314.3784
 Red. masses --      4.2084                 5.9240                 5.8343
 Frc consts  --      0.1355                 0.2755                 0.3397
 IR Inten    --      1.7665                 0.3722                 2.4723

                     13                     14                     15
                      A                      A                      A
 Frequencies --    345.5656               387.8664               425.6452
 Red. masses --      6.8891                11.0167                 3.3887
 Frc consts  --      0.4847                 0.9765                 0.3617
 IR Inten    --      1.0859                23.2117                 3.1282

                     16                     17                     18
                      A                      A                      A
 Frequencies --    449.1619               451.8941               454.7735
 Red. masses --      3.1866                 4.8605                 4.6683
 Frc consts  --      0.3788                 0.5848                 0.5688
 IR Inten    --      0.7867                 0.0402                 0.0707

                     19                     20                     21
                      A                      A                      A
 Frequencies --    456.0665               483.6391               560.7494
 Red. masses --      7.9937                 8.8621                 5.8739
 Frc consts  --      0.9796                 1.2213                 1.0882
 IR Inten    --     11.5168                 2.9757                 0.0095

                     22                     23                     24
                      A                      A                      A
 Frequencies --    608.1677               663.0657               671.0564
 Red. masses --      6.5231                 6.6018                 4.7049
 Frc consts  --      1.4215                 1.7101                 1.2483
 IR Inten    --     26.2805                 4.0738                 0.0724

                     25                     26                     27
                      A                      A                      A
 Frequencies --    683.4532               706.5194               721.0541
 Red. masses --      6.3307                 7.1260                 4.5666
 Frc consts  --      1.7423                 2.0958                 1.3989
 IR Inten    --      3.5720                 4.2556                 0.5757

                     28                     29                     30
                      A                      A                      A
 Frequencies --    733.3062               747.8922               807.4517
 Red. masses --      2.1898                 6.3606                 4.6693
 Frc consts  --      0.6938                 2.0962                 1.7936
 IR Inten    --     74.3838                 4.0939                 0.5215

                     31                     32                     33
                      A                      A                      A
 Frequencies --    811.5015               863.4212               916.3336
 Red. masses --      1.9355                 6.3631                 1.3478
 Frc consts  --      0.7510                 2.7949                 0.6668
 IR Inten    --      9.3414                 1.9091                 0.0025

                     34                     35                     36
                      A                      A                      A
 Frequencies --    928.8608               940.8479               965.0914
 Red. masses --      1.3850                 1.4131                 7.0471
 Frc consts  --      0.7040                 0.7370                 3.8672
 IR Inten    --      0.0002                15.8018                40.4221

                     37                     38                     39
                      A                      A                      A
 Frequencies --   1000.3196              1004.2340              1019.3942
 Red. masses --      3.2368                 1.3834                 1.3278
 Frc consts  --      1.9083                 0.8220                 0.8130
 IR Inten    --    110.6766                 2.1024                 0.0000

                     40                     41                     42
                      A                      A                      A
 Frequencies --   1029.0291              1058.4095              1061.0096
 Red. masses --      1.6793                 1.9411                 1.5262
 Frc consts  --      1.0477                 1.2811                 1.0123
 IR Inten    --      1.9658                 0.0654                 3.4870

                     43                     44                     45
                      A                      A                      A
 Frequencies --   1112.1200              1143.6164              1174.8883
 Red. masses --      2.4900                 3.1754                 1.6355
 Frc consts  --      1.8145                 2.4469                 1.3301
 IR Inten    --      3.5539                 7.9627                 1.7881

                     46                     47                     48
                      A                      A                      A
 Frequencies --   1187.0121              1228.0301              1231.0982
 Red. masses --      1.2957                 3.9976                 2.1182
 Frc consts  --      1.0756                 3.5519                 1.8915
 IR Inten    --     20.9613                26.1996                 0.9377

                     49                     50                     51
                      A                      A                      A
 Frequencies --   1267.1677              1302.8395              1307.3796
 Red. masses --      1.3060                 2.1008                 5.9258
 Frc consts  --      1.2355                 2.1009                 5.9677
 IR Inten    --      1.6512                51.8096               760.9800

                     52                     53                     54
                      A                      A                      A
 Frequencies --   1335.2800              1359.1437              1407.8876
 Red. masses --      7.8226                 7.8037                 4.1644
 Frc consts  --      8.2177                 8.4934                 4.8634
 IR Inten    --     56.2805                21.4953                 0.6580

                     55                     56                     57
                      A                      A                      A
 Frequencies --   1419.5916              1480.1045              1480.6214
 Red. masses --      1.3245                 1.0438                 2.1848
 Frc consts  --      1.5727                 1.3472                 2.8219
 IR Inten    --      4.8880                11.1263                 0.2959

                     58                     59                     60
                      A                      A                      A
 Frequencies --   1487.2269              1499.4026              1506.0938
 Red. masses --      1.6873                 1.9352                 2.4076
 Frc consts  --      2.1988                 2.5633                 3.2177
 IR Inten    --      0.7122                 5.3108                10.0036

                     61                     62                     63
                      A                      A                      A
 Frequencies --   1584.2254              1613.4443              1618.0726
 Red. masses --      7.7540                 6.7428                 6.9874
 Frc consts  --     11.4659                10.3418                10.7785
 IR Inten    --     28.6866                18.2265               152.7954

                     64                     65                     66
                      A                      A                      A
 Frequencies --   1629.6259              1718.6803              1729.4251
 Red. masses --      5.7621                12.7154                12.1310
 Frc consts  --      9.0159                22.1294                21.3771
 IR Inten    --     22.3010                 6.1100               314.2163

                     67                     68                     69
                      A                      A                      A
 Frequencies --   3033.8587              3084.9154              3119.4763
 Red. masses --      1.0369                 1.0998                 1.1015
 Frc consts  --      5.6229                 6.1666                 6.3153
 IR Inten    --     10.6093                 6.9166                13.0826

                     70                     71                     72
                      A                      A                      A
 Frequencies --   3170.8836              3185.0978              3189.2193
 Red. masses --      1.0870                 1.0917                 1.0903
 Frc consts  --      6.4396                 6.5255                 6.5337
 IR Inten    --      3.1633                 9.9823                 3.0147

                     73                     74                     75
                      A                      A                      A
 Frequencies --   3200.1753              3202.7658              3210.9982
 Red. masses --      1.0925                 1.0950                 1.0915
 Frc consts  --      6.5922                 6.6180                 6.6308
 IR Inten    --      0.2186                12.6385                 4.0791

 - Thermochemistry -
 -------------------
 Temperature   298.150 Kelvin.  Pressure   1.00000 Atm.
 Atom     1 has atomic number  6 and mass  12.00000

 Molecular mass:   299.97859 amu.
 Principal axes and moments of inertia in atomic units:
                           1         2         3
     Eigenvalues --  2157.76403********************
           X            0.98781  -0.15548   0.00821
           Y            0.15532   0.98772   0.01690
           Z           -0.01074  -0.01541   0.99982
 This molecule is an asymmetric top.
 Rotational symmetry number  1.
 Warning -- assumption of classical behavior for rotation
           may cause significant error
 Rotational temperatures (Kelvin)      0.04014     0.00809     0.00674
 Rotational constants (GHZ):           0.83639     0.16852     0.14038
 Zero-point vibrational energy     515655.5 (Joules/Mol)
                                  123.24461 (Kcal/Mol)
 Warning -- explicit consideration of  22 degrees of freedom as
           vibrations may cause significant error
 Vibrational temperatures:     48.31    84.58   164.32   169.61   179.75
          (Kelvin)            217.23   264.87   293.64   312.27   336.34
                              404.25   452.32   497.19   558.05   612.41
                              646.24   650.17   654.32   656.18   695.85
                              806.79   875.02   954.00   965.50   983.34
                             1016.52  1037.44  1055.06  1076.05  1161.74
                             1167.57  1242.27  1318.40  1336.42  1353.67
                             1388.55  1439.24  1444.87  1466.68  1480.54
                             1522.82  1526.56  1600.09  1645.41  1690.40
                             1707.85  1766.86  1771.28  1823.17  1874.50
                             1881.03  1921.17  1955.50  2025.64  2042.48
                             2129.54  2130.28  2139.79  2157.31  2166.93
                             2279.35  2321.39  2328.05  2344.67  2472.80
                             2488.26  4365.05  4438.51  4488.23  4562.19
                             4582.65  4588.58  4604.34  4608.07  4619.91

 Zero-point correction=                           0.196403 (Hartree/Particle)
 Thermal correction to Energy=                    0.210886
 Thermal correction to Enthalpy=                  0.211830
 Thermal correction to Gibbs Free Energy=         0.153710
 Sum of electronic and zero-point Energies=          -3301.627541
 Sum of electronic and thermal Energies=             -3301.613058
 Sum of electronic and thermal Enthalpies=           -3301.612114
 Sum of electronic and thermal Free Energies=        -3301.670234

                     E (Thermal)             CV                S
                      KCal/Mol        Cal/Mol-Kelvin    Cal/Mol-Kelvin
 Total                  132.333             55.968            122.324
 Electronic               0.000              0.000              0.000
 Translational            0.889              2.981             42.993
 Rotational               0.889              2.981             34.051
 Vibrational            130.555             50.007             45.280
 Vibration     1          0.594              1.983              5.606
 Vibration     2          0.596              1.974              4.497
 Vibration     3          0.607              1.938              3.196
 Vibration     4          0.608              1.934              3.135
 Vibration     5          0.610              1.928              3.023
 Vibration     6          0.618              1.902              2.660
 Vibration     7          0.631              1.862              2.287
 Vibration     8          0.640              1.834              2.096
 Vibration     9          0.646              1.815              1.984
 Vibration    10          0.654              1.789              1.850
 Vibration    11          0.681              1.709              1.528
 Vibration    12          0.702              1.646              1.339
 Vibration    13          0.724              1.584              1.186
 Vibration    14          0.756              1.496              1.008
 Vibration    15          0.787              1.414              0.873
 Vibration    16          0.808              1.363              0.798
 Vibration    17          0.811              1.357              0.790
 Vibration    18          0.813              1.350              0.781
 Vibration    19          0.814              1.347              0.778
 Vibration    20          0.840              1.286              0.700
 Vibration    21          0.916              1.116              0.522
 Vibration    22          0.967              1.015              0.436

                           ! Non-Optimized Parameters !
 Normal termination of Gaussian 16 at Wed Dec 27 21:13:15 2023.
