 Gaussian 16, Revision A.03,
 Gaussian 16:  ES64L-G16RevA.03 25-Dec-2016

 ----------------------------------------------------------------------
 #P UB3LYP/6-311++G(d,p) nosym opt freq SCRF=(PCM,Solvent=n,n-DiMethylF
 ormamide)
 ----------------------------------------------------------------------

 --------
 Oxidized
 --------
 Symbolic Z-matrix:
 Charge =  0 Multiplicity = 1

 SCF Done:  E(UB3LYP) =  -765.361609670     A.U. after   15 cycles
 SCF Done:  E(UB3LYP) =  -765.361633438     A.U. after   14 cycles
 SCF Done:  E(UB3LYP) =  -765.361711203     A.U. after   14 cycles
 SCF Done:  E(UB3LYP) =  -765.361707872     A.U. after   13 cycles
 SCF Done:  E(UB3LYP) =  -765.361745742     A.U. after   12 cycles
 SCF Done:  E(UB3LYP) =  -765.361773871     A.U. after   11 cycles
 SCF Done:  E(UB3LYP) =  -765.361775770     A.U. after   11 cycles
 SCF Done:  E(UB3LYP) =  -765.361775829     A.U. after   10 cycles
 SCF Done:  E(UB3LYP) =  -765.361776002     A.U. after    9 cycles
 SCF Done:  E(UB3LYP) =  -765.361776060     A.U. after    9 cycles
 Optimization completed.
    -- Stationary point found.
 Normal termination of Gaussian 16 at Sat Feb 10 11:28:25 2024.

 ----------------------------------------------------------------------
 #P Geom=AllCheck Guess=TCheck SCRF=Check GenChk UB3LYP/6-311++G(d,p) F
 req
 ----------------------------------------------------------------------

 Structure from the checkpoint file:  "077.chk"
 --------
 Oxidized
 --------
 Charge =  0 Multiplicity = 1

                          Input orientation:
 ---------------------------------------------------------------------
 Center     Atomic      Atomic             Coordinates (Angstroms)
 Number     Number       Type             X           Y           Z
 ---------------------------------------------------------------------
      1          6           0        0.321697    1.802236   -2.190615
      2          6           0       -1.123889    2.104239   -2.059424
      3          6           0       -2.027596    1.142917   -1.830932
      4          6           0       -1.612813   -0.270966   -1.697883
      5          6           0       -0.165797   -0.577171   -1.806141
      6          6           0        0.754511    0.383315   -1.994532
      7          8           0        1.119410    2.678481   -2.487541
      8          8           0       -2.428094   -1.162457   -1.504070
      9          6           0        3.275026    0.776909   -1.395942
     10          6           0        4.485914    0.935146   -2.090664
     11          6           0        3.137592    1.292387   -0.087142
     12          6           0        4.232941    1.969384    0.462497
     13          6           0        5.549409    1.629415   -1.531039
     14          6           0        5.418609    2.151136   -0.244713
     15          1           0       -1.401477    3.144921   -2.181612
     16          1           0       -3.088115    1.349901   -1.746515
     17          1           0        0.114032   -1.619649   -1.702965
     18          1           0        4.569602    0.519002   -3.087022
     19          1           0        4.153142    2.354474    1.473237
     20          1           0        6.469121    1.760123   -2.088823
     21          1           0        6.240307    2.690684    0.212524
     22          6           0        2.216275    0.013366   -2.119489
     23          8           0        2.503987   -0.915289   -2.859472
     24          6           0        1.903841    1.111280    0.767877
     25          1           0        1.516948    0.091816    0.730711
     26          1           0        1.095080    1.784570    0.468001
     27          1           0        2.137466    1.340588    1.808499
 ---------------------------------------------------------------------

 SCF Done:  E(UB3LYP) =  -765.361776060     A.U. after    2 cycles

 Alpha  occ. eigenvalues --  -19.15442 -19.15308 -19.14155 -10.30187 -10.29763
 Alpha  occ. eigenvalues --  -10.29418 -10.23327 -10.22707 -10.22161 -10.22045
 Alpha  occ. eigenvalues --  -10.20822 -10.20197 -10.19241 -10.19113 -10.18601
 Alpha  occ. eigenvalues --  -10.18569 -10.17713  -1.08537  -1.08030  -1.07352
 Alpha  occ. eigenvalues --   -0.88154  -0.87680  -0.81526  -0.79075  -0.77586
 Alpha  occ. eigenvalues --   -0.72760  -0.70615  -0.67911  -0.63822  -0.62726
 Alpha  occ. eigenvalues --   -0.61038  -0.57003  -0.53846  -0.52904  -0.51575
 Alpha  occ. eigenvalues --   -0.49814  -0.48929  -0.48178  -0.46607  -0.46016
 Alpha  occ. eigenvalues --   -0.45930  -0.44895  -0.44500  -0.43694  -0.42986
 Alpha  occ. eigenvalues --   -0.42470  -0.42059  -0.41004  -0.39843  -0.37311
 Alpha  occ. eigenvalues --   -0.36869  -0.35915  -0.32328  -0.31576  -0.30552
 Alpha  occ. eigenvalues --   -0.30151  -0.27856  -0.27026  -0.26407
 Alpha virt. eigenvalues --   -0.14959  -0.08634  -0.04625  -0.02610  -0.01672
 Alpha virt. eigenvalues --   -0.00600   0.00225   0.01049   0.01099   0.01486
 Alpha virt. eigenvalues --    0.01951   0.02944   0.03537   0.03571   0.04589

  Beta  occ. eigenvalues --  -19.15442 -19.15308 -19.14155 -10.30187 -10.29763
  Beta  occ. eigenvalues --  -10.29418 -10.23327 -10.22707 -10.22161 -10.22045
  Beta  occ. eigenvalues --  -10.20822 -10.20197 -10.19241 -10.19113 -10.18601
  Beta  occ. eigenvalues --  -10.18569 -10.17713  -1.08537  -1.08030  -1.07352
  Beta  occ. eigenvalues --   -0.88154  -0.87680  -0.81526  -0.79075  -0.77586
  Beta  occ. eigenvalues --   -0.72760  -0.70615  -0.67911  -0.63822  -0.62726
  Beta  occ. eigenvalues --   -0.61038  -0.57003  -0.53846  -0.52904  -0.51575
  Beta  occ. eigenvalues --   -0.49814  -0.48929  -0.48178  -0.46607  -0.46016
  Beta  occ. eigenvalues --   -0.45930  -0.44895  -0.44500  -0.43694  -0.42986
  Beta  occ. eigenvalues --   -0.42470  -0.42059  -0.41004  -0.39843  -0.37311
  Beta  occ. eigenvalues --   -0.36869  -0.35915  -0.32328  -0.31576  -0.30552
  Beta  occ. eigenvalues --   -0.30151  -0.27856  -0.27026  -0.26407
  Beta virt. eigenvalues --   -0.14959  -0.08634  -0.04625  -0.02610  -0.01672
  Beta virt. eigenvalues --   -0.00600   0.00225   0.01049   0.01099   0.01486
  Beta virt. eigenvalues --    0.01951   0.02944   0.03537   0.03571   0.04589

 Mulliken charges and spin densities:
               1          2
     1  C   -1.062703   0.000000
     2  C   -0.044187  -0.000000
     3  C    0.210342   0.000000
     4  C   -0.449367   0.000000
     5  C    0.093563  -0.000000
     6  C    1.573993  -0.000000
     7  O   -0.204928  -0.000000
     8  O   -0.273158  -0.000000
     9  C    0.583374  -0.000000
    10  C   -0.093442   0.000000
    11  C    0.487548   0.000000
    12  C   -0.131260  -0.000000
    13  C   -0.581805   0.000000
    14  C   -0.253205   0.000000
    15  H    0.258576  -0.000000
    16  H    0.254732  -0.000000
    17  H    0.275596   0.000000
    18  H    0.230862  -0.000000
    19  H    0.180777  -0.000000
    20  H    0.197143  -0.000000
    21  H    0.199275   0.000000
    22  C   -1.072986   0.000000
    23  O   -0.244950  -0.000000
    24  C   -0.692541   0.000000
    25  H    0.183988  -0.000000
    26  H    0.191774   0.000000
    27  H    0.182989  -0.000000
 Sum of Mulliken charges =  -0.00000  -0.00000

 Dipole moment (field-independent basis, Debye):
    X=             -0.2973    Y=              3.3789    Z=              3.3117  Tot=              4.7406
 Quadrupole moment (field-independent basis, Debye-Ang):
   XX=            -92.7936   YY=           -103.9473   ZZ=           -104.8917
   XY=             -2.6443   XZ=             10.6103   YZ=             -1.4982

  Exact polarizability: 300.497  69.108 227.045 -11.918  16.984 186.353
 Approx polarizability: 338.515 101.943 288.870 -26.034  16.693 224.145

                      1                      2                      3
                      A                      A                      A
 Frequencies --     31.6045                44.8190                65.3568
 Red. masses --      8.5238                 4.7815                 4.6972
 Frc consts  --      0.0050                 0.0057                 0.0118
 IR Inten    --      1.4748                 0.5903                 5.7740

                      4                      5                      6
                      A                      A                      A
 Frequencies --     87.7887               116.1033               149.2480
 Red. masses --      8.6302                 6.8901                 2.8943
 Frc consts  --      0.0392                 0.0547                 0.0380
 IR Inten    --     11.4681                14.4383                 1.4721

                      7                      8                      9
                      A                      A                      A
 Frequencies --    163.8353               186.7568               218.0568
 Red. masses --      1.3575                 3.7920                 4.2207
 Frc consts  --      0.0215                 0.0779                 0.1182
 IR Inten    --      0.2753                 3.7807                 2.5145

                     10                     11                     12
                      A                      A                      A
 Frequencies --    250.7050               259.1441               321.9250
 Red. masses --      4.4994                 5.2789                 6.2929
 Frc consts  --      0.1666                 0.2089                 0.3842
 IR Inten    --      6.4462                 0.9489                 1.6373

                     13                     14                     15
                      A                      A                      A
 Frequencies --    346.7166               403.8761               427.1995
 Red. masses --      3.8268                 4.8267                 7.6046
 Frc consts  --      0.2710                 0.4639                 0.8177
 IR Inten    --      2.1638                15.6234                30.2483

                     16                     17                     18
                      A                      A                      A
 Frequencies --    430.0679               469.5458               480.6247
 Red. masses --      3.7240                 9.5851                 3.2277
 Frc consts  --      0.4058                 1.2451                 0.4393
 IR Inten    --      7.2286                 1.6771                17.8182

                     19                     20                     21
                      A                      A                      A
 Frequencies --    531.0426               540.6305               550.5311
 Red. masses --      4.0202                 4.0955                 4.2733
 Frc consts  --      0.6680                 0.7053                 0.7631
 IR Inten    --      5.3191                17.6557                 1.4654

                     22                     23                     24
                      A                      A                      A
 Frequencies --    612.3234               630.6398               674.7197
 Red. masses --      7.3101                 3.9272                 6.2446
 Frc consts  --      1.6149                 0.9202                 1.6750
 IR Inten    --      5.7092                 6.6479                13.4519

                     25                     26                     27
                      A                      A                      A
 Frequencies --    712.5450               740.3029               770.1617
 Red. masses --      3.8381                 2.0050                 2.0874
 Frc consts  --      1.1481                 0.6474                 0.7295
 IR Inten    --      4.8471                44.5899                55.6101

                     28                     29                     30
                      A                      A                      A
 Frequencies --    791.9756               801.0812               827.0309
 Red. masses --      3.1935                 3.7970                 3.8514
 Frc consts  --      1.1802                 1.4356                 1.5521
 IR Inten    --      1.8072                17.7945                10.0434

                     31                     32                     33
                      A                      A                      A
 Frequencies --    832.2000               861.4310               889.1369
 Red. masses --      5.4319                 2.9806                 1.3559
 Frc consts  --      2.2164                 1.3032                 0.6315
 IR Inten    --     12.3087                48.3738                 7.4844

                     34                     35                     36
                      A                      A                      A
 Frequencies --    936.7123               960.3919               979.4308
 Red. masses --      2.3010                 2.2075                 1.3951
 Frc consts  --      1.1896                 1.1996                 0.7885
 IR Inten    --    117.4172                78.0250                 7.6007

                     37                     38                     39
                      A                      A                      A
 Frequencies --   1009.8761              1011.3504              1018.5683
 Red. masses --      1.4480                 1.4101                 1.2688
 Frc consts  --      0.8701                 0.8498                 0.7756
 IR Inten    --      0.8151                 0.7578                 0.1799

                     40                     41                     42
                      A                      A                      A
 Frequencies --   1055.4493              1063.2139              1083.3412
 Red. masses --      1.5699                 3.0864                 2.5128
 Frc consts  --      1.0304                 2.0556                 1.7376
 IR Inten    --      9.4203                 0.3655                14.8244

                     43                     44                     45
                      A                      A                      A
 Frequencies --   1122.6605              1138.9524              1183.3738
 Red. masses --      1.7961                 1.6902                 1.1028
 Frc consts  --      1.3337                 1.2918                 0.9099
 IR Inten    --     42.1700                47.1926                 3.9245

                     46                     47                     48
                      A                      A                      A
 Frequencies --   1212.4210              1217.4684              1262.2547
 Red. masses --      2.2063                 1.9070                 2.9013
 Frc consts  --      1.9108                 1.6654                 2.7236
 IR Inten    --      0.3147                24.6712               258.1250

                     49                     50                     51
                      A                      A                      A
 Frequencies --   1288.4943              1311.4466              1324.6934
 Red. masses --      3.1792                 1.6542                 6.8809
 Frc consts  --      3.1098                 1.6762                 7.1142
 IR Inten    --    168.7705                93.7742                11.5477

                     52                     53                     54
                      A                      A                      A
 Frequencies --   1346.9266              1391.3849              1414.7691
 Red. masses --      2.2660                 1.9350                 1.2242
 Frc consts  --      2.4221                 2.2071                 1.4437
 IR Inten    --     67.7015                 3.3806                 1.3990

                     55                     56                     57
                      A                      A                      A
 Frequencies --   1463.4731              1486.3764              1492.5699
 Red. masses --      1.6430                 1.2614                 1.1527
 Frc consts  --      2.0733                 1.6419                 1.5130
 IR Inten    --     51.7739                29.5547                21.3403

                     58                     59                     60
                      A                      A                      A
 Frequencies --   1511.5077              1603.0723              1629.0780
 Red. masses --      2.0629                 5.6582                 5.8355
 Frc consts  --      2.7768                 8.5671                 9.1246
 IR Inten    --      6.0197                 2.7474               128.6356

                     61                     62                     63
                      A                      A                      A
 Frequencies --   1642.0482              1666.2978              1690.7276
 Red. masses --      8.2254                 9.7418                12.1971
 Frc consts  --     13.0671                15.9366                20.5426
 IR Inten    --      5.2570                65.8444               704.9226

                     64                     65                     66
                      A                      A                      A
 Frequencies --   1697.9260              1713.8187              3034.1491
 Red. masses --     11.4481                 8.7302                 1.0417
 Frc consts  --     19.4455                15.1078                 5.6504
 IR Inten    --    841.0213                 2.8086                39.9215

                     67                     68                     69
                      A                      A                      A
 Frequencies --   3091.5708              3116.3763              3166.5442
 Red. masses --      1.0937                 1.1023                 1.0872
 Frc consts  --      6.1587                 6.3076                 6.4228
 IR Inten    --     24.0336                20.8956                 5.7106

                     70                     71                     72
                      A                      A                      A
 Frequencies --   3177.8173              3185.3150              3188.2216
 Red. masses --      1.0896                 1.0879                 1.0931
 Frc consts  --      6.4830                 6.5033                 6.5464
 IR Inten    --     13.5923                 2.1939                18.5553

                     73                     74                     75
                      A                      A                      A
 Frequencies --   3189.1947              3198.9730              3201.1205
 Red. masses --      1.0926                 1.0962                 1.0996
 Frc consts  --      6.5473                 6.6092                 6.6390
 IR Inten    --      1.6804                17.7057                 1.4366

 - Thermochemistry -
 -------------------
 Temperature   298.150 Kelvin.  Pressure   1.00000 Atm.
 Atom     1 has atomic number  6 and mass  12.00000

 Molecular mass:   226.06299 amu.
 Principal axes and moments of inertia in atomic units:
                           1         2         3
     Eigenvalues --  1730.532446101.755516388.47407
           X            0.96434  -0.26275  -0.03186
           Y            0.20997   0.83276  -0.51228
           Z            0.16113   0.48732   0.85823
 This molecule is an asymmetric top.
 Rotational symmetry number  1.
 Warning -- assumption of classical behavior for rotation
           may cause significant error
 Rotational temperatures (Kelvin)      0.05005     0.01419     0.01356
 Rotational constants (GHZ):           1.04288     0.29577     0.28250
 Zero-point vibrational energy     530534.8 (Joules/Mol)
                                  126.80085 (Kcal/Mol)
 Warning -- explicit consideration of  22 degrees of freedom as
           vibrations may cause significant error
 Vibrational temperatures:     45.47    64.48    94.03   126.31   167.05
          (Kelvin)            214.73   235.72   268.70   313.74   360.71
                              372.85   463.18   498.85   581.09   614.64
                              618.77   675.57   691.51   764.05   777.85
                              792.09   881.00   907.35   970.77  1025.19
                             1065.13  1108.09  1139.48  1152.58  1189.91
                             1197.35  1239.41  1279.27  1347.72  1381.79
                             1409.18  1452.99  1455.11  1465.49  1518.56
                             1529.73  1558.69  1615.26  1638.70  1702.61
                             1744.40  1751.67  1816.10  1853.86  1886.88
                             1905.94  1937.93  2001.89  2035.54  2105.61
                             2138.56  2147.48  2174.72  2306.46  2343.88
                             2362.54  2397.43  2432.58  2442.94  2465.80
                             4365.46  4448.08  4483.77  4555.95  4572.17
                             4582.96  4587.14  4588.54  4602.61  4605.70

 Zero-point correction=                           0.202070 (Hartree/Particle)
 Thermal correction to Energy=                    0.216581
 Thermal correction to Enthalpy=                  0.217526
 Thermal correction to Gibbs Free Energy=         0.159505
 Sum of electronic and zero-point Energies=           -765.159706
 Sum of electronic and thermal Energies=              -765.145195
 Sum of electronic and thermal Enthalpies=            -765.144250
 Sum of electronic and thermal Free Energies=         -765.202271

                     E (Thermal)             CV                S
                      KCal/Mol        Cal/Mol-Kelvin    Cal/Mol-Kelvin
 Total                  135.907             54.996            122.114
 Electronic               0.000              0.000              0.000
 Translational            0.889              2.981             42.149
 Rotational               0.889              2.981             32.578
 Vibrational            134.129             49.035             47.386
 Vibration     1          0.594              1.983              5.726
 Vibration     2          0.595              1.979              5.034
 Vibration     3          0.597              1.971              4.289
 Vibration     4          0.601              1.958              3.709
 Vibration     5          0.608              1.936              3.164
 Vibration     6          0.618              1.903              2.682
 Vibration     7          0.623              1.887              2.505
 Vibration     8          0.632              1.858              2.260
 Vibration     9          0.646              1.814              1.975
 Vibration    10          0.663              1.762              1.726
 Vibration    11          0.668              1.747              1.668
 Vibration    12          0.707              1.632              1.300
 Vibration    13          0.725              1.582              1.181
 Vibration    14          0.769              1.462              0.949
 Vibration    15          0.789              1.411              0.868
 Vibration    16          0.791              1.405              0.858
 Vibration    17          0.827              1.318              0.739
 Vibration    18          0.837              1.293              0.708
 Vibration    19          0.886              1.181              0.585
 Vibration    20          0.896              1.160              0.564
 Vibration    21          0.906              1.139              0.543
 Vibration    22          0.972              1.006              0.429

                           ! Non-Optimized Parameters !
 Normal termination of Gaussian 16 at Sat Feb 10 12:28:55 2024.
