 Gaussian 16, Revision A.03,
 Gaussian 16:  ES64L-G16RevA.03 25-Dec-2016

 ----------------------------------------------------------------
 #P UB3LYP/6-311++G(d,p) SCRF=(PCM,Solvent=n,n-DiMethylFormamide)
 ----------------------------------------------------------------

 ------------------
 Radical PCM in DMF
 ------------------
 Symbolic Z-matrix:
 Charge = -1 Multiplicity = 2

                         Standard orientation:
 ---------------------------------------------------------------------
 Center     Atomic      Atomic             Coordinates (Angstroms)
 Number     Number       Type             X           Y           Z
 ---------------------------------------------------------------------
      1          6           0       -0.751472    0.945286   -0.578015
      2          6           0       -2.026398    1.550061   -0.200658
      3          6           0       -3.046455    0.794733    0.315901
      4          6           0       -2.912025   -0.646613    0.509232
      5          6           0       -1.643743   -1.282865    0.144313
      6          6           0       -0.619378   -0.483251   -0.344762
      7          8           0        0.180368    1.631117   -1.069986
      8          8           0       -3.867107   -1.327639    0.977963
      9         16           0        0.990099   -1.165083   -0.815679
     10          6           0        2.247405   -0.156497    0.033677
     11          6           0        2.907239    0.859610   -0.649837
     12          6           0        2.578723   -0.479623    1.346399
     13          6           0        3.584204    0.239074    1.992629
     14          6           0        3.921097    1.562016   -0.002182
     15          6           0        4.256891    1.257237    1.317783
     16          8           0        1.220657   -1.029921   -2.263234
     17          8           0        1.138108   -2.508187   -0.216277
     18          1           0        2.607708    1.091552   -1.661877
     19          1           0        2.064462   -1.292449    1.843830
     20          1           0        4.442051    2.356543   -0.525840
     21          1           0        3.846389   -0.003412    3.017043
     22          6           0       -4.364675    1.419179    0.700252
     23          6           0       -2.166051    3.036053   -0.415102
     24          1           0        5.041415    1.814034    1.820158
     25          1           0       -4.834404    1.919973   -0.154797
     26          1           0       -4.235028    2.180580    1.479037
     27          1           0       -5.039681    0.648985    1.071809
     28          1           0       -2.980725    3.266646   -1.112371
     29          1           0       -1.236824    3.434283   -0.821875
     30          1           0       -2.394301    3.557757    0.522133
     31          6           0       -1.592407   -2.778813    0.330161
     32          1           0       -2.592144   -3.117979    0.598027
     33          1           0       -0.892875   -3.061787    1.120705
     34          1           0       -1.251555   -3.289866   -0.571577
 ---------------------------------------------------------------------

 SCF Done:  E(UB3LYP) =  -1279.45539866     A.U. after   22 cycles

 The electronic state is 2-A.
 Alpha  occ. eigenvalues --  -89.04755 -19.11513 -19.11055 -19.08223 -19.08090
 Alpha  occ. eigenvalues --  -10.23324 -10.22491 -10.20875 -10.19648 -10.19443
 Alpha  occ. eigenvalues --  -10.19199 -10.18887 -10.18758 -10.18599 -10.18492
 Alpha  occ. eigenvalues --  -10.17459 -10.17341 -10.15599 -10.15543 -10.15334
 Alpha  occ. eigenvalues --   -8.11120  -6.07409  -6.07297  -6.07205  -1.10565
 Alpha  occ. eigenvalues --   -1.01126  -1.00631  -1.00057  -0.87449  -0.84098
 Alpha  occ. eigenvalues --   -0.80013  -0.77611  -0.76165  -0.73116  -0.72371
 Alpha  occ. eigenvalues --   -0.69407  -0.65027  -0.64196  -0.62094  -0.60327
 Alpha  occ. eigenvalues --   -0.56415  -0.55356  -0.53489  -0.50926  -0.49169
 Alpha  occ. eigenvalues --   -0.47934  -0.47207  -0.45497  -0.44925  -0.44334
 Alpha  occ. eigenvalues --   -0.44118  -0.43511  -0.42096  -0.41543  -0.40931
 Alpha  occ. eigenvalues --   -0.40081  -0.39586  -0.39011  -0.38723  -0.37991
 Alpha  occ. eigenvalues --   -0.37756  -0.37158  -0.36874  -0.35936  -0.35727
 Alpha  occ. eigenvalues --   -0.35163  -0.33614  -0.32491  -0.30759  -0.29477
 Alpha  occ. eigenvalues --   -0.28388  -0.27343  -0.26896  -0.25199  -0.24608
 Alpha  occ. eigenvalues --   -0.23761  -0.16741
 Alpha virt. eigenvalues --   -0.04490  -0.02404  -0.01898  -0.00677   0.00142
 Alpha virt. eigenvalues --    0.00774   0.01583   0.01971   0.02238   0.02823
 Alpha virt. eigenvalues --    0.03135   0.03598   0.03735   0.04168   0.04270

  Beta  occ. eigenvalues --  -89.04757 -19.11505 -19.11052 -19.07504 -19.07480
  Beta  occ. eigenvalues --  -10.23208 -10.22352 -10.20874 -10.19574 -10.19198
  Beta  occ. eigenvalues --  -10.19157 -10.18886 -10.18756 -10.18598 -10.18491
  Beta  occ. eigenvalues --  -10.17425 -10.17255 -10.15606 -10.15547 -10.15353
  Beta  occ. eigenvalues --   -8.11122  -6.07410  -6.07299  -6.07209  -1.10548
  Beta  occ. eigenvalues --   -1.00284  -0.99887  -0.99318  -0.87444  -0.83523
  Beta  occ. eigenvalues --   -0.79800  -0.77549  -0.76161  -0.72666  -0.72248
  Beta  occ. eigenvalues --   -0.69238  -0.64821  -0.63668  -0.62089  -0.60210
  Beta  occ. eigenvalues --   -0.56244  -0.54974  -0.53379  -0.50750  -0.48997
  Beta  occ. eigenvalues --   -0.47875  -0.47181  -0.45455  -0.44872  -0.44044
  Beta  occ. eigenvalues --   -0.43461  -0.43389  -0.41603  -0.41050  -0.40659
  Beta  occ. eigenvalues --   -0.39514  -0.39375  -0.38890  -0.38576  -0.37868
  Beta  occ. eigenvalues --   -0.37133  -0.36824  -0.35919  -0.35593  -0.34974
  Beta  occ. eigenvalues --   -0.34550  -0.33474  -0.32402  -0.30686  -0.29360
  Beta  occ. eigenvalues --   -0.27343  -0.26980  -0.25445  -0.24591  -0.23723
  Beta  occ. eigenvalues --   -0.23219
  Beta virt. eigenvalues --   -0.09613  -0.04217  -0.02291  -0.00774  -0.00656
  Beta virt. eigenvalues --    0.00151   0.00790   0.01621   0.02164   0.02795
  Beta virt. eigenvalues --    0.03034   0.03617   0.03677   0.03951   0.04296

 Mulliken charges and spin densities:
               1          2
     1  C   -0.858046   0.041028
     2  C    0.521208   0.068799
     3  C    0.930553   0.042149
     4  C   -1.526733   0.054402
     5  C    0.799514   0.208211
     6  C    0.045993   0.087910
     7  O   -0.376585   0.217936
     8  O   -0.435857   0.270695
     9  S    0.329104  -0.024655
    10  C    0.232675  -0.009598
    11  C   -0.251453   0.025485
    12  C    0.167799  -0.001781
    13  C   -0.509474   0.002885
    14  C   -0.391134  -0.003475
    15  C   -0.320143   0.000663
    16  O   -0.198131   0.003629
    17  O   -0.202195  -0.001050
    18  H    0.258808   0.000282
    19  H    0.233959   0.000621
    20  H    0.211024  -0.000060
    21  H    0.211356   0.000007
    22  C   -0.469042   0.001846
    23  C   -0.541422  -0.001497
    24  H    0.189731  -0.000078
    25  H    0.156471   0.001167
    26  H    0.158049   0.001004
    27  H    0.186424  -0.001871
    28  H    0.155652   0.002866
    29  H    0.186317  -0.001073
    30  H    0.152565   0.002750
    31  C   -0.587275  -0.005932
    32  H    0.176173  -0.001890
    33  H    0.187618   0.010743
    34  H    0.176498   0.007880
 Sum of Mulliken charges =  -1.00000   1.00000

 Dipole moment (field-independent basis, Debye):
    X=              5.1379    Y=              5.5371    Z=              4.4806  Tot=              8.7826
 Quadrupole moment (field-independent basis, Debye-Ang):
   XX=           -151.7643   YY=           -144.6574   ZZ=           -137.6664
   XY=             -2.9995   XZ=             17.8713   YZ=              0.5782

 Normal termination of Gaussian 16 at Wed Jan 24 22:59:53 2024.
