 Gaussian 16, Revision A.03,
 Gaussian 16:  ES64L-G16RevA.03 25-Dec-2016

 ----------------------------------------------------------------
 #P UB3LYP/6-311++G(d,p) SCRF=(PCM,Solvent=n,n-DiMethylFormamide)
 ----------------------------------------------------------------

 -------
 Reduced
 -------
 Symbolic Z-matrix:
 Charge = -2 Multiplicity = 1

                         Standard orientation:
 ---------------------------------------------------------------------
 Center     Atomic      Atomic             Coordinates (Angstroms)
 Number     Number       Type             X           Y           Z
 ---------------------------------------------------------------------
      1          8           0        2.777856   -0.973052    0.000346
      2          6           0        1.502469   -0.900134   -0.000589
      3          6           0        0.683927   -2.102004    0.000227
      4          6           0       -0.683880   -2.102026    0.000206
      5          6           0       -1.502446   -0.900164   -0.000667
      6          8           0       -2.777833   -0.973098    0.000349
      7          6           0       -0.732125    0.311453   -0.000501
      8          6           0        0.732125    0.311482   -0.000441
      9          6           0        1.443259    1.532680   -0.000112
     10          7           0        2.034151    2.539241    0.000319
     11          6           0       -1.443264    1.532660   -0.000259
     12          7           0       -2.034244    2.539166    0.000482
     13          1           0        1.236220   -3.041650    0.000840
     14          1           0       -1.236155   -3.041681    0.000801
 ---------------------------------------------------------------------

 SCF Done:  E(UB3LYP) =  -566.414323296     A.U. after   15 cycles

 The electronic state is 1-A.
 Alpha  occ. eigenvalues --  -19.04409 -19.04409 -14.28997 -14.28996 -10.20875
 Alpha  occ. eigenvalues --  -10.20874 -10.19636 -10.19634 -10.17173 -10.17140
 Alpha  occ. eigenvalues --  -10.15801 -10.15735  -0.96586  -0.96258  -0.89265
 Alpha  occ. eigenvalues --   -0.88715  -0.81186  -0.75094  -0.69796  -0.62733
 Alpha  occ. eigenvalues --   -0.58924  -0.49461  -0.48795  -0.46549  -0.42598
 Alpha  occ. eigenvalues --   -0.39929  -0.38903  -0.37065  -0.36879  -0.35869
 Alpha  occ. eigenvalues --   -0.35681  -0.35468  -0.34142  -0.32490  -0.31975
 Alpha  occ. eigenvalues --   -0.31664  -0.25079  -0.23643  -0.22127  -0.22028
 Alpha  occ. eigenvalues --   -0.14979
 Alpha virt. eigenvalues --   -0.03973   0.00555   0.02070   0.02265   0.02372
 Alpha virt. eigenvalues --    0.03160   0.04345   0.04771   0.05055   0.05337
 Alpha virt. eigenvalues --    0.06403   0.06879   0.07340   0.08258   0.08668

  Beta  occ. eigenvalues --  -19.04409 -19.04409 -14.28997 -14.28996 -10.20875
  Beta  occ. eigenvalues --  -10.20874 -10.19636 -10.19634 -10.17173 -10.17140
  Beta  occ. eigenvalues --  -10.15801 -10.15735  -0.96586  -0.96258  -0.89265
  Beta  occ. eigenvalues --   -0.88715  -0.81186  -0.75094  -0.69796  -0.62733
  Beta  occ. eigenvalues --   -0.58924  -0.49461  -0.48795  -0.46549  -0.42598
  Beta  occ. eigenvalues --   -0.39929  -0.38903  -0.37065  -0.36879  -0.35869
  Beta  occ. eigenvalues --   -0.35681  -0.35468  -0.34142  -0.32490  -0.31975
  Beta  occ. eigenvalues --   -0.31664  -0.25079  -0.23643  -0.22127  -0.22028
  Beta  occ. eigenvalues --   -0.14979
  Beta virt. eigenvalues --   -0.03973   0.00555   0.02070   0.02265   0.02372
  Beta virt. eigenvalues --    0.03160   0.04345   0.04771   0.05055   0.05337
  Beta virt. eigenvalues --    0.06403   0.06879   0.07340   0.08258   0.08668

 Mulliken charges and spin densities:
               1          2
     1  O   -0.624037   0.000000
     2  C   -0.737443  -0.000000
     3  C    0.094835   0.000000
     4  C    0.094744  -0.000000
     5  C   -0.737243   0.000000
     6  O   -0.624042  -0.000000
     7  C    1.621187  -0.000000
     8  C    1.620968   0.000000
     9  C   -1.127180   0.000000
    10  N   -0.406795  -0.000000
    11  C   -1.127213   0.000000
    12  N   -0.406790  -0.000000
    13  H    0.179504  -0.000000
    14  H    0.179506  -0.000000
 Sum of Mulliken charges =  -2.00000  -0.00000

 Dipole moment (field-independent basis, Debye):
    X=              0.0001    Y=             -5.7427    Z=             -0.0036  Tot=              5.7427
 Quadrupole moment (field-independent basis, Debye-Ang):
   XX=           -144.5008   YY=           -108.8294   ZZ=            -74.2250
   XY=             -0.0002   XZ=              0.0010   YZ=             -0.0059

 Normal termination of Gaussian 16 at Sun Jan 21 07:26:27 2024.
