 Gaussian 16, Revision A.03,
 Gaussian 16:  ES64L-G16RevA.03 25-Dec-2016

 ----------------------------------------------------------------
 #P UB3LYP/6-311++G(d,p) SCRF=(PCM,Solvent=n,n-DiMethylFormamide)
 ----------------------------------------------------------------

 ------------------
 Radical PCM in DMF
 ------------------
 Symbolic Z-matrix:
 Charge = -4 Multiplicity = 2

                         Standard orientation:
 ---------------------------------------------------------------------
 Center     Atomic      Atomic             Coordinates (Angstroms)
 Number     Number       Type             X           Y           Z
 ---------------------------------------------------------------------
      1          7           0       -3.447245    1.538277    0.202368
      2          6           0       -2.195730    2.088321    0.456953
      3          6           0       -0.961476    1.409651    0.406645
      4          6           0       -2.175049    3.478530    0.704384
      5          6           0        0.244623    2.109035    0.563730
      6          6           0       -0.983596    4.155033    0.893077
      7          6           0        0.241021    3.494462    0.831145
      8         16           0        1.754328    4.498334    1.027960
      9          8           0        2.700138    3.600489    1.772729
     10          8           0        2.221443    4.819105   -0.344880
     11          8           0        1.334964    5.691186    1.809855
     12          7           0        1.513533    1.465413    0.513857
     13          6           0        1.966821    0.512038   -0.315121
     14          7           0        1.128692   -0.083794   -1.201454
     15          6           0        1.715156   -0.979672   -1.953950
     16          7           0        2.969128   -1.371336   -1.970936
     17          6           0        3.731119   -0.709602   -1.048037
     18          7           0        3.289976    0.211805   -0.209657
     19         17           0        0.664617   -1.778976   -3.146709
     20          7           0        5.043786   -1.104620   -1.075207
     21          6           0        6.201434   -0.652680   -0.411271
     22          6           0        6.215837    0.392616    0.518188
     23          6           0        7.405876   -1.305519   -0.738801
     24          6           0        7.430183    0.758009    1.103682
     25          6           0        8.602280   -0.924675   -0.148745
     26          6           0        8.621805    0.114600    0.784405
     27         16           0       10.169249   -1.749130   -0.624358
     28          8           0        9.753859   -2.942974   -1.411189
     29          8           0       10.909320   -0.733151   -1.424477
     30          8           0       10.836013   -2.075857    0.667058
     31          1           0       -4.133508    2.169005   -0.237148
     32          1           0       -0.931449    0.351240    0.196193
     33          1           0       -3.120205    4.008331    0.760211
     34          1           0       -0.978614    5.216283    1.110802
     35          1           0        2.242711    1.975868    1.031647
     36          1           0        5.195724   -1.826984   -1.763791
     37          1           0        5.297973    0.902628    0.769870
     38          1           0        7.419685   -2.122838   -1.452637
     39          1           0        7.430987    1.569169    1.825135
     40          1           0        9.557625    0.399106    1.249761
     41          6           0       -4.026037    0.292364    0.440669
     42          6           0       -5.319912    0.024587   -0.128049
     43          6           0       -3.436128   -0.657867    1.282565
     44          6           0       -4.054320   -1.865175    1.574113
     45          6           0       -5.932371   -1.271656    0.102124
     46          6           0       -5.284463   -2.221624    0.968122
     47          6           0       -7.194059   -1.629041   -0.534217
     48          6           0       -7.847686   -0.611734   -1.350687
     49          6           0       -7.285011    0.684583   -1.511056
     50          6           0       -6.022192    1.048000   -0.891871
     51          6           0       -9.075766   -0.906343   -1.983406
     52          6           0       -9.737929    0.034702   -2.749038
     53          6           0       -9.178875    1.327564   -2.907037
     54          6           0       -7.979957    1.636005   -2.295893
     55          8           0       -7.756914   -2.767729   -0.417348
     56          8           0       -5.593463    2.246422   -1.036553
     57          7           0       -5.849554   -3.435048    1.228174
     58          1           0       -2.490133   -0.447412    1.764497
     59          1           0       -9.475560   -1.903872   -1.838338
     60          1           0      -10.682221   -0.214405   -3.228447
     61          1           0       -9.692014    2.073409   -3.510341
     62          1           0       -7.526017    2.615198   -2.397986
     63          1           0       -6.667121   -3.656142    0.667466
     64          1           0       -5.240046   -4.134438    1.641301
     65         16           0       -3.295491   -2.928098    2.863057
     66          8           0       -3.450542   -4.333803    2.355512
     67          8           0       -4.096180   -2.686172    4.095377
     68          8           0       -1.884572   -2.487665    2.965609
 ---------------------------------------------------------------------

 SCF Done:  E(UB3LYP) =  -3982.11623952     A.U. after   29 cycles

 The electronic state is 2-A.
 Alpha  occ. eigenvalues -- -101.55909 -89.04810 -89.04253 -89.04034 -19.09329
 Alpha  occ. eigenvalues --  -19.09171 -19.09055 -19.08781 -19.08713 -19.08694
 Alpha  occ. eigenvalues --  -19.08678 -19.08516 -19.08398 -19.07444 -19.07316
 Alpha  occ. eigenvalues --  -14.36447 -14.35513 -14.32517 -14.32326 -14.32021
 Alpha  occ. eigenvalues --  -14.31938 -14.29466 -10.31183 -10.30493 -10.30332
 Alpha  occ. eigenvalues --  -10.23664 -10.23505 -10.22521 -10.22447 -10.22293
 Alpha  occ. eigenvalues --  -10.21735 -10.21306 -10.20040 -10.19327 -10.18525
 Alpha  occ. eigenvalues --  -10.18317 -10.18227 -10.18085 -10.17926 -10.17742
 Alpha  occ. eigenvalues --  -10.17679 -10.17581 -10.17307 -10.17118 -10.17113
 Alpha  occ. eigenvalues --  -10.17062 -10.16949 -10.16885 -10.16841 -10.16680
 Alpha  occ. eigenvalues --  -10.16651  -9.47401  -8.10670  -8.10131  -8.09903
 Alpha  occ. eigenvalues --   -7.23839  -7.22920  -7.22828  -6.06953  -6.06927
 Alpha  occ. eigenvalues --   -6.06846  -6.06402  -6.06393  -6.06311  -6.06190
 Alpha  occ. eigenvalues --   -6.06167  -6.06062  -1.10969  -1.10466  -1.10290
 Alpha  occ. eigenvalues --   -1.05528  -1.00047  -0.99722  -0.99209  -0.97540
 Alpha  occ. eigenvalues --   -0.97278  -0.97023  -0.96952  -0.96718  -0.96563
 Alpha  occ. eigenvalues --   -0.96389  -0.94070  -0.91418  -0.91021  -0.89953
 Alpha  occ. eigenvalues --   -0.85985  -0.85607  -0.85249  -0.84276  -0.82709
 Alpha  occ. eigenvalues --   -0.78471  -0.76636  -0.76586  -0.76261  -0.75604
 Alpha  occ. eigenvalues --   -0.74716  -0.73896  -0.71704  -0.68749  -0.67576
 Alpha  occ. eigenvalues --   -0.67132  -0.65081  -0.64583  -0.64205  -0.62710
 Alpha  occ. eigenvalues --   -0.62207  -0.61648  -0.59625  -0.59341  -0.58289
 Alpha  occ. eigenvalues --   -0.58126  -0.57047  -0.56119  -0.55432  -0.54420
 Alpha  occ. eigenvalues --   -0.53563  -0.52648  -0.51646  -0.51291  -0.50839
 Alpha  occ. eigenvalues --   -0.49838  -0.49364  -0.48922  -0.48718  -0.47878
 Alpha  occ. eigenvalues --   -0.47681  -0.47427  -0.46800  -0.46442  -0.45846
 Alpha  occ. eigenvalues --   -0.45445  -0.45258  -0.44991  -0.44903  -0.44805
 Alpha  occ. eigenvalues --   -0.44591  -0.44363  -0.43984  -0.43659  -0.43285
 Alpha  occ. eigenvalues --   -0.43180  -0.42471  -0.42278  -0.41926  -0.41844
 Alpha  occ. eigenvalues --   -0.41653  -0.41212  -0.40858  -0.40368  -0.40031
 Alpha  occ. eigenvalues --   -0.39094  -0.38392  -0.38240  -0.37935  -0.37809
 Alpha  occ. eigenvalues --   -0.37560  -0.37042  -0.36539  -0.36130  -0.35119
 Alpha  occ. eigenvalues --   -0.34486  -0.34241  -0.33669  -0.33463  -0.33252
 Alpha  occ. eigenvalues --   -0.33156  -0.33136  -0.33052  -0.32957  -0.32872
 Alpha  occ. eigenvalues --   -0.32339  -0.30875  -0.30776  -0.29984  -0.29834
 Alpha  occ. eigenvalues --   -0.29608  -0.29399  -0.29297  -0.29270  -0.29165
 Alpha  occ. eigenvalues --   -0.28911  -0.28848  -0.28539  -0.28267  -0.27867
 Alpha  occ. eigenvalues --   -0.26299  -0.25891  -0.25729  -0.25306  -0.25213
 Alpha  occ. eigenvalues --   -0.25197  -0.24765  -0.24396  -0.23898  -0.23518
 Alpha  occ. eigenvalues --   -0.22805  -0.22653  -0.18386  -0.13396
 Alpha virt. eigenvalues --   -0.04823  -0.04527  -0.04463  -0.02522  -0.02383
 Alpha virt. eigenvalues --   -0.01793  -0.00908  -0.00216   0.00179   0.00622
 Alpha virt. eigenvalues --    0.00795   0.01043   0.01085   0.01422   0.01593

  Beta  occ. eigenvalues -- -101.55909 -89.04811 -89.04253 -89.04037 -19.09328
  Beta  occ. eigenvalues --  -19.09171 -19.09054 -19.08781 -19.08714 -19.08694
  Beta  occ. eigenvalues --  -19.08678 -19.08508 -19.08381 -19.06967 -19.06892
  Beta  occ. eigenvalues --  -14.36447 -14.35512 -14.32517 -14.32326 -14.32021
  Beta  occ. eigenvalues --  -14.31874 -14.29416 -10.31183 -10.30494 -10.30332
  Beta  occ. eigenvalues --  -10.23670 -10.23505 -10.22452 -10.22376 -10.22086
  Beta  occ. eigenvalues --  -10.21727 -10.21224 -10.20040 -10.19311 -10.18525
  Beta  occ. eigenvalues --  -10.18227 -10.18144 -10.18091 -10.17926 -10.17742
  Beta  occ. eigenvalues --  -10.17665 -10.17585 -10.17304 -10.17102 -10.17088
  Beta  occ. eigenvalues --  -10.17009 -10.16896 -10.16808 -10.16742 -10.16689
  Beta  occ. eigenvalues --  -10.16635  -9.47401  -8.10670  -8.10131  -8.09905
  Beta  occ. eigenvalues --   -7.23839  -7.22920  -7.22828  -6.06953  -6.06927
  Beta  occ. eigenvalues --   -6.06847  -6.06402  -6.06393  -6.06311  -6.06192
  Beta  occ. eigenvalues --   -6.06169  -6.06069  -1.10967  -1.10466  -1.10278
  Beta  occ. eigenvalues --   -1.05528  -0.99273  -0.99206  -0.98957  -0.97539
  Beta  occ. eigenvalues --   -0.97275  -0.97016  -0.96952  -0.96718  -0.96562
  Beta  occ. eigenvalues --   -0.96362  -0.93889  -0.91414  -0.90887  -0.89950
  Beta  occ. eigenvalues --   -0.85985  -0.85475  -0.85131  -0.84275  -0.82551
  Beta  occ. eigenvalues --   -0.78100  -0.76617  -0.76527  -0.76242  -0.75594
  Beta  occ. eigenvalues --   -0.74523  -0.73758  -0.71488  -0.68724  -0.67553
  Beta  occ. eigenvalues --   -0.66596  -0.64991  -0.64571  -0.63994  -0.62678
  Beta  occ. eigenvalues --   -0.62082  -0.61624  -0.59623  -0.59237  -0.58260
  Beta  occ. eigenvalues --   -0.58098  -0.56999  -0.55981  -0.55388  -0.54246
  Beta  occ. eigenvalues --   -0.53523  -0.52638  -0.51633  -0.51222  -0.50783
  Beta  occ. eigenvalues --   -0.49806  -0.49329  -0.48852  -0.48700  -0.47747
  Beta  occ. eigenvalues --   -0.47643  -0.47399  -0.46650  -0.46375  -0.45842
  Beta  occ. eigenvalues --   -0.45438  -0.45192  -0.44971  -0.44902  -0.44750
  Beta  occ. eigenvalues --   -0.44546  -0.44319  -0.43981  -0.43626  -0.43234
  Beta  occ. eigenvalues --   -0.43165  -0.42361  -0.41975  -0.41755  -0.41662
  Beta  occ. eigenvalues --   -0.41379  -0.41078  -0.40575  -0.40241  -0.39963
  Beta  occ. eigenvalues --   -0.38713  -0.38208  -0.37931  -0.37736  -0.37558
  Beta  occ. eigenvalues --   -0.37174  -0.36539  -0.36423  -0.35967  -0.34967
  Beta  occ. eigenvalues --   -0.33829  -0.33657  -0.33449  -0.33342  -0.33151
  Beta  occ. eigenvalues --   -0.33150  -0.33115  -0.33052  -0.32909  -0.32834
  Beta  occ. eigenvalues --   -0.32295  -0.30789  -0.30637  -0.29940  -0.29808
  Beta  occ. eigenvalues --   -0.29429  -0.29367  -0.29269  -0.29262  -0.29160
  Beta  occ. eigenvalues --   -0.28908  -0.28814  -0.28415  -0.28257  -0.27556
  Beta  occ. eigenvalues --   -0.25891  -0.25727  -0.25213  -0.25166  -0.24815
  Beta  occ. eigenvalues --   -0.24699  -0.24265  -0.23978  -0.23739  -0.23158
  Beta  occ. eigenvalues --   -0.22782  -0.22395  -0.17284
  Beta virt. eigenvalues --   -0.08325  -0.04675  -0.04525  -0.03701  -0.02512
  Beta virt. eigenvalues --   -0.01717  -0.01297  -0.00898  -0.00210   0.00188
  Beta virt. eigenvalues --    0.00624   0.00804   0.01061   0.01089   0.01429

 Mulliken charges and spin densities:
               1          2
     1  N   -0.018309   0.030026
     2  C    0.036714  -0.017559
     3  C   -0.304231   0.019839
     4  C   -0.377498   0.011997
     5  C    0.543603  -0.001309
     6  C   -0.009657  -0.002794
     7  C   -1.221379   0.009415
     8  S    0.599339  -0.000447
     9  O   -0.424182   0.000347
    10  O   -0.304112   0.000282
    11  O   -0.305991   0.000204
    12  N   -0.111533   0.000347
    13  C   -0.257568   0.000572
    14  N    0.033314  -0.000151
    15  C   -0.364123  -0.000333
    16  N    0.032176  -0.000132
    17  C   -0.049636  -0.000022
    18  N   -0.140170  -0.000181
    19  Cl   0.481484  -0.000018
    20  N   -0.136368   0.000001
    21  C    0.275929  -0.000028
    22  C    0.064560  -0.000019
    23  C   -0.078178   0.000013
    24  C   -0.096022   0.000020
    25  C   -1.192343   0.000005
    26  C   -0.668984  -0.000002
    27  S    0.693605  -0.000000
    28  O   -0.424699   0.000000
    29  O   -0.367898  -0.000000
    30  O   -0.394075   0.000000
    31  H    0.415774  -0.000434
    32  H    0.154671  -0.000920
    33  H    0.183137  -0.000522
    34  H    0.235165   0.000175
    35  H    0.467741   0.000025
    36  H    0.412401  -0.000009
    37  H    0.225628  -0.000001
    38  H    0.208522   0.000001
    39  H    0.211055   0.000002
    40  H    0.204544  -0.000000
    41  C    0.098723   0.060324
    42  C    0.276099   0.005899
    43  C   -0.283403   0.062282
    44  C   -0.789194   0.101654
    45  C    0.078391  -0.006385
    46  C    0.090452   0.008278
    47  C   -0.541089   0.080890
    48  C    0.397822   0.052391
    49  C    0.171433   0.013032
    50  C   -0.500231   0.108203
    51  C    0.029691   0.010972
    52  C   -0.459329   0.045632
    53  C   -0.388099   0.021300
    54  C   -0.048942   0.039773
    55  O   -0.454942   0.154071
    56  O   -0.437473   0.178362
    57  N   -0.484185   0.026085
    58  H    0.216753  -0.006543
    59  H    0.174732   0.000062
    60  H    0.179701  -0.003518
    61  H    0.184547  -0.001813
    62  H    0.159489  -0.001996
    63  H    0.345797  -0.002711
    64  H    0.289194  -0.001648
    65  S    0.542506  -0.002644
    66  O   -0.430820   0.004569
    67  O   -0.343590   0.005108
    68  O   -0.306437  -0.000020
 Sum of Mulliken charges =  -4.00000   1.00000

 Dipole moment (field-independent basis, Debye):
    X=            -19.5042    Y=              5.8891    Z=            -12.0613  Tot=             23.6764
 Quadrupole moment (field-independent basis, Debye-Ang):
   XX=          -1160.3008   YY=           -545.5953   ZZ=           -426.8252
   XY=            -12.3076   XZ=             69.3590   YZ=             22.4148

 Normal termination of Gaussian 16 at Sun Feb  4 03:25:58 2024.
