 Q-Chem 5.4, Q-Chem, Inc., Pleasanton, CA (2021)
 Q-Chem 5.4.0 for Intel X86 EM64T Linux

User input:
--------------------------------------------------------------
$molecule
-2 1
Cl                 5.2114690000     -1.4937050000     -0.0034660000
C                  3.6144340000     -0.6473760000     -0.1482370000
C                  3.6348560000      0.7326830000     -0.4826670000
C                  2.4193130000      1.3776100000     -0.5930320000
C                  1.1774270000      0.7275400000     -0.3893350000
C                 -0.0447410000      1.4850550000     -0.5266860000
O                 -0.0631020000      2.7370110000     -0.8286050000
C                 -1.2484390000      0.7143720000     -0.2954380000
C                 -2.5100540000      1.3551020000     -0.4031390000
C                 -3.6997950000      0.6877210000     -0.1974880000
C                 -3.6785380000     -0.6974830000      0.1365030000
C                 -2.4701920000     -1.3524510000      0.2497070000
C                 -1.2263780000     -0.6982240000      0.0451350000
C                 -0.0021370000     -1.4584250000      0.1831550000
O                  0.0143130000     -2.7116330000      0.4854670000
C                  1.1944540000     -0.6890610000     -0.0475500000
C                  2.4563400000     -1.3400040000      0.0625520000
H                  4.5748420000      1.2491480000     -0.6428090000
H                  2.3736100000      2.4326780000     -0.8464850000
H                 -2.4903310000      2.4104190000     -0.6588790000
H                 -4.6490810000      1.2136010000     -0.2891190000
H                 -4.6120600000     -1.2339180000      0.3010400000
H                 -2.4192590000     -2.4072750000      0.5028360000
H                  2.4430500000     -2.3933840000      0.3176770000
$end
$rem
MAX_SCF_CYCLES=200
BASIS  =  6-311++G(d,p)
GUI  =  2
JOB_TYPE  =  SP
METHOD  =  B3LYP
SOLVENT_METHOD = PCM
$end
$pcm
theory = CPCM
$end
$solvent
dielectric 37.219
opticaldielectric 1.43
$end

--------------------------------------------------------------

             Standard Nuclear Orientation (Angstroms)
    I     Atom           X                Y                Z
 ----------------------------------------------------------------
    1      Cl      5.2114690000    -1.4937050000    -0.0034660000
    2      C       3.6144340000    -0.6473760000    -0.1482370000
    3      C       3.6348560000     0.7326830000    -0.4826670000
    4      C       2.4193130000     1.3776100000    -0.5930320000
    5      C       1.1774270000     0.7275400000    -0.3893350000
    6      C      -0.0447410000     1.4850550000    -0.5266860000
    7      O      -0.0631020000     2.7370110000    -0.8286050000
    8      C      -1.2484390000     0.7143720000    -0.2954380000
    9      C      -2.5100540000     1.3551020000    -0.4031390000
   10      C      -3.6997950000     0.6877210000    -0.1974880000
   11      C      -3.6785380000    -0.6974830000     0.1365030000
   12      C      -2.4701920000    -1.3524510000     0.2497070000
   13      C      -1.2263780000    -0.6982240000     0.0451350000
   14      C      -0.0021370000    -1.4584250000     0.1831550000
   15      O       0.0143130000    -2.7116330000     0.4854670000
   16      C       1.1944540000    -0.6890610000    -0.0475500000
   17      C       2.4563400000    -1.3400040000     0.0625520000
   18      H       4.5748420000     1.2491480000    -0.6428090000
   19      H       2.3736100000     2.4326780000    -0.8464850000
   20      H      -2.4903310000     2.4104190000    -0.6588790000
   21      H      -4.6490810000     1.2136010000    -0.2891190000
   22      H      -4.6120600000    -1.2339180000     0.3010400000
   23      H      -2.4192590000    -2.4072750000     0.5028360000
   24      H       2.4430500000    -2.3933840000     0.3176770000
 ----------------------------------------------------------------

    9   -1148.8245889633      4.64e-06  Convergence criterion met
 Total energy in the final basis set =    -1148.8245889633

                    Orbital Energies (a.u.)
 --------------------------------------------------------------

 Alpha MOs
 -- Occupied --
******** -19.0278 -19.0264 -10.2149 -10.1813 -10.1796 -10.1617 -10.1594
-10.1578 -10.1525 -10.1519 -10.1493 -10.1489 -10.1464 -10.1435 -10.1427
-10.1421  -9.4566  -7.2207  -7.2118  -7.2115  -0.9457  -0.9419  -0.8647
 -0.8283  -0.8119  -0.7537  -0.7332  -0.7265  -0.7054  -0.6429  -0.6149
 -0.5898  -0.5661  -0.5317  -0.5120  -0.4983  -0.4484  -0.4473  -0.4374
 -0.4278  -0.4124  -0.4017  -0.3910  -0.3820  -0.3772  -0.3753  -0.3647
 -0.3626  -0.3330  -0.3289  -0.3279  -0.3235  -0.3090  -0.3051  -0.2975
 -0.2422  -0.2315  -0.2296  -0.2193  -0.2104  -0.2031  -0.1133

          Ground-State Mulliken Net Atomic Charges

     Atom                 Charge (a.u.)
  ----------------------------------------
      1 Cl                    0.401709
      2 C                     0.665373
      3 C                    -0.602633
      4 C                    -0.136972
      5 C                     0.236657
      6 C                    -0.396920
      7 O                    -0.674923
      8 C                     0.207472
      9 C                     0.009029
     10 C                    -0.519588
     11 C                    -0.525936
     12 C                     0.028472
     13 C                     0.223642
     14 C                    -0.612081
     15 O                    -0.680833
     16 C                    -0.419780
     17 C                    -0.383071
     18 H                     0.199189
     19 H                     0.154893
     20 H                     0.147527
     21 H                     0.176968
     22 H                     0.176928
     23 H                     0.148789
     24 H                     0.176086
  ----------------------------------------
  Sum of atomic charges =    -2.000000

                    Cartesian Multipole Moments
 -----------------------------------------------------------------
    Charge (ESU x 10^10)
                -9.6064
    Dipole Moment (Debye)
         X      -3.3748      Y       1.4848      Z       1.3954
       Tot       3.9422
    Quadrupole Moments (Debye-Ang)
        XX    -147.1981     XY       8.9610     YY    -165.2191
        XZ      -0.4686     YZ      11.0092     ZZ    -120.1903

 Total job time:  75.70s(wall), 296.03s(cpu)
        *  Thank you very much for using Q-Chem.  Have a nice day.  *
