 Q-Chem 5.4, Q-Chem, Inc., Pleasanton, CA (2021)
 Q-Chem 5.4.0 for Intel X86 EM64T Linux

User input:
--------------------------------------------------------------
$molecule
-2 1
C                  4.9505360000     -2.7378780000     -0.0360390000
C                  5.6905520000     -1.7933420000     -0.7407320000
C                  5.0439190000     -0.6880710000     -1.3808040000
C                  3.5566960000     -2.6432760000      0.0540940000
C                  2.8781610000     -1.5356730000     -0.5934930000
C                  3.6791770000     -0.5927220000     -1.3010100000
C                  2.8385680000     -3.6646070000      0.8145520000
C                  1.3899850000     -3.4713980000      0.8529810000
C                  0.7370330000     -2.3538690000      0.1962700000
C                  1.4491990000     -1.3458990000     -0.5499070000
C                  0.6140020000     -4.3957460000      1.5623960000
C                 -0.6806750000     -2.2587130000      0.3073510000
C                 -1.4339640000     -3.1638070000      1.0083630000
O                  3.4195720000     -4.6217450000      1.3983170000
O                  0.8610870000     -0.3603570000     -1.1232980000
H                  5.4299440000     -3.5769890000      0.4548900000
H                 -2.5116450000     -3.0774910000      1.0753820000
H                  3.1461320000      0.2197810000     -1.7831510000
H                  1.1282570000     -5.2219740000      2.0397170000
H                 -1.1439910000     -1.4192870000     -0.2000470000
C                 -0.7689430000     -4.2625080000      1.6407480000
S                  7.4338280000     -1.8622190000     -0.6986130000
S                 -1.6798450000     -5.3468270000      2.6606110000
O                 -0.9410400000     -6.6011760000      2.9012000000
O                 -3.0923830000     -5.4466260000      2.2513310000
N                 -1.7785920000     -4.4844560000      4.1713870000
H                 -0.8367190000     -4.4266330000      4.5538670000
H                 -2.3482410000     -5.0541510000      4.7968900000
O                  7.9067840000     -3.2176120000     -0.3575490000
O                  8.0491190000     -1.1885080000     -1.8563450000
N                  7.8429180000     -0.8029920000      0.6227520000
H                  5.6344070000      0.0356520000     -1.9293360000
H                  8.8613280000     -0.7632680000      0.6616170000
H                  7.5025620000     -1.2350440000      1.4796080000
$end
$rem
MAX_SCF_CYCLES=200
BASIS  =  6-311++G(d,p)
GUI  =  2
JOB_TYPE  =  SP
METHOD  =  B3LYP
SOLVENT_METHOD = PCM
$end
$pcm
theory = CPCM
$end
$solvent
dielectric 37.219
opticaldielectric 1.43
$end

--------------------------------------------------------------

             Standard Nuclear Orientation (Angstroms)
    I     Atom           X                Y                Z
 ----------------------------------------------------------------
    1      C       4.9505360000    -2.7378780000    -0.0360390000
    2      C       5.6905520000    -1.7933420000    -0.7407320000
    3      C       5.0439190000    -0.6880710000    -1.3808040000
    4      C       3.5566960000    -2.6432760000     0.0540940000
    5      C       2.8781610000    -1.5356730000    -0.5934930000
    6      C       3.6791770000    -0.5927220000    -1.3010100000
    7      C       2.8385680000    -3.6646070000     0.8145520000
    8      C       1.3899850000    -3.4713980000     0.8529810000
    9      C       0.7370330000    -2.3538690000     0.1962700000
   10      C       1.4491990000    -1.3458990000    -0.5499070000
   11      C       0.6140020000    -4.3957460000     1.5623960000
   12      C      -0.6806750000    -2.2587130000     0.3073510000
   13      C      -1.4339640000    -3.1638070000     1.0083630000
   14      O       3.4195720000    -4.6217450000     1.3983170000
   15      O       0.8610870000    -0.3603570000    -1.1232980000
   16      H       5.4299440000    -3.5769890000     0.4548900000
   17      H      -2.5116450000    -3.0774910000     1.0753820000
   18      H       3.1461320000     0.2197810000    -1.7831510000
   19      H       1.1282570000    -5.2219740000     2.0397170000
   20      H      -1.1439910000    -1.4192870000    -0.2000470000
   21      C      -0.7689430000    -4.2625080000     1.6407480000
   22      S       7.4338280000    -1.8622190000    -0.6986130000
   23      S      -1.6798450000    -5.3468270000     2.6606110000
   24      O      -0.9410400000    -6.6011760000     2.9012000000
   25      O      -3.0923830000    -5.4466260000     2.2513310000
   26      N      -1.7785920000    -4.4844560000     4.1713870000
   27      H      -0.8367190000    -4.4266330000     4.5538670000
   28      H      -2.3482410000    -5.0541510000     4.7968900000
   29      O       7.9067840000    -3.2176120000    -0.3575490000
   30      O       8.0491190000    -1.1885080000    -1.8563450000
   31      N       7.8429180000    -0.8029920000     0.6227520000
   32      H       5.6344070000     0.0356520000    -1.9293360000
   33      H       8.8613280000    -0.7632680000     0.6616170000
   34      H       7.5025620000    -1.2350440000     1.4796080000
 ----------------------------------------------------------------

    9   -1897.2779967261      6.23e-06  Convergence criterion met
 Total energy in the final basis set =    -1897.2779967261

                    Orbital Energies (a.u.)
 --------------------------------------------------------------

 Alpha MOs
 -- Occupied --
-89.0663 -89.0663 -19.1205 -19.1205 -19.1204 -19.1204 -19.0539 -19.0311
-14.3321 -14.3321 -10.2113 -10.1995 -10.1994 -10.1894 -10.1841 -10.1841
-10.1758 -10.1758 -10.1643 -10.1643 -10.1628 -10.1628 -10.1589 -10.1588
 -8.1281  -8.1281  -6.0909  -6.0909  -6.0907  -6.0907  -6.0889  -6.0889
 -1.1184  -1.1184  -1.0087  -1.0087  -0.9801  -0.9526  -0.8954  -0.8953
 -0.8584  -0.8542  -0.7900  -0.7625  -0.7547  -0.7468  -0.6953  -0.6666
 -0.6541  -0.6105  -0.6020  -0.5811  -0.5546  -0.5413  -0.5411  -0.5111
 -0.5102  -0.5062  -0.5030  -0.4891  -0.4717  -0.4693  -0.4645  -0.4504
 -0.4482  -0.4276  -0.4243  -0.4154  -0.4074  -0.4042  -0.3982  -0.3780
 -0.3682  -0.3671  -0.3624  -0.3605  -0.3501  -0.3454  -0.3417  -0.3396
 -0.3336  -0.3269  -0.3215  -0.3205  -0.3122  -0.3121  -0.2847  -0.2835
 -0.2608  -0.2525  -0.2471  -0.2439  -0.2290  -0.2124  -0.1287

          Ground-State Mulliken Net Atomic Charges

     Atom                 Charge (a.u.)
  ----------------------------------------
      1 C                    -0.120444
      2 C                    -0.194404
      3 C                    -0.444940
      4 C                     0.089066
      5 C                     0.609906
      6 C                    -0.284765
      7 C                    -0.809523
      8 C                     0.103357
      9 C                     0.596460
     10 C                    -0.105914
     11 C                    -0.121232
     12 C                    -0.286801
     13 C                    -0.437868
     14 O                    -0.547094
     15 O                    -0.656462
     16 H                     0.223914
     17 H                     0.250770
     18 H                     0.157723
     19 H                     0.224036
     20 H                     0.157397
     21 C                    -0.190719
     22 S                     0.279260
     23 S                     0.282709
     24 O                    -0.300005
     25 O                    -0.352045
     26 N                    -0.508806
     27 H                     0.310683
     28 H                     0.337036
     29 O                    -0.299804
     30 O                    -0.352203
     31 N                    -0.507023
     32 H                     0.250422
     33 H                     0.336999
     34 H                     0.310284
  ----------------------------------------
  Sum of atomic charges =    -2.000030

                    Cartesian Multipole Moments
 -----------------------------------------------------------------
    Charge (ESU x 10^10)
                -9.6066
    Dipole Moment (Debye)
         X     -21.0701      Y      29.3870      Z       2.9657
       Tot      36.2815
    Quadrupole Moments (Debye-Ang)
        XX    -317.2021     XY      51.5025     YY    -313.0570
        XZ      39.0438     YZ      22.8355     ZZ    -167.4695

 Total job time:  130.76s(wall), 681.20s(cpu)
        *  Thank you very much for using Q-Chem.  Have a nice day.  *
