 Gaussian 16, Revision A.03,
 Gaussian 16:  ES64L-G16RevA.03 25-Dec-2016

 --------------------------------------
 #P UB3LYP/6-311++G(d,p) nosym opt freq
 --------------------------------------

 -------
 Radical
 -------
 Symbolic Z-matrix:
 Charge = -1 Multiplicity = 2

 SCF Done:  E(UB3LYP) =  -696.210649261     A.U. after   21 cycles
 SCF Done:  E(UB3LYP) =  -696.225504468     A.U. after   18 cycles
 SCF Done:  E(UB3LYP) =  -696.226500612     A.U. after   17 cycles
 SCF Done:  E(UB3LYP) =  -696.226571610     A.U. after   14 cycles
 SCF Done:  E(UB3LYP) =  -696.226576375     A.U. after   12 cycles
 SCF Done:  E(UB3LYP) =  -696.226576770     A.U. after   11 cycles
 Optimization completed.
    -- Stationary point found.
 Normal termination of Gaussian 16 at Sat Jan  6 02:32:32 2024.

 ----------------------------------------------------------------------
 #P Geom=AllCheck Guess=TCheck SCRF=Check GenChk UB3LYP/6-311++G(d,p) F
 req
 ----------------------------------------------------------------------

 Structure from the checkpoint file:  "319-rad.chk"
 -------
 Radical
 -------
 Charge = -1 Multiplicity = 2

                          Input orientation:
 ---------------------------------------------------------------------
 Center     Atomic      Atomic             Coordinates (Angstroms)
 Number     Number       Type             X           Y           Z
 ---------------------------------------------------------------------
      1          6           0       -0.719785    4.187132   -0.085473
      2          6           0       -1.926383    3.398660   -0.069812
      3          6           0       -1.937763    2.019583   -0.044794
      4          6           0        0.586015    3.429168   -0.072931
      5          6           0        0.518101    1.975126   -0.046714
      6          6           0       -0.697601    1.318217   -0.033536
      7          8           0        1.688325    4.026442   -0.085239
      8          8           0       -0.744436    5.440037   -0.108109
      9          6           0        1.851889    1.259089   -0.035352
     10          6           0        1.820323   -0.271049   -0.008299
     11          6           0        3.220122   -0.897498    0.001399
     12          6           0        3.203440   -2.429605    0.028635
     13          6           0       -3.279390    1.294454   -0.030092
     14          6           0       -3.254129   -0.237768   -0.004007
     15          6           0       -4.656568   -0.857698    0.008703
     16          6           0       -4.645024   -2.389696    0.035029
     17          1           0       -2.859558    3.959266   -0.078956
     18          1           0       -0.712070    0.234592   -0.013973
     19          1           0        2.431948    1.625803    0.822306
     20          1           0        2.430235    1.595252   -0.906572
     21          1           0        1.268107   -0.649537   -0.878530
     22          1           0        1.269831   -0.618598    0.875820
     23          1           0        3.776312   -0.523620    0.870065
     24          1           0        3.774539   -0.554733   -0.881125
     25          1           0        2.684820   -2.802718    0.918441
     26          1           0        4.216241   -2.846408    0.035058
     27          1           0        2.683114   -2.834075   -0.846350
     28          1           0       -3.859833    1.611737   -0.907903
     29          1           0       -3.856892    1.641543    0.838342
     30          1           0       -2.702337   -0.584934    0.878121
     31          1           0       -2.704986   -0.614791   -0.875470
     32          1           0       -5.212121   -0.513192   -0.872794
     33          1           0       -5.209545   -0.483056    0.879461
     34          1           0       -4.128389   -2.795107   -0.841323
     35          1           0       -5.659350   -2.802092    0.043661
     36          1           0       -4.125702   -2.764761    0.923226
 ---------------------------------------------------------------------

 SCF Done:  E(UB3LYP) =  -696.226576770     A.U. after    1 cycles

 Alpha  occ. eigenvalues --  -18.92558 -18.92101 -10.08724 -10.08570 -10.07946
 Alpha  occ. eigenvalues --  -10.07484 -10.07120 -10.06494 -10.06442 -10.06177
 Alpha  occ. eigenvalues --  -10.05970 -10.04200 -10.04155 -10.02873 -10.02801
 Alpha  occ. eigenvalues --  -10.01008  -0.85756  -0.83087  -0.71901  -0.70532
 Alpha  occ. eigenvalues --   -0.69069  -0.65153  -0.62658  -0.58737  -0.55792
 Alpha  occ. eigenvalues --   -0.53769  -0.51338  -0.49550  -0.47989  -0.42424
 Alpha  occ. eigenvalues --   -0.41064  -0.38844  -0.37717  -0.35423  -0.34699
 Alpha  occ. eigenvalues --   -0.33846  -0.33258  -0.32249  -0.31978  -0.30839
 Alpha  occ. eigenvalues --   -0.30331  -0.28092  -0.27639  -0.26716  -0.26474
 Alpha  occ. eigenvalues --   -0.26071  -0.25466  -0.24841  -0.24222  -0.23996
 Alpha  occ. eigenvalues --   -0.23340  -0.23200  -0.22488  -0.20851  -0.20504
 Alpha  occ. eigenvalues --   -0.18785  -0.17011  -0.10163  -0.08100  -0.06646
 Alpha  occ. eigenvalues --   -0.01654
 Alpha virt. eigenvalues --    0.05757   0.06442   0.08066   0.08560   0.08743
 Alpha virt. eigenvalues --    0.09414   0.09592   0.10406   0.11352   0.11539
 Alpha virt. eigenvalues --    0.12276   0.12381   0.12948   0.13032   0.13827

  Beta  occ. eigenvalues --  -18.91886 -18.91436 -10.08724 -10.08571 -10.07946
  Beta  occ. eigenvalues --  -10.07484 -10.07117 -10.06412 -10.06385 -10.06191
  Beta  occ. eigenvalues --  -10.05971 -10.04212 -10.03998 -10.02752 -10.02650
  Beta  occ. eigenvalues --  -10.00923  -0.84637  -0.81847  -0.71781  -0.70468
  Beta  occ. eigenvalues --   -0.68790  -0.65018  -0.62540  -0.58541  -0.55318
  Beta  occ. eigenvalues --   -0.53577  -0.51000  -0.49477  -0.47849  -0.42081
  Beta  occ. eigenvalues --   -0.40644  -0.38825  -0.37707  -0.35361  -0.34562
  Beta  occ. eigenvalues --   -0.33791  -0.33176  -0.32133  -0.31888  -0.30778
  Beta  occ. eigenvalues --   -0.30105  -0.27957  -0.27406  -0.26398  -0.26299
  Beta  occ. eigenvalues --   -0.25703  -0.25220  -0.24247  -0.23915  -0.23487
  Beta  occ. eigenvalues --   -0.23270  -0.23064  -0.21872  -0.20604  -0.20317
  Beta  occ. eigenvalues --   -0.15978  -0.15181  -0.09494  -0.06338  -0.06032
  Beta virt. eigenvalues --    0.05305   0.05752   0.06440   0.08058   0.08560
  Beta virt. eigenvalues --    0.08738   0.09411   0.09601   0.10400   0.11350
  Beta virt. eigenvalues --    0.11552   0.12277   0.12453   0.12996   0.13033

 Mulliken charges and spin densities:
               1          2
     1  C   -0.263083   0.094943
     2  C    0.252977   0.034366
     3  C    0.577468   0.092304
     4  C   -0.473096   0.036499
     5  C    0.842374   0.128525
     6  C   -0.213369   0.103456
     7  O   -0.361995   0.257153
     8  O   -0.389275   0.245646
     9  C   -0.454295  -0.001891
    10  C   -0.068544  -0.001501
    11  C   -0.321702  -0.000793
    12  C   -0.626125  -0.000006
    13  C   -0.798257   0.003509
    14  C   -0.034375  -0.013637
    15  C   -0.345663  -0.000074
    16  C   -0.635347  -0.000134
    17  H    0.127585  -0.007044
    18  H   -0.175440  -0.010731
    19  H    0.177090   0.006424
    20  H    0.177086   0.006427
    21  H    0.109839  -0.000687
    22  H    0.109841  -0.000687
    23  H    0.122239  -0.000126
    24  H    0.122274  -0.000128
    25  H    0.128836   0.000038
    26  H    0.127923  -0.000015
    27  H    0.128843   0.000037
    28  H    0.138351   0.009575
    29  H    0.138463   0.009595
    30  H    0.122411   0.004375
    31  H    0.122371   0.004387
    32  H    0.120916   0.000132
    33  H    0.120878   0.000130
    34  H    0.131890  -0.000022
    35  H    0.129038  -0.000023
    36  H    0.131875  -0.000021
 Sum of Mulliken charges =  -1.00000   1.00000

 Dipole moment (field-independent basis, Debye):
    X=             -0.7269    Y=            -19.0912    Z=              0.3971  Tot=             19.1092
 Quadrupole moment (field-independent basis, Debye-Ang):
   XX=           -120.4108   YY=           -206.5147   ZZ=           -103.8990
   XY=             -3.8745   XZ=              0.0954   YZ=              2.0589

  Exact polarizability: 233.129   2.240 235.086  -0.157  -1.935 127.428
 Approx polarizability: 320.846  10.787 323.524  -0.329  -2.182 203.890

 ******    1 imaginary frequencies (negative Signs) ******

                      1                      2                      3
                      A                      A                      A
 Frequencies --    -49.2016                24.9387                51.0876
 Red. masses --      2.2298                 2.9278                 3.5826
 Frc consts  --      0.0032                 0.0011                 0.0055
 IR Inten    --      1.8361                 0.3513                 0.4908

                      4                      5                      6
                      A                      A                      A
 Frequencies --     68.1238                73.6133                99.1659
 Red. masses --      2.1606                 2.0519                 2.2002
 Frc consts  --      0.0059                 0.0066                 0.0127
 IR Inten    --      0.5179                 0.3396                 0.0248

                      7                      8                      9
                      A                      A                      A
 Frequencies --    100.5739               104.1939               119.7213
 Red. masses --      2.9124                 3.7630                 2.0791
 Frc consts  --      0.0174                 0.0241                 0.0176
 IR Inten    --      0.0767                 0.6700                 0.0192

                     10                     11                     12
                      A                      A                      A
 Frequencies --    164.9278               201.4039               216.6852
 Red. masses --      3.7208                 2.6212                 3.1924
 Frc consts  --      0.0596                 0.0626                 0.0883
 IR Inten    --      0.0250                 1.8085                 1.2677

                     13                     14                     15
                      A                      A                      A
 Frequencies --    233.8435               244.9288               247.4919
 Red. masses --      5.1202                 1.1407                 1.1864
 Frc consts  --      0.1650                 0.0403                 0.0428
 IR Inten    --      5.8569                 0.0234                 0.1696

                     16                     17                     18
                      A                      A                      A
 Frequencies --    272.1852               289.8973               344.0658
 Red. masses --      4.8052                 4.1323                 4.6757
 Frc consts  --      0.2097                 0.2046                 0.3261
 IR Inten    --      3.1198                 0.4263                 2.1804

                     19                     20                     21
                      A                      A                      A
 Frequencies --    364.2848               425.2946               438.5625
 Red. masses --     12.0225                 3.4981                 3.0276
 Frc consts  --      0.9400                 0.3728                 0.3431
 IR Inten    --      0.3946                 0.3770                 3.7064

                     22                     23                     24
                      A                      A                      A
 Frequencies --    472.9302               537.7979               553.1727
 Red. masses --      6.0292                 3.6934                 6.2803
 Frc consts  --      0.7945                 0.6294                 1.1323
 IR Inten    --     15.8562                 1.8064                 1.5215

                     25                     26                     27
                      A                      A                      A
 Frequencies --    569.7451               648.1833               665.6659
 Red. masses --      3.3010                 4.8770                 4.9295
 Frc consts  --      0.6313                 1.2072                 1.2870
 IR Inten    --      5.0571                 0.0162                 4.5371

                     28                     29                     30
                      A                      A                      A
 Frequencies --    731.0464               738.0921               762.6635
 Red. masses --      1.1700                 1.0936                 1.6706
 Frc consts  --      0.3684                 0.3510                 0.5725
 IR Inten    --      2.1796                 0.3991                 0.1011

                     31                     32                     33
                      A                      A                      A
 Frequencies --    779.6674               790.2067               801.0320
 Red. masses --      1.2240                 5.6500                 1.7045
 Frc consts  --      0.4384                 2.0786                 0.6444
 IR Inten    --     12.3279                 1.6890                 2.1563

                     34                     35                     36
                      A                      A                      A
 Frequencies --    830.0141               845.6667               900.7370
 Red. masses --      1.3141                 1.7110                 1.8951
 Frc consts  --      0.5334                 0.7209                 0.9059
 IR Inten    --     12.1314                 8.0400                 4.3363

                     37                     38                     39
                      A                      A                      A
 Frequencies --    902.2457               938.4593               942.6970
 Red. masses --      1.8244                 1.2507                 1.2531
 Frc consts  --      0.8750                 0.6490                 0.6561
 IR Inten    --      5.9465                 0.0400                 2.3687

                     40                     41                     42
                      A                      A                      A
 Frequencies --    955.0679               981.6196              1027.6104
 Red. masses --      4.6693                 5.5215                 3.2211
 Frc consts  --      2.5094                 3.1347                 2.0041
 IR Inten    --     11.7601                 6.2302                 2.5895

                     43                     44                     45
                      A                      A                      A
 Frequencies --   1037.2158              1060.4539              1068.9814
 Red. masses --      3.0582                 2.3901                 2.2781
 Frc consts  --      1.9385                 1.5836                 1.5338
 IR Inten    --      1.6310                 0.2713                 0.1661

                     46                     47                     48
                      A                      A                      A
 Frequencies --   1116.8552              1117.7685              1119.0675
 Red. masses --      2.1673                 1.4173                 1.5838
 Frc consts  --      1.5928                 1.0433                 1.1686
 IR Inten    --      1.8045                 0.0223                 0.0237

                     49                     50                     51
                      A                      A                      A
 Frequencies --   1119.1988              1165.9167              1207.2806
 Red. masses --      2.0370                 2.0686                 1.9689
 Frc consts  --      1.5033                 1.6568                 1.6908
 IR Inten    --      0.0628                 2.1701                12.5982

                     52                     53                     54
                      A                      A                      A
 Frequencies --   1236.5767              1240.8402              1242.3144
 Red. masses --      1.4096                 1.4121                 3.0501
 Frc consts  --      1.2700                 1.2810                 2.7735
 IR Inten    --      0.1236                 0.1181                 2.5317

                     55                     56                     57
                      A                      A                      A
 Frequencies --   1267.6519              1277.7032              1300.5435
 Red. masses --      1.4232                 1.6096                 1.1639
 Frc consts  --      1.3474                 1.5482                 1.1599
 IR Inten    --      3.5067                 5.3177                 0.6781

                     58                     59                     60
                      A                      A                      A
 Frequencies --   1312.6107              1323.9804              1326.2029
 Red. masses --      1.1755                 1.0702                 1.0574
 Frc consts  --      1.1933                 1.1053                 1.0957
 IR Inten    --      0.8132                 0.0266                 0.0075

                     61                     62                     63
                      A                      A                      A
 Frequencies --   1329.0319              1354.1100              1371.8371
 Red. masses --      1.5933                 1.5594                 1.6927
 Frc consts  --      1.6582                 1.6847                 1.8769
 IR Inten    --      5.6563                 0.4933                 0.1753

                     64                     65                     66
                      A                      A                      A
 Frequencies --   1389.1397              1394.6883              1403.7397
 Red. masses --      1.7547                 1.7138                 1.2781
 Frc consts  --      1.9951                 1.9641                 1.4838
 IR Inten    --     16.4873                 1.6344                 1.2024

                     67                     68                     69
                      A                      A                      A
 Frequencies --   1406.0019              1421.9345              1471.1176
 Red. masses --      1.2446                 2.5906                 1.1190
 Frc consts  --      1.4496                 3.0861                 1.4269
 IR Inten    --      2.7981                 8.0158                 8.9564

                     70                     71                     72
                      A                      A                      A
 Frequencies --   1481.4349              1486.8662              1487.8399
 Red. masses --      1.0842                 1.0659                 1.0653
 Frc consts  --      1.4019                 1.3884                 1.3895
 IR Inten    --      1.0799                 0.4854                 1.3999

                     73                     74                     75
                      A                      A                      A
 Frequencies --   1496.3063              1496.8767              1497.5437
 Red. masses --      1.0406                 1.0403                 1.0824
 Frc consts  --      1.3727                 1.3733                 1.4302
 IR Inten    --      5.8543                 7.6011                 2.5180

                     76                     77                     78
                      A                      A                      A
 Frequencies --   1498.9549              1507.7866              1510.4517
 Red. masses --      1.1110                 3.9565                 1.1128
 Frc consts  --      1.4707                 5.2996                 1.4958
 IR Inten    --     10.3423               308.8716                 5.1210

                     79                     80                     81
                      A                      A                      A
 Frequencies --   1512.0205              1539.3012              1560.3630
 Red. masses --      1.1689                10.9968                 8.2878
 Frc consts  --      1.5745                15.3519                11.8889
 IR Inten    --     18.4981               116.1191               276.1375

                     82                     83                     84
                      A                      A                      A
 Frequencies --   1599.6666              2973.1132              2986.5225
 Red. masses --      4.5486                 1.0582                 1.0576
 Frc consts  --      6.8579                 5.5110                 5.5580
 IR Inten    --     47.4907                55.2712                 4.4329

                     85                     86                     87
                      A                      A                      A
 Frequencies --   2987.0148              2991.5936              2994.3582
 Red. masses --      1.1006                 1.0587                 1.0574
 Frc consts  --      5.7857                 5.5825                 5.5860
 IR Inten    --     19.1485                22.7928                12.0298

                     88                     89                     90
                      A                      A                      A
 Frequencies --   2995.7608              3002.8015              3004.5266
 Red. masses --      1.0985                 1.0600                 1.0568
 Frc consts  --      5.8087                 5.6310                 5.6210
 IR Inten    --      4.8321                97.2269                42.7072

                     91                     92                     93
                      A                      A                      A
 Frequencies --   3005.5897              3009.0829              3013.1236
 Red. masses --      1.0351                 1.0376                 1.1014
 Frc consts  --      5.5091                 5.5356                 5.8916
 IR Inten    --     55.8757                66.0589                 4.7416

                     94                     95                     96
                      A                      A                      A
 Frequencies --   3013.6934              3036.6987              3043.4802
 Red. masses --      1.1011                 1.1043                 1.1050
 Frc consts  --      5.8922                 6.0000                 6.0306
 IR Inten    --      0.7870                43.8398                44.2421

                     97                     98                     99
                      A                      A                      A
 Frequencies --   3062.8617              3066.4003              3067.2908
 Red. masses --      1.1005                 1.1008                 1.1024
 Frc consts  --      6.0829                 6.0983                 6.1108
 IR Inten    --     76.5587                62.4271                82.5705

                    100                    101                    102
                      A                      A                      A
 Frequencies --   3070.8230              3117.8869              3165.6360
 Red. masses --      1.1023                 1.0885                 1.0860
 Frc consts  --      6.1245                 6.2342                 6.4121
 IR Inten    --     87.9918                42.9076                27.9790

 - Thermochemistry -
 -------------------
 Temperature   298.150 Kelvin.  Pressure   1.00000 Atm.
 Atom     1 has atomic number  6 and mass  12.00000

 Molecular mass:   220.14633 amu.
 Principal axes and moments of inertia in atomic units:
                           1         2         3
     Eigenvalues --  4386.852805363.681559662.12835
           X            0.92942  -0.36903   0.00101
           Y            0.36896   0.92928   0.01781
           Z           -0.00751  -0.01618   0.99984
 This molecule is an asymmetric top.
 Rotational symmetry number  1.
 Warning -- assumption of classical behavior for rotation
           may cause significant error
 Rotational temperatures (Kelvin)      0.01974     0.01615     0.00896
 Rotational constants (GHZ):           0.41140     0.33647     0.18679
    1 imaginary frequencies ignored.
 Zero-point vibrational energy     806437.0 (Joules/Mol)
                                  192.74308 (Kcal/Mol)
 Warning -- explicit consideration of  24 degrees of freedom as
           vibrations may cause significant error
 Vibrational temperatures:     35.88    73.50    98.01   105.91   142.68
          (Kelvin)            144.70   149.91   172.25   237.29   289.78
                              311.76   336.45   352.40   356.09   391.61
                              417.10   495.03   524.12   611.90   630.99
                              680.44   773.77   795.89   819.74   932.59
                              957.74  1051.81  1061.95  1097.30  1121.77
                             1136.93  1152.51  1194.21  1216.73  1295.96
                             1298.13  1350.23  1356.33  1374.13  1412.33
                             1478.50  1492.32  1525.76  1538.03  1606.91
                             1608.22  1610.09  1610.28  1677.49  1737.01
                             1779.16  1785.29  1787.41  1823.87  1838.33
                             1871.19  1888.55  1904.91  1908.11  1912.18
                             1948.26  1973.77  1998.66  2006.65  2019.67
                             2022.92  2045.85  2116.61  2131.45  2139.27
                             2140.67  2152.85  2153.67  2154.63  2156.66
                             2169.37  2173.20  2175.46  2214.71  2245.01
                             2301.56  4277.65  4296.94  4297.65  4304.24
                             4308.21  4310.23  4320.36  4322.84  4324.37
                             4329.40  4335.21  4336.03  4369.13  4378.89
                             4406.77  4411.87  4413.15  4418.23  4485.94
                             4554.64

 Zero-point correction=                           0.307156 (Hartree/Particle)
 Thermal correction to Energy=                    0.324067
 Thermal correction to Enthalpy=                  0.325011
 Thermal correction to Gibbs Free Energy=         0.260553
 Sum of electronic and zero-point Energies=           -695.919421
 Sum of electronic and thermal Energies=              -695.902510
 Sum of electronic and thermal Enthalpies=            -695.901565
 Sum of electronic and thermal Free Energies=         -695.966023

                     E (Thermal)             CV                S
                      KCal/Mol        Cal/Mol-Kelvin    Cal/Mol-Kelvin
 Total                  203.355             62.673            135.663
 Electronic               0.000              0.000              1.377
 Translational            0.889              2.981             42.070
 Rotational               0.889              2.981             33.785
 Vibrational            201.578             56.711             58.430
 Vibration     1          0.593              1.985              6.196
 Vibration     2          0.595              1.977              4.775
 Vibration     3          0.598              1.969              4.207
 Vibration     4          0.599              1.966              4.054
 Vibration     5          0.604              1.950              3.471
 Vibration     6          0.604              1.949              3.443
 Vibration     7          0.605              1.946              3.374
 Vibration     8          0.609              1.933              3.105
 Vibration     9          0.623              1.886              2.493
 Vibration    10          0.638              1.838              2.120
 Vibration    11          0.646              1.816              1.987
 Vibration    12          0.654              1.789              1.849
 Vibration    13          0.660              1.771              1.767
 Vibration    14          0.661              1.767              1.748
 Vibration    15          0.675              1.725              1.582
 Vibration    16          0.686              1.693              1.475
 Vibration    17          0.723              1.587              1.193
 Vibration    18          0.738              1.546              1.104
 Vibration    19          0.787              1.415              0.874
 Vibration    20          0.799              1.386              0.831
 Vibration    21          0.830              1.310              0.729
 Vibration    22          0.893              1.166              0.570
 Vibration    23          0.909              1.133              0.538
 Vibration    24          0.926              1.097              0.505

                           ! Non-Optimized Parameters !
 Normal termination of Gaussian 16 at Sat Jan  6 03:43:02 2024.
