 Q-Chem 5.4, Q-Chem, Inc., Pleasanton, CA (2021)
 Q-Chem 5.4.0 for Intel X86 EM64T Linux

User input:
--------------------------------------------------------------
$molecule
0 1
O                 -2.7783760000      2.4948630000     -0.4519320000
C                 -2.6658970000      1.1804040000     -0.2208320000
C                 -3.8482670000      0.4371270000     -0.0967890000
C                 -3.7912220000     -0.9254700000      0.1424400000
C                 -2.5638530000     -1.5848870000      0.2646340000
C                 -1.3824910000     -0.8673360000      0.1451330000
C                 -0.0846400000     -1.6059540000      0.2816660000
O                 -0.0922330000     -2.8066350000      0.4914530000
C                  1.1738530000     -0.8208410000      0.1502410000
C                  2.4283650000     -1.4362350000      0.2644690000
O                  2.5279630000     -2.7676310000      0.4984620000
C                  3.5975260000     -0.6604010000      0.1342830000
C                  3.5437530000      0.6917930000     -0.1030830000
C                  2.3033400000      1.3405970000     -0.2230780000
O                  2.3293390000      2.6601960000     -0.4543010000
C                  1.1154950000      0.5864790000     -0.0968460000
C                 -0.1719330000      1.2734930000     -0.2238920000
O                 -0.2057840000      2.5156000000     -0.4421640000
C                 -1.4123750000      0.5245100000     -0.0991210000
H                 -1.8669070000      2.8627030000     -0.5115180000
H                 -4.7923270000      0.9591460000     -0.1933420000
H                 -4.7134870000     -1.4879050000      0.2361540000
H                 -2.5095290000     -2.6490470000      0.4515160000
H                  3.4592760000     -3.0115790000      0.5459250000
H                  4.5631530000     -1.1501400000      0.2249860000
H                  4.4452770000      1.2834760000     -0.2023140000
H                  1.3919810000      2.9636750000     -0.5121520000
$end

$rem
BASIS  =  6-311++G(d,p)
GUI  =  2
JOB_TYPE  =  SP
METHOD  =  B3LYP
SCF_CONVERGENCE  = 8
SOLVENT_METHOD = sm12
$end

$smx
solvent dimethylformamide
charges CM5
$end

--------------------------------------------------------------

             Standard Nuclear Orientation (Angstroms)
    I     Atom           X                Y                Z
 ----------------------------------------------------------------
    1      O      -2.7783760000     2.4948630000    -0.4519320000
    2      C      -2.6658970000     1.1804040000    -0.2208320000
    3      C      -3.8482670000     0.4371270000    -0.0967890000
    4      C      -3.7912220000    -0.9254700000     0.1424400000
    5      C      -2.5638530000    -1.5848870000     0.2646340000
    6      C      -1.3824910000    -0.8673360000     0.1451330000
    7      C      -0.0846400000    -1.6059540000     0.2816660000
    8      O      -0.0922330000    -2.8066350000     0.4914530000
    9      C       1.1738530000    -0.8208410000     0.1502410000
   10      C       2.4283650000    -1.4362350000     0.2644690000
   11      O       2.5279630000    -2.7676310000     0.4984620000
   12      C       3.5975260000    -0.6604010000     0.1342830000
   13      C       3.5437530000     0.6917930000    -0.1030830000
   14      C       2.3033400000     1.3405970000    -0.2230780000
   15      O       2.3293390000     2.6601960000    -0.4543010000
   16      C       1.1154950000     0.5864790000    -0.0968460000
   17      C      -0.1719330000     1.2734930000    -0.2238920000
   18      O      -0.2057840000     2.5156000000    -0.4421640000
   19      C      -1.4123750000     0.5245100000    -0.0991210000
   20      H      -1.8669070000     2.8627030000    -0.5115180000
   21      H      -4.7923270000     0.9591460000    -0.1933420000
   22      H      -4.7134870000    -1.4879050000     0.2361540000
   23      H      -2.5095290000    -2.6490470000     0.4515160000
   24      H       3.4592760000    -3.0115790000     0.5459250000
   25      H       4.5631530000    -1.1501400000     0.2249860000
   26      H       4.4452770000     1.2834760000    -0.2023140000
   27      H       1.3919810000     2.9636750000    -0.5121520000
 ----------------------------------------------------------------

   15    -914.7056777322      4.50e-09  Convergence criterion met
 Total energy in the final basis set =     -914.7372118920

                    Orbital Energies (a.u.)
 --------------------------------------------------------------

 Alpha MOs
 -- Occupied --
-19.1727 -19.1648 -19.1628 -19.1491 -19.1188 -10.2962 -10.2779 -10.2699
-10.2685 -10.2682 -10.2157 -10.2130 -10.2114 -10.2108 -10.2084 -10.2029
-10.2028 -10.1948 -10.1917  -1.0999  -1.0894  -1.0859  -1.0603  -1.0551
 -0.8947  -0.8794  -0.8209  -0.7817  -0.7758  -0.7662  -0.7004  -0.6784
 -0.6722  -0.6261  -0.6208  -0.5919  -0.5691  -0.5599  -0.5420  -0.5231
 -0.5057  -0.5012  -0.4823  -0.4745  -0.4696  -0.4636  -0.4553  -0.4440
 -0.4415  -0.4317  -0.4201  -0.4145  -0.4111  -0.4041  -0.3934  -0.3921
 -0.3822  -0.3754  -0.3566  -0.3358  -0.3007  -0.2970  -0.2829  -0.2672
 -0.2531  -0.2350

          Ground-State Mulliken Net Atomic Charges

     Atom                 Charge (a.u.)
  ----------------------------------------
      1 O                    -0.319172
      2 C                    -0.389980
      3 C                     0.274278
      4 C                     0.409047
      5 C                    -0.138017
      6 C                    -0.506937
      7 C                    -1.129798
      8 O                    -0.280953
      9 C                    -0.535182
     10 C                     0.054094
     11 O                    -0.198251
     12 C                     1.496194
     13 C                     0.749271
     14 C                    -0.230391
     15 O                    -0.355392
     16 C                     0.118122
     17 C                    -0.989293
     18 O                    -0.367479
     19 C                    -0.148707
     20 H                     0.347952
     21 H                     0.261838
     22 H                     0.353521
     23 H                     0.162721
     24 H                     0.338608
     25 H                     0.385995
     26 H                     0.296375
     27 H                     0.341537
  ----------------------------------------
  Sum of atomic charges =     0.000000

                    Cartesian Multipole Moments
 -----------------------------------------------------------------
    Charge (ESU x 10^10)
                 0.0000
    Dipole Moment (Debye)
         X       2.8757      Y      -1.0693      Z       0.2037
       Tot       3.0748
    Quadrupole Moments (Debye-Ang)
        XX     -75.5025     XY      -4.4093     YY    -121.7838
        XZ       0.9532     YZ       1.9541     ZZ    -110.8485

 Total job time:  601.87s(wall), 4702.68s(cpu)
        *  Thank you very much for using Q-Chem.  Have a nice day.  *
