 Gaussian 16, Revision A.03,
 Gaussian 16:  ES64L-G16RevA.03 25-Dec-2016

 --------------------------------------
 #P UB3LYP/6-311++G(d,p) nosym opt freq
 --------------------------------------

 --------
 Oxidized
 --------
 Symbolic Z-matrix:
 Charge =  0 Multiplicity = 1

 SCF Done:  E(UB3LYP) =  -914.707409946     A.U. after   16 cycles
 SCF Done:  E(UB3LYP) =  -914.707409767     A.U. after   10 cycles
 SCF Done:  E(UB3LYP) =  -914.707410002     A.U. after    9 cycles
 Optimization completed.
    -- Stationary point found.
 Normal termination of Gaussian 16 at Sun Jan  7 06:47:15 2024.

 ----------------------------------------------------------------------
 #P Geom=AllCheck Guess=TCheck SCRF=Check GenChk UB3LYP/6-311++G(d,p) F
 req
 ----------------------------------------------------------------------

 Structure from the checkpoint file:  "201.chk"
 --------
 Oxidized
 --------
 Charge =  0 Multiplicity = 1

                          Input orientation:
 ---------------------------------------------------------------------
 Center     Atomic      Atomic             Coordinates (Angstroms)
 Number     Number       Type             X           Y           Z
 ---------------------------------------------------------------------
      1          8           0       -2.778376    2.494863   -0.451932
      2          6           0       -2.665897    1.180404   -0.220832
      3          6           0       -3.848267    0.437127   -0.096789
      4          6           0       -3.791222   -0.925470    0.142440
      5          6           0       -2.563853   -1.584887    0.264634
      6          6           0       -1.382491   -0.867336    0.145133
      7          6           0       -0.084640   -1.605954    0.281666
      8          8           0       -0.092233   -2.806635    0.491453
      9          6           0        1.173853   -0.820841    0.150241
     10          6           0        2.428365   -1.436235    0.264469
     11          8           0        2.527963   -2.767631    0.498462
     12          6           0        3.597526   -0.660401    0.134283
     13          6           0        3.543753    0.691793   -0.103083
     14          6           0        2.303340    1.340597   -0.223078
     15          8           0        2.329339    2.660196   -0.454301
     16          6           0        1.115495    0.586479   -0.096846
     17          6           0       -0.171933    1.273493   -0.223892
     18          8           0       -0.205784    2.515600   -0.442164
     19          6           0       -1.412375    0.524510   -0.099121
     20          1           0       -1.866907    2.862703   -0.511518
     21          1           0       -4.792327    0.959146   -0.193342
     22          1           0       -4.713487   -1.487905    0.236154
     23          1           0       -2.509529   -2.649047    0.451516
     24          1           0        3.459276   -3.011579    0.545925
     25          1           0        4.563153   -1.150140    0.224986
     26          1           0        4.445277    1.283476   -0.202314
     27          1           0        1.391981    2.963675   -0.512152
 ---------------------------------------------------------------------

 SCF Done:  E(UB3LYP) =  -914.707410002     A.U. after    1 cycles

 Alpha  occ. eigenvalues --  -19.17878 -19.16341 -19.16314 -19.14979 -19.11806
 Alpha  occ. eigenvalues --  -10.29719 -10.27686 -10.27263 -10.27154 -10.27003
 Alpha  occ. eigenvalues --  -10.21881 -10.21717 -10.21672 -10.21141 -10.21086
 Alpha  occ. eigenvalues --  -10.20992 -10.20601 -10.19669 -10.19238  -1.10001
 Alpha  occ. eigenvalues --   -1.09601  -1.08548  -1.06039  -1.05367  -0.89729
 Alpha  occ. eigenvalues --   -0.88204  -0.82416  -0.78502  -0.77753  -0.76875
 Alpha  occ. eigenvalues --   -0.70351  -0.68177  -0.67450  -0.62930  -0.62176
 Alpha  occ. eigenvalues --   -0.59622  -0.57259  -0.56242  -0.54198  -0.52589
 Alpha  occ. eigenvalues --   -0.51053  -0.50301  -0.48576  -0.47546  -0.47413
 Alpha  occ. eigenvalues --   -0.46503  -0.45884  -0.44608  -0.44074  -0.43225
 Alpha  occ. eigenvalues --   -0.42717  -0.41503  -0.41098  -0.40492  -0.39710
 Alpha  occ. eigenvalues --   -0.39458  -0.38773  -0.37553  -0.35621  -0.33951
 Alpha  occ. eigenvalues --   -0.30084  -0.30071  -0.28540  -0.26531  -0.25262
 Alpha  occ. eigenvalues --   -0.23817
 Alpha virt. eigenvalues --   -0.12375  -0.06676  -0.04742  -0.02357  -0.01327
 Alpha virt. eigenvalues --   -0.00439   0.00136   0.00688   0.01920   0.02421
 Alpha virt. eigenvalues --    0.03113   0.03392   0.03894   0.04327   0.04407

  Beta  occ. eigenvalues --  -19.17878 -19.16341 -19.16314 -19.14979 -19.11806
  Beta  occ. eigenvalues --  -10.29719 -10.27686 -10.27263 -10.27154 -10.27003
  Beta  occ. eigenvalues --  -10.21881 -10.21717 -10.21672 -10.21141 -10.21086
  Beta  occ. eigenvalues --  -10.20992 -10.20601 -10.19669 -10.19238  -1.10001
  Beta  occ. eigenvalues --   -1.09601  -1.08548  -1.06039  -1.05367  -0.89729
  Beta  occ. eigenvalues --   -0.88204  -0.82416  -0.78502  -0.77753  -0.76875
  Beta  occ. eigenvalues --   -0.70351  -0.68177  -0.67450  -0.62930  -0.62176
  Beta  occ. eigenvalues --   -0.59622  -0.57259  -0.56242  -0.54198  -0.52589
  Beta  occ. eigenvalues --   -0.51053  -0.50301  -0.48576  -0.47546  -0.47413
  Beta  occ. eigenvalues --   -0.46503  -0.45884  -0.44608  -0.44074  -0.43225
  Beta  occ. eigenvalues --   -0.42717  -0.41503  -0.41098  -0.40492  -0.39710
  Beta  occ. eigenvalues --   -0.39458  -0.38773  -0.37553  -0.35621  -0.33951
  Beta  occ. eigenvalues --   -0.30084  -0.30071  -0.28540  -0.26531  -0.25262
  Beta  occ. eigenvalues --   -0.23817
  Beta virt. eigenvalues --   -0.12375  -0.06676  -0.04742  -0.02357  -0.01327
  Beta virt. eigenvalues --   -0.00439   0.00136   0.00688   0.01920   0.02421
  Beta virt. eigenvalues --    0.03113   0.03392   0.03894   0.04327   0.04407

 Mulliken charges and spin densities:
               1          2
     1  O   -0.279982   0.000000
     2  C   -0.028402  -0.000000
     3  C   -0.156228   0.000000
     4  C   -0.344563  -0.000000
     5  C   -0.030273  -0.000000
     6  C    0.048945   0.000000
     7  C   -0.377796   0.000000
     8  O   -0.203283  -0.000000
     9  C    0.113084  -0.000000
    10  C   -0.258487   0.000000
    11  O   -0.152711  -0.000000
    12  C   -0.136692   0.000000
    13  C   -0.037945   0.000000
    14  C   -0.177922   0.000000
    15  O   -0.294197  -0.000000
    16  C    0.777527  -0.000000
    17  C   -0.407345   0.000000
    18  O   -0.374256  -0.000000
    19  C    0.421166   0.000000
    20  H    0.362499  -0.000000
    21  H    0.193513   0.000000
    22  H    0.187834  -0.000000
    23  H    0.172669  -0.000000
    24  H    0.264074  -0.000000
    25  H    0.146566  -0.000000
    26  H    0.206258  -0.000000
    27  H    0.365947  -0.000000
 Sum of Mulliken charges =  -0.00000   0.00000

 Dipole moment (field-independent basis, Debye):
    X=              2.0969    Y=             -0.8365    Z=              0.1584  Tot=              2.2632
 Quadrupole moment (field-independent basis, Debye-Ang):
   XX=            -81.8858   YY=           -120.7170   ZZ=           -110.6609
   XY=             -4.0361   XZ=              0.8538   YZ=              1.7983

  Exact polarizability: 295.143  -0.512 206.093   1.181 -21.267  88.540
 Approx polarizability: 461.675   4.888 395.412   0.825 -45.244 145.132

                      1                      2                      3
                      A                      A                      A
 Frequencies --     32.0544                61.2894               100.9665
 Red. masses --      7.5050                 7.3805                 8.8849
 Frc consts  --      0.0045                 0.0163                 0.0534
 IR Inten    --      6.0563                 0.1389                 0.5820

                      4                      5                      6
                      A                      A                      A
 Frequencies --    140.4740               171.2226               206.1703
 Red. masses --      7.3177                 7.2092                 6.5137
 Frc consts  --      0.0851                 0.1245                 0.1631
 IR Inten    --      1.1888                 0.0741                 0.2065

                      7                      8                      9
                      A                      A                      A
 Frequencies --    212.3243               258.8119               290.7862
 Red. masses --      4.4598                 5.6231                 7.8387
 Frc consts  --      0.1185                 0.2219                 0.3905
 IR Inten    --      2.5285                 1.6522                 5.1636

                     10                     11                     12
                      A                      A                      A
 Frequencies --    321.4895               332.0069               362.5911
 Red. masses --      1.1964                 6.6259                 5.1099
 Frc consts  --      0.0729                 0.4303                 0.3958
 IR Inten    --     82.9581                 1.8199                 7.2378

                     13                     14                     15
                      A                      A                      A
 Frequencies --    371.3729               418.2009               428.3718
 Red. masses --     12.3357                 6.2738                 5.7289
 Frc consts  --      1.0024                 0.6465                 0.6194
 IR Inten    --      7.7971                 7.9193                 0.1353

                     16                     17                     18
                      A                      A                      A
 Frequencies --    448.0126               463.9024               475.5412
 Red. masses --      9.0242                 9.1917                 8.8020
 Frc consts  --      1.0672                 1.1655                 1.1728
 IR Inten    --      2.3576                24.8776                 1.3047

                     19                     20                     21
                      A                      A                      A
 Frequencies --    481.7180               496.3476               514.0846
 Red. masses --      4.8533                 7.2220                 6.8270
 Frc consts  --      0.6636                 1.0483                 1.0630
 IR Inten    --      0.5501                 0.8871                 5.6373

                     22                     23                     24
                      A                      A                      A
 Frequencies --    534.7763               581.3748               590.5431
 Red. masses --      4.4983                 7.0591                 3.6161
 Frc consts  --      0.7579                 1.4058                 0.7430
 IR Inten    --      8.4102                13.6290                 7.1542

                     25                     26                     27
                      A                      A                      A
 Frequencies --    618.4857               667.7857               708.6512
 Red. masses --      5.2183                 5.2677                 5.0029
 Frc consts  --      1.1761                 1.3840                 1.4803
 IR Inten    --      0.6975                 0.1044                 5.0633

                     28                     29                     30
                      A                      A                      A
 Frequencies --    719.0648               757.4575               765.6783
 Red. masses --      6.9280                 4.4315                 7.2780
 Frc consts  --      2.1105                 1.4980                 2.5140
 IR Inten    --      7.8451                16.2562                13.8878

                     31                     32                     33
                      A                      A                      A
 Frequencies --    768.3240               774.1499               786.4369
 Red. masses --      1.4254                 1.7894                 1.3271
 Frc consts  --      0.4958                 0.6318                 0.4836
 IR Inten    --     66.7570                53.2777               100.9340

                     34                     35                     36
                      A                      A                      A
 Frequencies --    827.0148               836.9737               846.7531
 Red. masses --      1.6125                 1.7060                 9.0518
 Frc consts  --      0.6498                 0.7041                 3.8238
 IR Inten    --     23.9613                16.1242                56.1818

                     37                     38                     39
                      A                      A                      A
 Frequencies --    903.2422               933.8334               950.3541
 Red. masses --      8.0232                 1.4033                 1.2933
 Frc consts  --      3.8566                 0.7210                 0.6882
 IR Inten    --     27.1169                 0.0141                 0.2474

                     40                     41                     42
                      A                      A                      A
 Frequencies --    964.4053               992.1277              1005.6250
 Red. masses --      5.6177                 6.4072                 1.3194
 Frc consts  --      3.0784                 3.7158                 0.7861
 IR Inten    --     29.3982                 5.1745                 0.5461

                     43                     44                     45
                      A                      A                      A
 Frequencies --   1074.5666              1111.1805              1175.1876
 Red. masses --      2.5676                 2.0112                 2.2483
 Frc consts  --      1.7468                 1.4631                 1.8294
 IR Inten    --     31.6509                65.1090                 0.4488

                     46                     47                     48
                      A                      A                      A
 Frequencies --   1182.7155              1189.4363              1230.7695
 Red. masses --      1.2482                 1.2661                 1.8724
 Frc consts  --      1.0287                 1.0553                 1.6711
 IR Inten    --     13.6094               137.1328                63.2979

                     49                     50                     51
                      A                      A                      A
 Frequencies --   1243.9545              1281.7915              1298.9068
 Red. masses --      2.2426                 4.1956                 3.4612
 Frc consts  --      2.0446                 4.0614                 3.4405
 IR Inten    --    369.2556               342.2117               276.7342

                     52                     53                     54
                      A                      A                      A
 Frequencies --   1313.5022              1341.0041              1342.7141
 Red. masses --      3.3626                 2.4469                 3.4731
 Frc consts  --      3.4181                 2.5926                 3.6893
 IR Inten    --    257.2872                21.8696                29.7665

                     55                     56                     57
                      A                      A                      A
 Frequencies --   1393.3303              1405.2093              1417.2540
 Red. masses --      5.1632                 4.8833                 3.9519
 Frc consts  --      5.9057                 5.6813                 4.6768
 IR Inten    --     69.9643                27.6760               179.2295

                     58                     59                     60
                      A                      A                      A
 Frequencies --   1464.3273              1484.6366              1494.6359
 Red. masses --      3.2671                 2.3797                 2.7804
 Frc consts  --      4.1275                 3.0903                 3.6595
 IR Inten    --     51.9904                81.2464               272.6165

                     61                     62                     63
                      A                      A                      A
 Frequencies --   1511.4580              1593.4543              1611.8802
 Red. masses --      2.8402                 4.4210                 4.3858
 Frc consts  --      3.8229                 6.6137                 6.7137
 IR Inten    --    176.7224                 1.0626               162.5750

                     64                     65                     66
                      A                      A                      A
 Frequencies --   1622.6581              1643.0426              1662.0846
 Red. masses --      4.2974                 5.3739                 6.8240
 Frc consts  --      6.6667                 8.5474                11.1070
 IR Inten    --      2.7690                 7.2770               352.4127

                     67                     68                     69
                      A                      A                      A
 Frequencies --   1723.8319              3150.3906              3174.9187
 Red. masses --     11.3712                 1.0899                 1.0885
 Frc consts  --     19.9089                 6.3731                 6.4648
 IR Inten    --    129.0403                13.2346                 8.8391

                     70                     71                     72
                      A                      A                      A
 Frequencies --   3198.1966              3200.3769              3211.4796
 Red. masses --      1.0935                 1.0935                 1.0928
 Frc consts  --      6.5901                 6.5987                 6.6408
 IR Inten    --      4.1722                 1.4139                 2.7678

                     73                     74                     75
                      A                      A                      A
 Frequencies --   3342.6968              3401.8670              3813.4215
 Red. masses --      1.0667                 1.0677                 1.0661
 Frc consts  --      7.0227                 7.2799                 9.1343
 IR Inten    --    322.5213               143.4970                91.5155

 - Thermochemistry -
 -------------------
 Temperature   298.150 Kelvin.  Pressure   1.00000 Atm.
 Atom     1 has atomic number  8 and mass  15.99491

 Molecular mass:   256.03717 amu.
 Principal axes and moments of inertia in atomic units:
                           1         2         3
     Eigenvalues --  2862.116035261.111188123.22716
           X            0.98780   0.15562  -0.00512
           Y           -0.15241   0.97311   0.17271
           Z            0.03185  -0.16982   0.98496
 This molecule is an asymmetric top.
 Rotational symmetry number  1.
 Warning -- assumption of classical behavior for rotation
           may cause significant error
 Rotational temperatures (Kelvin)      0.03026     0.01646     0.01066
 Rotational constants (GHZ):           0.63056     0.34303     0.22217
 Zero-point vibrational energy     504989.6 (Joules/Mol)
                                  120.69542 (Kcal/Mol)
 Warning -- explicit consideration of  25 degrees of freedom as
           vibrations may cause significant error
 Vibrational temperatures:     46.12    88.18   145.27   202.11   246.35
          (Kelvin)            296.63   305.49   372.37   418.38   462.55
                              477.68   521.69   534.32   601.70   616.33
                              644.59   667.45   684.20   693.08   714.13
                              739.65   769.42   836.47   849.66   889.86
                              960.79  1019.59  1034.57  1089.81  1101.64
                             1105.45  1113.83  1131.51  1189.89  1204.22
                             1218.29  1299.56  1343.58  1367.35  1387.56
                             1427.45  1446.87  1546.06  1598.74  1690.83
                             1701.66  1711.33  1770.80  1789.77  1844.21
                             1868.84  1889.84  1929.41  1931.87  2004.69
                             2021.78  2039.11  2106.84  2136.06  2150.45
                             2174.65  2292.63  2319.14  2334.64  2363.97
                             2391.37  2480.21  4532.71  4568.00  4601.49
                             4604.63  4620.60  4809.40  4894.53  5486.66

 Zero-point correction=                           0.192340 (Hartree/Particle)
 Thermal correction to Energy=                    0.206508
 Thermal correction to Enthalpy=                  0.207452
 Thermal correction to Gibbs Free Energy=         0.151234
 Sum of electronic and zero-point Energies=           -914.515070
 Sum of electronic and thermal Energies=              -914.500902
 Sum of electronic and thermal Enthalpies=            -914.499958
 Sum of electronic and thermal Free Energies=         -914.556176

                     E (Thermal)             CV                S
                      KCal/Mol        Cal/Mol-Kelvin    Cal/Mol-Kelvin
 Total                  129.586             57.497            118.321
 Electronic               0.000              0.000              0.000
 Translational            0.889              2.981             42.520
 Rotational               0.889              2.981             33.169
 Vibrational            127.808             51.535             42.631
 Vibration     1          0.594              1.983              5.698
 Vibration     2          0.597              1.973              4.415
 Vibration     3          0.604              1.948              3.436
 Vibration     4          0.615              1.913              2.797
 Vibration     5          0.626              1.878              2.422
 Vibration     6          0.641              1.831              2.077
 Vibration     7          0.643              1.822              2.024
 Vibration     8          0.668              1.748              1.670
 Vibration     9          0.687              1.691              1.469
 Vibration    10          0.707              1.632              1.303
 Vibration    11          0.714              1.612              1.250
 Vibration    12          0.736              1.549              1.111
 Vibration    13          0.743              1.531              1.074
 Vibration    14          0.781              1.431              0.898
 Vibration    15          0.790              1.408              0.864
 Vibration    16          0.807              1.365              0.802
 Vibration    17          0.821              1.330              0.755
 Vibration    18          0.832              1.304              0.722
 Vibration    19          0.838              1.291              0.705
 Vibration    20          0.852              1.258              0.667
 Vibration    21          0.869              1.219              0.624
 Vibration    22          0.890              1.173              0.577
 Vibration    23          0.938              1.072              0.483
 Vibration    24          0.948              1.052              0.466
 Vibration    25          0.978              0.993              0.419

 Optimization completed.
    -- Stationary point found.
 Normal termination of Gaussian 16 at Sun Jan  7 07:17:47 2024.
