 Gaussian 16, Revision A.03,
 Gaussian 16:  ES64L-G16RevA.03 25-Dec-2016

 ----------------------------------------------------------------------
 #P UB3LYP/6-311++G(d,p) nosym opt freq SCRF=(PCM,Solvent=n,n-DiMethylF
 ormamide)
 ----------------------------------------------------------------------

 -------
 Radical
 -------
 Symbolic Z-matrix:
 Charge = -1 Multiplicity = 2

 SCF Done:  E(UB3LYP) =  -989.013322132     A.U. after   21 cycles
 SCF Done:  E(UB3LYP) =  -989.013674482     A.U. after   17 cycles
 SCF Done:  E(UB3LYP) =  -989.013687751     A.U. after   17 cycles
 SCF Done:  E(UB3LYP) =  -989.013842899     A.U. after   16 cycles
 SCF Done:  E(UB3LYP) =  -989.013850428     A.U. after   15 cycles
 SCF Done:  E(UB3LYP) =  -989.013860274     A.U. after   15 cycles
 SCF Done:  E(UB3LYP) =  -989.013863980     A.U. after   15 cycles
 SCF Done:  E(UB3LYP) =  -989.013864801     A.U. after   14 cycles
 SCF Done:  E(UB3LYP) =  -989.013865011     A.U. after   12 cycles
 Optimization completed.
    -- Stationary point found.
 Normal termination of Gaussian 16 at Sun Feb 11 01:38:08 2024.

 ----------------------------------------------------------------------
 #P Geom=AllCheck Guess=TCheck SCRF=Check GenChk UB3LYP/6-311++G(d,p) F
 req
 ----------------------------------------------------------------------

 Structure from the checkpoint file:  "270-rad.chk"
 -------
 Radical
 -------
 Charge = -1 Multiplicity = 2

                          Input orientation:
 ---------------------------------------------------------------------
 Center     Atomic      Atomic             Coordinates (Angstroms)
 Number     Number       Type             X           Y           Z
 ---------------------------------------------------------------------
      1          6           0       -0.979616    3.989819   -0.121577
      2          6           0       -2.223642    3.388010   -0.191882
      3          6           0       -2.326854    1.984184   -0.206277
      4          6           0        0.200140    3.217265   -0.061165
      5          6           0        0.095032    1.799089   -0.076596
      6          6           0       -1.180609    1.208357   -0.151627
      7          6           0        1.501827    3.867779   -0.003172
      8          6           0        2.672049    3.010446    0.061856
      9          6           0        2.553469    1.624545    0.103892
     10          6           0        1.292901    0.948433   -0.009829
     11          8           0        1.646326    5.130853   -0.024432
     12          8           0        1.212002   -0.314057   -0.048607
     13          7           0        3.891014    3.669949    0.142180
     14         16           0        3.977765    0.541518    0.238272
     15          1           0       -0.887547    5.069273   -0.113403
     16          1           0       -3.119828    3.997543   -0.236555
     17          1           0       -3.301752    1.512062   -0.260883
     18          1           0       -1.242365    0.126761   -0.164050
     19          1           0        3.789283    4.656846   -0.069231
     20          1           0        4.669146    3.235779   -0.336499
     21          1           0        4.786411    1.422708    0.863163
 ---------------------------------------------------------------------

 SCF Done:  E(UB3LYP) =  -989.013865011     A.U. after    1 cycles

 Alpha  occ. eigenvalues --  -88.85079 -19.07971 -19.07431 -14.31802 -10.22648
 Alpha  occ. eigenvalues --  -10.22237 -10.21152 -10.19068 -10.17444 -10.17388
 Alpha  occ. eigenvalues --  -10.17214 -10.17133 -10.17013 -10.17009  -7.93721
 Alpha  occ. eigenvalues --   -5.90074  -5.89724  -5.89158  -1.00376  -0.99768
 Alpha  occ. eigenvalues --   -0.91538  -0.85778  -0.80568  -0.76410  -0.75043
 Alpha  occ. eigenvalues --   -0.70900  -0.66742  -0.61456  -0.60261  -0.56348
 Alpha  occ. eigenvalues --   -0.54144  -0.51172  -0.47911  -0.47590  -0.45386
 Alpha  occ. eigenvalues --   -0.43500  -0.42593  -0.42077  -0.41317  -0.40292
 Alpha  occ. eigenvalues --   -0.39872  -0.38196  -0.36641  -0.35343  -0.34859
 Alpha  occ. eigenvalues --   -0.33631  -0.32481  -0.28039  -0.26334  -0.25689
 Alpha  occ. eigenvalues --   -0.25136  -0.24131  -0.21004  -0.14947
 Alpha virt. eigenvalues --   -0.03295  -0.01076  -0.00722   0.00329   0.01439
 Alpha virt. eigenvalues --    0.02308   0.02732   0.02990   0.03822   0.04644
 Alpha virt. eigenvalues --    0.04964   0.05412   0.05614   0.05972   0.06550

  Beta  occ. eigenvalues --  -88.85076 -19.07321 -19.06928 -14.31729 -10.22492
  Beta  occ. eigenvalues --  -10.21983 -10.21015 -10.19031 -10.17407 -10.17298
  Beta  occ. eigenvalues --  -10.17197 -10.17075 -10.17014 -10.16976  -7.93718
  Beta  occ. eigenvalues --   -5.90074  -5.89724  -5.89146  -0.99307  -0.98837
  Beta  occ. eigenvalues --   -0.91248  -0.85567  -0.80269  -0.76172  -0.74834
  Beta  occ. eigenvalues --   -0.70641  -0.65941  -0.61257  -0.60015  -0.56070
  Beta  occ. eigenvalues --   -0.54016  -0.50936  -0.47759  -0.47284  -0.45313
  Beta  occ. eigenvalues --   -0.43099  -0.42231  -0.41296  -0.40885  -0.39913
  Beta  occ. eigenvalues --   -0.39492  -0.36406  -0.35875  -0.35061  -0.34638
  Beta  occ. eigenvalues --   -0.33446  -0.30952  -0.27564  -0.24921  -0.24688
  Beta  occ. eigenvalues --   -0.24558  -0.23628  -0.20200
  Beta virt. eigenvalues --   -0.08540  -0.02549  -0.00740   0.00041   0.00347
  Beta virt. eigenvalues --    0.01456   0.02325   0.02754   0.03021   0.03926
  Beta virt. eigenvalues --    0.04709   0.05173   0.05551   0.05952   0.06608

 Mulliken charges and spin densities:
               1          2
     1  C   -0.005680   0.061666
     2  C   -0.358251   0.009591
     3  C   -0.404520   0.058833
     4  C    0.399154   0.025172
     5  C    0.709773   0.057489
     6  C    0.082934   0.005398
     7  C   -1.244681   0.151523
     8  C    0.047359   0.093498
     9  C    1.890345   0.008395
    10  C   -1.565011   0.076627
    11  O   -0.502593   0.239962
    12  O   -0.447513   0.183701
    13  N   -0.363038   0.034738
    14  S   -0.559041   0.005575
    15  H    0.161112  -0.003792
    16  H    0.185196  -0.001228
    17  H    0.184273  -0.004337
    18  H    0.161079  -0.000394
    19  H    0.290539  -0.002375
    20  H    0.251313   0.000367
    21  H    0.087251  -0.000408
 Sum of Mulliken charges =  -1.00000   1.00000

 Dipole moment (field-independent basis, Debye):
    X=             -6.1806    Y=             -8.8013    Z=             -0.6610  Tot=             10.7749
 Quadrupole moment (field-independent basis, Debye-Ang):
   XX=            -92.5265   YY=           -144.9548   ZZ=            -95.8807
   XY=             -7.2356   XZ=             -2.2911   YZ=             -2.8005

  Exact polarizability: 348.472  -7.807 321.164  14.698  -2.260 126.511
 Approx polarizability: 362.003   6.260 380.012  15.480   0.852 141.479

                      1                      2                      3
                      A                      A                      A
 Frequencies --     70.4459               100.6182               139.8448
 Red. masses --      8.0400                 5.0319                 3.1965
 Frc consts  --      0.0235                 0.0300                 0.0368
 IR Inten    --     18.2629                 6.3248                12.7212

                      4                      5                      6
                      A                      A                      A
 Frequencies --    143.9422               174.2411               237.9548
 Red. masses --      4.2134                 7.1163                 2.4460
 Frc consts  --      0.0514                 0.1273                 0.0816
 IR Inten    --      0.6433                 3.2391                23.6368

                      7                      8                      9
                      A                      A                      A
 Frequencies --    278.9589               292.5360               306.8858
 Red. masses --      4.0621                 2.9962                 6.0759
 Frc consts  --      0.1862                 0.1511                 0.3371
 IR Inten    --      6.2223                24.8812                 1.9910

                     10                     11                     12
                      A                      A                      A
 Frequencies --    371.7499               373.9334               415.7431
 Red. masses --      5.9363                 8.5905                 4.4300
 Frc consts  --      0.4834                 0.7077                 0.4511
 IR Inten    --      2.3025                13.3445                13.1776

                     13                     14                     15
                      A                      A                      A
 Frequencies --    423.3080               447.5926               465.7890
 Red. masses --      6.2375                 3.4279                 1.2056
 Frc consts  --      0.6585                 0.4046                 0.1541
 IR Inten    --      9.5303                 4.7382               104.6739

                     16                     17                     18
                      A                      A                      A
 Frequencies --    503.7253               540.3624               581.4620
 Red. masses --     10.3757                 4.1160                 7.2923
 Frc consts  --      1.5511                 0.7081                 1.4526
 IR Inten    --      4.1262                10.2094                 5.9303

                     19                     20                     21
                      A                      A                      A
 Frequencies --    651.1777               670.0608               684.8692
 Red. masses --      2.2061                 3.6192                 3.8516
 Frc consts  --      0.5512                 0.9574                 1.0644
 IR Inten    --    370.8101                77.6788                78.9073

                     22                     23                     24
                      A                      A                      A
 Frequencies --    696.3984               716.9956               770.6037
 Red. masses --      4.1462                 2.8131                 5.0930
 Frc consts  --      1.1847                 0.8520                 1.7819
 IR Inten    --     70.2530                93.9716                14.8295

                     25                     26                     27
                      A                      A                      A
 Frequencies --    783.7373               821.8167               839.2062
 Red. masses --      1.7694                 6.1369                 2.9560
 Frc consts  --      0.6404                 2.4420                 1.2266
 IR Inten    --     59.3004               109.5368                17.8215

                     28                     29                     30
                      A                      A                      A
 Frequencies --    880.7183               939.1768               979.8352
 Red. masses --      1.4153                 1.4539                 1.3734
 Frc consts  --      0.6468                 0.7556                 0.7769
 IR Inten    --      0.0753                 2.7063                 2.9770

                     31                     32                     33
                      A                      A                      A
 Frequencies --    996.1533              1020.9421              1048.8947
 Red. masses --      1.2864                 4.5941                 2.0523
 Frc consts  --      0.7521                 2.8213                 1.3303
 IR Inten    --      0.0379                56.1248                 6.7522

                     34                     35                     36
                      A                      A                      A
 Frequencies --   1098.1205              1129.7878              1157.7583
 Red. masses --      2.6749                 1.6581                 1.2470
 Frc consts  --      1.9005                 1.2470                 0.9848
 IR Inten    --      2.7905                87.6029                 6.7558

                     37                     38                     39
                      A                      A                      A
 Frequencies --   1194.0010              1221.0624              1255.1489
 Red. masses --      2.8641                 1.9749                 4.2996
 Frc consts  --      2.4057                 1.7349                 3.9909
 IR Inten    --     29.3763                46.7461                24.0295

                     40                     41                     42
                      A                      A                      A
 Frequencies --   1297.2922              1352.8208              1402.8842
 Red. masses --      2.4239                 9.8837                 3.2892
 Frc consts  --      2.4034                10.6574                 3.8140
 IR Inten    --    132.7584                24.8899               198.8567

                     43                     44                     45
                      A                      A                      A
 Frequencies --   1454.7914              1462.2826              1494.1637
 Red. masses --      4.4288                 3.0709                 4.7240
 Frc consts  --      5.5225                 3.8688                 6.2138
 IR Inten    --    958.5494               179.7154               982.5073

                     46                     47                     48
                      A                      A                      A
 Frequencies --   1517.4739              1539.5975              1596.1148
 Red. masses --      7.2818                 4.3695                 2.2802
 Frc consts  --      9.8794                 6.1023                 3.4225
 IR Inten    --    118.5509                 7.0861                13.4674

                     49                     50                     51
                      A                      A                      A
 Frequencies --   1611.3288              1623.4278              2652.3672
 Red. masses --      1.9724                 5.7786                 1.0381
 Frc consts  --      3.0173                 8.9731                 4.3028
 IR Inten    --    184.0543                 5.1319                 6.0927

                     52                     53                     54
                      A                      A                      A
 Frequencies --   3158.7064              3172.4756              3186.3788
 Red. masses --      1.0859                 1.0899                 1.0924
 Frc consts  --      6.3833                 6.4633                 6.5349
 IR Inten    --      9.3624                19.8481                20.5648

                     55                     56                     57
                      A                      A                      A
 Frequencies --   3190.9147              3512.1929              3617.8163
 Red. masses --      1.0946                 1.0479                 1.0977
 Frc consts  --      6.5667                 7.6158                 8.4651
 IR Inten    --     37.7324                39.5187                66.5700

 - Thermochemistry -
 -------------------
 Temperature   298.150 Kelvin.  Pressure   1.00000 Atm.
 Atom     1 has atomic number  6 and mass  12.00000

 Molecular mass:   205.01975 amu.
 Principal axes and moments of inertia in atomic units:
                           1         2         3
     Eigenvalues --  1751.149353444.880355189.12396
           X            0.95871   0.27735  -0.06294
           Y           -0.27721   0.96075   0.01110
           Z            0.06355   0.00681   0.99796
 This molecule is an asymmetric top.
 Rotational symmetry number  1.
 Warning -- assumption of classical behavior for rotation
           may cause significant error
 Rotational temperatures (Kelvin)      0.04946     0.02514     0.01669
 Rotational constants (GHZ):           1.03060     0.52389     0.34779
 Zero-point vibrational energy     384411.5 (Joules/Mol)
                                   91.87656 (Kcal/Mol)
 Warning -- explicit consideration of  18 degrees of freedom as
           vibrations may cause significant error
 Vibrational temperatures:    101.36   144.77   201.21   207.10   250.69
          (Kelvin)            342.36   401.36   420.89   441.54   534.87
                              538.01   598.16   609.05   643.99   670.17
                              724.75   777.46   836.59   936.90   964.07
                              985.37  1001.96  1031.60  1108.73  1127.62
                             1182.41  1207.43  1267.16  1351.27  1409.76
                             1433.24  1468.91  1509.13  1579.95  1625.51
                             1665.76  1717.90  1756.84  1805.88  1866.51
                             1946.41  2018.44  2093.12  2103.90  2149.77
                             2183.31  2215.14  2296.45  2318.34  2335.75
                             3816.16  4544.67  4564.48  4584.49  4591.01
                             5053.26  5205.23

 Zero-point correction=                           0.146415 (Hartree/Particle)
 Thermal correction to Energy=                    0.158173
 Thermal correction to Enthalpy=                  0.159117
 Thermal correction to Gibbs Free Energy=         0.108057
 Sum of electronic and zero-point Energies=           -988.867450
 Sum of electronic and thermal Energies=              -988.855692
 Sum of electronic and thermal Enthalpies=            -988.854748
 Sum of electronic and thermal Free Energies=         -988.905808

                     E (Thermal)             CV                S
                      KCal/Mol        Cal/Mol-Kelvin    Cal/Mol-Kelvin
 Total                   99.255             46.081            107.465
 Electronic               0.000              0.000              1.377
 Translational            0.889              2.981             41.858
 Rotational               0.889              2.981             31.815
 Vibrational             97.477             40.119             32.414
 Vibration     1          0.598              1.968              4.141
 Vibration     2          0.604              1.949              3.442
 Vibration     3          0.615              1.913              2.806
 Vibration     4          0.616              1.909              2.751
 Vibration     5          0.627              1.874              2.389
 Vibration     6          0.656              1.783              1.818
 Vibration     7          0.679              1.712              1.540
 Vibration     8          0.688              1.688              1.459
 Vibration     9          0.697              1.661              1.379
 Vibration    10          0.743              1.530              1.073
 Vibration    11          0.745              1.526              1.064
 Vibration    12          0.779              1.436              0.907
 Vibration    13          0.785              1.420              0.881
 Vibration    14          0.807              1.366              0.803
 Vibration    15          0.823              1.326              0.749
 Vibration    16          0.859              1.242              0.649
 Vibration    17          0.895              1.161              0.565
 Vibration    18          0.938              1.071              0.483

 Optimization completed.
    -- Stationary point found.
 Normal termination of Gaussian 16 at Sun Feb 11 01:55:08 2024.
