 Q-Chem 5.4, Q-Chem, Inc., Pleasanton, CA (2021)
 Q-Chem 5.4.0 for Intel X86 EM64T Linux

User input:
--------------------------------------------------------------
$molecule
-1 2
C                  5.9117960000     -5.2136080000      1.1147220000
C                  6.8012240000     -5.0846130000      0.0684980000
C                  6.5894540000     -4.0983930000     -0.9180500000
C                  4.7895350000     -4.3741200000      1.2171450000
C                  4.5764180000     -3.3815320000      0.2242530000
C                  5.4934400000     -3.2653140000     -0.8341680000
C                  3.8606920000     -4.5425450000      2.3512110000
C                  2.7443290000     -3.6362940000      2.3633710000
C                  2.5375940000     -2.6734130000      1.4002220000
C                  3.4160840000     -2.4717160000      0.2798250000
O                  4.0449130000     -5.4223190000      3.2324820000
O                  3.2224710000     -1.5916660000     -0.5991630000
H                  6.0578720000     -5.9645650000      1.8812070000
H                  5.3143720000     -2.5025600000     -1.5817630000
Cl                 7.7096270000     -3.9076950000     -2.2696900000
Cl                 8.1946390000     -6.1664370000     -0.0102170000
H                  2.0490150000     -3.7468870000      3.1906950000
H                  1.6767740000     -2.0131220000      1.4564700000
$end

$rem
BASIS  =  6-311++G(d,p)
GUI  =  2
JOB_TYPE  =  SP
METHOD  =  B3LYP
SCF_CONVERGENCE  = 8
SOLVENT_METHOD = sm12
$end

$smx
solvent dimethylformamide
charges CM5
$end

--------------------------------------------------------------

             Standard Nuclear Orientation (Angstroms)
    I     Atom           X                Y                Z
 ----------------------------------------------------------------
    1      C       5.9117960000    -5.2136080000     1.1147220000
    2      C       6.8012240000    -5.0846130000     0.0684980000
    3      C       6.5894540000    -4.0983930000    -0.9180500000
    4      C       4.7895350000    -4.3741200000     1.2171450000
    5      C       4.5764180000    -3.3815320000     0.2242530000
    6      C       5.4934400000    -3.2653140000    -0.8341680000
    7      C       3.8606920000    -4.5425450000     2.3512110000
    8      C       2.7443290000    -3.6362940000     2.3633710000
    9      C       2.5375940000    -2.6734130000     1.4002220000
   10      C       3.4160840000    -2.4717160000     0.2798250000
   11      O       4.0449130000    -5.4223190000     3.2324820000
   12      O       3.2224710000    -1.5916660000    -0.5991630000
   13      H       6.0578720000    -5.9645650000     1.8812070000
   14      H       5.3143720000    -2.5025600000    -1.5817630000
   15      Cl      7.7096270000    -3.9076950000    -2.2696900000
   16      Cl      8.1946390000    -6.1664370000    -0.0102170000
   17      H       2.0490150000    -3.7468870000     3.1906950000
   18      H       1.6767740000    -2.0131220000     1.4564700000
 ----------------------------------------------------------------

   15   -1454.5821074878      7.13e-09  Convergence criterion met
 Total energy in the final basis set =    -1454.6611801697

                    Orbital Energies (a.u.)
 --------------------------------------------------------------

 Alpha MOs
 -- Occupied --
********-101.5660 -19.0834 -19.0834 -10.2546 -10.2542 -10.2308 -10.2308
-10.1965 -10.1965 -10.1928 -10.1923 -10.1755 -10.1749  -9.4798  -9.4798
 -7.2445  -7.2445  -7.2347  -7.2347  -7.2343  -7.2342  -1.0079  -1.0055
 -0.9219  -0.8655  -0.8545  -0.8061  -0.7654  -0.7408  -0.6855  -0.6394
 -0.6203  -0.5793  -0.5190  -0.5125  -0.4933  -0.4667  -0.4521  -0.4403
 -0.4368  -0.4320  -0.4097  -0.4069  -0.4048  -0.3849  -0.3738  -0.3667
 -0.3541  -0.3367  -0.3320  -0.3165  -0.2850  -0.2703  -0.2579  -0.2504
 -0.2446  -0.1632

 Beta MOs
 -- Occupied --
********-101.5660 -19.0765 -19.0765 -10.2543 -10.2538 -10.2297 -10.2297
-10.1965 -10.1965 -10.1921 -10.1917 -10.1739 -10.1733  -9.4798  -9.4798
 -7.2446  -7.2445  -7.2347  -7.2346  -7.2342  -7.2342  -0.9962  -0.9934
 -0.9212  -0.8652  -0.8520  -0.8015  -0.7639  -0.7389  -0.6759  -0.6385
 -0.6170  -0.5765  -0.5179  -0.5101  -0.4902  -0.4651  -0.4518  -0.4376
 -0.4305  -0.4298  -0.4051  -0.4033  -0.3926  -0.3717  -0.3638  -0.3616
 -0.3499  -0.3366  -0.3250  -0.3163  -0.2643  -0.2562  -0.2509  -0.2439
 -0.2383

          Ground-State Mulliken Net Atomic Charges

     Atom                 Charge (a.u.)    Spin (a.u.)
  --------------------------------------------------------
      1 C                    -0.747805       0.031151
      2 C                     2.189515       0.015823
      3 C                     2.187029       0.015823
      4 C                    -1.546083       0.026827
      5 C                    -1.546360       0.026798
      6 C                    -0.750589       0.031181
      7 C                    -1.489405       0.055887
      8 C                     0.008411       0.130127
      9 C                     0.006941       0.130113
     10 C                    -1.486622       0.055955
     11 O                    -0.357769       0.250828
     12 O                    -0.358236       0.250814
     13 H                     0.255752      -0.002590
     14 H                     0.255821      -0.002594
     15 Cl                    0.964951       0.002281
     16 Cl                    0.964712       0.002303
     17 H                     0.224914      -0.010367
     18 H                     0.224823      -0.010361
  --------------------------------------------------------
  Sum of atomic charges =    -1.000000

                    Cartesian Multipole Moments
 -----------------------------------------------------------------
    Charge (ESU x 10^10)
                -4.8032
    Dipole Moment (Debye)
         X     -20.9865      Y      18.0957      Z      -4.3145
       Tot      28.0446
    Quadrupole Moments (Debye-Ang)
        XX    -203.3445     XY      86.8991     YY    -184.6324
        XZ     -15.3697     YZ      30.0488     ZZ    -122.7598

 Total job time:  246.60s(wall), 1890.48s(cpu)
        *  Thank you very much for using Q-Chem.  Have a nice day.  *
