 Q-Chem 5.4, Q-Chem, Inc., Pleasanton, CA (2021)
 Q-Chem 5.4.0 for Intel X86 EM64T Linux

User input:
--------------------------------------------------------------
$molecule
-2 1
C                  0.9034550000      1.1662960000     -1.4538640000
C                 -0.4646690000      1.0718040000     -1.8964380000
C                 -1.3812710000      0.3431500000     -1.1169350000
C                 -1.0612310000     -0.3877420000      0.0858320000
C                  0.3021660000     -0.2767970000      0.5390250000
C                  1.2052100000      0.4994400000     -0.2098550000
O                  1.7978920000      1.8059110000     -2.1176820000
O                 -1.9389380000     -1.0862700000      0.7115570000
S                  2.9068480000      0.7444310000      0.3311910000
C                  3.1899200000      2.5513290000      0.3585160000
C                  3.6907910000      3.2169310000     -0.7596750000
C                  2.9375660000      3.2334550000      1.5459810000
C                  3.1862760000      4.6048130000      1.6212360000
C                  3.9492710000      4.5854840000     -0.6716210000
C                  3.6949620000      5.2818470000      0.5110670000
O                  3.9042300000      0.1636160000     -0.5920630000
O                  3.0420420000      0.3591780000      1.7598630000
H                  3.8448970000      2.6577730000     -1.6702630000
H                  2.5598870000      2.6823960000      2.3983870000
H                  4.3344920000      5.1130580000     -1.5391580000
H                  2.9846520000      5.1402100000      2.5442590000
H                  3.8850840000      6.3502890000      0.5654890000
S                 -3.1233330000      0.2398400000     -1.5671810000
C                 -4.0746160000      0.7597190000     -0.0939550000
C                 -4.4040100000      2.1071470000      0.0281660000
C                 -4.5007560000     -0.1724330000      0.8514020000
C                 -5.2780620000      0.2620900000      1.9258540000
C                 -5.1703580000      2.5353950000      1.1132920000
C                 -5.6100470000      1.6109440000      2.0628420000
H                 -4.0661190000      2.8016080000     -0.7310810000
H                 -4.1991310000     -1.2026750000      0.7364570000
H                 -5.6101290000     -0.4561300000      2.6696570000
H                 -5.4235040000      3.5865970000      1.2141000000
H                 -6.2029380000      1.9423450000      2.9109740000
O                 -3.5608560000     -1.1313610000     -1.9032810000
O                 -3.4484370000      1.2892980000     -2.5675740000
C                 -0.7584780000      1.7472940000     -3.2150490000
C                  0.6300600000     -1.0714850000      1.7809490000
H                  0.2027650000      2.0180340000     -3.6551530000
H                 -1.3566970000      2.6568090000     -3.0911870000
H                 -1.3196440000      1.1046140000     -3.8972610000
H                 -0.2217900000     -1.7256190000      1.9744330000
H                  0.7859080000     -0.4297020000      2.6551490000
H                  1.5427710000     -1.6614700000      1.6701100000
$end
$rem
MAX_SCF_CYCLES=200
BASIS  =  6-311++G(d,p)
GUI  =  2
JOB_TYPE  =  SP
METHOD  =  B3LYP
SOLVENT_METHOD = PCM
$end
$pcm
theory = CPCM
$end
$solvent
dielectric 37.219
opticaldielectric 1.43
$end

--------------------------------------------------------------

             Standard Nuclear Orientation (Angstroms)
    I     Atom           X                Y                Z
 ----------------------------------------------------------------
    1      C       0.9034550000     1.1662960000    -1.4538640000
    2      C      -0.4646690000     1.0718040000    -1.8964380000
    3      C      -1.3812710000     0.3431500000    -1.1169350000
    4      C      -1.0612310000    -0.3877420000     0.0858320000
    5      C       0.3021660000    -0.2767970000     0.5390250000
    6      C       1.2052100000     0.4994400000    -0.2098550000
    7      O       1.7978920000     1.8059110000    -2.1176820000
    8      O      -1.9389380000    -1.0862700000     0.7115570000
    9      S       2.9068480000     0.7444310000     0.3311910000
   10      C       3.1899200000     2.5513290000     0.3585160000
   11      C       3.6907910000     3.2169310000    -0.7596750000
   12      C       2.9375660000     3.2334550000     1.5459810000
   13      C       3.1862760000     4.6048130000     1.6212360000
   14      C       3.9492710000     4.5854840000    -0.6716210000
   15      C       3.6949620000     5.2818470000     0.5110670000
   16      O       3.9042300000     0.1636160000    -0.5920630000
   17      O       3.0420420000     0.3591780000     1.7598630000
   18      H       3.8448970000     2.6577730000    -1.6702630000
   19      H       2.5598870000     2.6823960000     2.3983870000
   20      H       4.3344920000     5.1130580000    -1.5391580000
   21      H       2.9846520000     5.1402100000     2.5442590000
   22      H       3.8850840000     6.3502890000     0.5654890000
   23      S      -3.1233330000     0.2398400000    -1.5671810000
   24      C      -4.0746160000     0.7597190000    -0.0939550000
   25      C      -4.4040100000     2.1071470000     0.0281660000
   26      C      -4.5007560000    -0.1724330000     0.8514020000
   27      C      -5.2780620000     0.2620900000     1.9258540000
   28      C      -5.1703580000     2.5353950000     1.1132920000
   29      C      -5.6100470000     1.6109440000     2.0628420000
   30      H      -4.0661190000     2.8016080000    -0.7310810000
   31      H      -4.1991310000    -1.2026750000     0.7364570000
   32      H      -5.6101290000    -0.4561300000     2.6696570000
   33      H      -5.4235040000     3.5865970000     1.2141000000
   34      H      -6.2029380000     1.9423450000     2.9109740000
   35      O      -3.5608560000    -1.1313610000    -1.9032810000
   36      O      -3.4484370000     1.2892980000    -2.5675740000
   37      C      -0.7584780000     1.7472940000    -3.2150490000
   38      C       0.6300600000    -1.0714850000     1.7809490000
   39      H       0.2027650000     2.0180340000    -3.6551530000
   40      H      -1.3566970000     2.6568090000    -3.0911870000
   41      H      -1.3196440000     1.1046140000    -3.8972610000
   42      H      -0.2217900000    -1.7256190000     1.9744330000
   43      H       0.7859080000    -0.4297020000     2.6551490000
   44      H       1.5427710000    -1.6614700000     1.6701100000
 ----------------------------------------------------------------

    9   -2020.0092627796      3.92e-06  Convergence criterion met
 Total energy in the final basis set =    -2020.0092627796

                    Orbital Energies (a.u.)
 --------------------------------------------------------------

 Alpha MOs
 -- Occupied --
-89.0374 -89.0374 -19.1066 -19.1065 -19.1004 -19.1003 -19.0328 -19.0328
-10.1998 -10.1998 -10.1996 -10.1996 -10.1830 -10.1830 -10.1796 -10.1796
-10.1796 -10.1795 -10.1792 -10.1791 -10.1776 -10.1776 -10.1762 -10.1762
-10.1627 -10.1627 -10.1408 -10.1408  -8.1010  -8.1010  -6.0641  -6.0640
 -6.0628  -6.0628  -6.0617  -6.0616  -1.0935  -1.0935  -0.9884  -0.9883
 -0.9609  -0.9571  -0.8648  -0.8647  -0.8181  -0.7817  -0.7674  -0.7611
 -0.7520  -0.7520  -0.7165  -0.7109  -0.6748  -0.6407  -0.6262  -0.6129
 -0.6115  -0.6092  -0.5810  -0.5556  -0.5357  -0.5307  -0.5225  -0.4903
 -0.4863  -0.4725  -0.4688  -0.4672  -0.4609  -0.4608  -0.4456  -0.4444
 -0.4403  -0.4399  -0.4271  -0.4264  -0.4106  -0.4004  -0.3950  -0.3866
 -0.3813  -0.3800  -0.3752  -0.3726  -0.3681  -0.3680  -0.3559  -0.3556
 -0.3514  -0.3473  -0.3394  -0.3387  -0.3265  -0.3233  -0.3140  -0.3138
 -0.2964  -0.2952  -0.2869  -0.2798  -0.2657  -0.2633  -0.2621  -0.2600
 -0.2444  -0.2363  -0.2173  -0.2095  -0.1398

          Ground-State Mulliken Net Atomic Charges

     Atom                 Charge (a.u.)
  ----------------------------------------
      1 C                    -0.838194
      2 C                     0.426288
      3 C                     0.307232
      4 C                    -0.830146
      5 C                     0.415817
      6 C                     0.312564
      7 O                    -0.534734
      8 O                    -0.534661
      9 S                     0.158326
     10 C                     0.009017
     11 C                    -0.183545
     12 C                     0.282548
     13 C                    -0.523186
     14 C                    -0.404969
     15 C                    -0.313598
     16 O                    -0.221778
     17 O                    -0.248881
     18 H                     0.269172
     19 H                     0.249962
     20 H                     0.221662
     21 H                     0.220640
     22 H                     0.201428
     23 S                     0.155310
     24 C                     0.006933
     25 C                     0.294657
     26 C                    -0.193217
     27 C                    -0.407617
     28 C                    -0.521174
     29 C                    -0.311677
     30 H                     0.249834
     31 H                     0.269917
     32 H                     0.221661
     33 H                     0.220592
     34 H                     0.201501
     35 O                    -0.219455
     36 O                    -0.249496
     37 C                    -0.582818
     38 C                    -0.583526
     39 H                     0.161662
     40 H                     0.172091
     41 H                     0.170413
     42 H                     0.161612
     43 H                     0.171419
     44 H                     0.170403
  ----------------------------------------
  Sum of atomic charges =    -2.000011

                    Cartesian Multipole Moments
 -----------------------------------------------------------------
    Charge (ESU x 10^10)
                -9.6065
    Dipole Moment (Debye)
         X      -0.7885      Y       1.6413      Z      10.0430
       Tot      10.2067
    Quadrupole Moments (Debye-Ang)
        XX    -266.7278     XY     -11.8822     YY    -183.6040
        XZ     -23.9207     YZ      15.1212     ZZ    -216.6777

 Total job time:  173.76s(wall), 1227.37s(cpu)
        *  Thank you very much for using Q-Chem.  Have a nice day.  *
