 Gaussian 16, Revision A.03,
 Gaussian 16:  ES64L-G16RevA.03 25-Dec-2016

 ----------------------------------------------------------------------
 #P UB3LYP/6-311++G(d,p) nosym opt freq SCRF=(PCM,Solvent=n,n-DiMethylF
 ormamide)
 ----------------------------------------------------------------------

 -------
 Radical
 -------
 Symbolic Z-matrix:
 Charge = -1 Multiplicity = 2

 SCF Done:  E(UB3LYP) =  -574.731592442     A.U. after   19 cycles
 SCF Done:  E(UB3LYP) =  -574.731788383     A.U. after   14 cycles
 SCF Done:  E(UB3LYP) =  -574.731846014     A.U. after   14 cycles
 SCF Done:  E(UB3LYP) =  -574.731849188     A.U. after   12 cycles
 SCF Done:  E(UB3LYP) =  -574.731849547     A.U. after   10 cycles
 Optimization completed.
    -- Stationary point found.
 Normal termination of Gaussian 16 at Sun Feb 11 00:58:21 2024.

 ----------------------------------------------------------------------
 #P Geom=AllCheck Guess=TCheck SCRF=Check GenChk UB3LYP/6-311++G(d,p) F
 req
 ----------------------------------------------------------------------

 Structure from the checkpoint file:  "237-rad.chk"
 -------
 Radical
 -------
 Charge = -1 Multiplicity = 2

                          Input orientation:
 ---------------------------------------------------------------------
 Center     Atomic      Atomic             Coordinates (Angstroms)
 Number     Number       Type             X           Y           Z
 ---------------------------------------------------------------------
      1          6           0        5.761841   -5.280786    1.248742
      2          6           0        6.731682   -5.148980    0.275877
      3          6           0        6.612266   -4.136756   -0.686652
      4          6           0        4.656977   -4.409393    1.283985
      5          6           0        4.529908   -3.372318    0.306298
      6          6           0        5.540209   -3.248377   -0.696929
      7          6           0        3.654943   -4.608581    2.350196
      8          6           0        2.547513   -3.705546    2.356349
      9          6           0        2.415905   -2.703529    1.424218
     10          6           0        3.361037   -2.467652    0.368212
     11          8           0        3.777276   -5.535393    3.209011
     12          8           0        3.175090   -1.523272   -0.456963
     13          1           0        5.825560   -6.053570    2.004795
     14          6           0        5.518077   -2.200447   -1.787460
     15          1           0        7.582462   -5.821727    0.250634
     16          1           0        7.377301   -4.039102   -1.450361
     17          1           0        1.801404   -3.838617    3.134252
     18          1           0        1.562489   -2.032690    1.456682
     19          1           0        5.515388   -1.188712   -1.378279
     20          1           0        4.620927   -2.278356   -2.404118
     21          1           0        6.396041   -2.318608   -2.427799
 ---------------------------------------------------------------------

 SCF Done:  E(UB3LYP) =  -574.731849547     A.U. after    2 cycles

 Alpha  occ. eigenvalues --  -19.07288 -19.07195 -10.22049 -10.21838 -10.18370
 Alpha  occ. eigenvalues --  -10.17602 -10.17270 -10.17019 -10.16675 -10.16512
 Alpha  occ. eigenvalues --  -10.16013 -10.15932 -10.15410  -0.99478  -0.99192
 Alpha  occ. eigenvalues --   -0.85722  -0.80249  -0.76881  -0.73786  -0.68916
 Alpha  occ. eigenvalues --   -0.66415  -0.61076  -0.60513  -0.54121  -0.50218
 Alpha  occ. eigenvalues --   -0.49619  -0.46977  -0.45191  -0.42261  -0.42218
 Alpha  occ. eigenvalues --   -0.41494  -0.40207  -0.39634  -0.39072  -0.38645
 Alpha  occ. eigenvalues --   -0.37061  -0.36625  -0.34535  -0.34385  -0.33604
 Alpha  occ. eigenvalues --   -0.27500  -0.25038  -0.24695  -0.23972  -0.23311
 Alpha  occ. eigenvalues --   -0.15196
 Alpha virt. eigenvalues --   -0.02967  -0.01684  -0.00158   0.00995   0.01165
 Alpha virt. eigenvalues --    0.02607   0.03077   0.03392   0.04471   0.05009
 Alpha virt. eigenvalues --    0.05189   0.06323   0.06411   0.07000   0.07806

  Beta  occ. eigenvalues --  -19.06658 -19.06531 -10.21915 -10.21675 -10.18365
  Beta  occ. eigenvalues --  -10.17568 -10.17227 -10.16991 -10.16633 -10.16498
  Beta  occ. eigenvalues --  -10.15846 -10.15782 -10.15409  -0.98345  -0.98047
  Beta  occ. eigenvalues --   -0.85542  -0.79686  -0.76766  -0.73579  -0.68535
  Beta  occ. eigenvalues --   -0.65714  -0.60756  -0.60307  -0.53883  -0.49947
  Beta  occ. eigenvalues --   -0.49444  -0.46675  -0.45054  -0.42011  -0.41670
  Beta  occ. eigenvalues --   -0.41121  -0.40047  -0.38716  -0.38502  -0.38462
  Beta  occ. eigenvalues --   -0.36459  -0.34546  -0.34371  -0.33496  -0.33486
  Beta  occ. eigenvalues --   -0.24610  -0.24426  -0.23949  -0.23382  -0.22719
  Beta virt. eigenvalues --   -0.08442  -0.02174  -0.00551  -0.00142   0.01008
  Beta virt. eigenvalues --    0.01179   0.02624   0.03100   0.03571   0.04495
  Beta virt. eigenvalues --    0.05197   0.05861   0.06441   0.06723   0.07530

 Mulliken charges and spin densities:
               1          2
     1  C    0.392469   0.051651
     2  C   -0.542263   0.015494
     3  C   -0.577356   0.028123
     4  C    0.187180   0.013273
     5  C    0.208162   0.012775
     6  C    0.719982   0.016824
     7  C   -0.349132   0.102969
     8  C   -0.048607   0.097454
     9  C   -0.191687   0.132193
    10  C   -0.682267   0.086822
    11  O   -0.504495   0.226892
    12  O   -0.463744   0.236516
    13  H    0.163565  -0.002589
    14  C   -0.443924   0.007255
    15  H    0.190112  -0.001698
    16  H    0.125433  -0.002792
    17  H    0.176708  -0.009410
    18  H    0.178827  -0.011411
    19  H    0.158387   0.000005
    20  H    0.158067   0.000015
    21  H    0.144583  -0.000361
 Sum of Mulliken charges =  -1.00000   1.00000

 Dipole moment (field-independent basis, Debye):
    X=            -16.8174    Y=             17.5605    Z=             -7.1502  Tot=             25.3440
 Quadrupole moment (field-independent basis, Debye-Ang):
   XX=           -136.0737   YY=           -164.2526   ZZ=           -105.8016
   XY=             63.1867   XZ=            -30.7163   YZ=             43.7466

  Exact polarizability: 228.986 -53.102 222.009 -48.621 -73.769 226.681
 Approx polarizability: 247.819 -59.500 256.741 -45.406 -89.163 254.758

                      1                      2                      3
                      A                      A                      A
 Frequencies --     67.4974                88.0481               185.8689
 Red. masses --      4.2178                 6.0495                 3.9207
 Frc consts  --      0.0113                 0.0276                 0.0798
 IR Inten    --      4.1445                15.1206                 2.0111

                      4                      5                      6
                      A                      A                      A
 Frequencies --    213.8720               237.6196               270.2224
 Red. masses --      1.2290                 2.7083                 5.5312
 Frc consts  --      0.0331                 0.0901                 0.2380
 IR Inten    --      1.7156                 1.7047                 5.3998

                      7                      8                      9
                      A                      A                      A
 Frequencies --    326.6312               360.8997               372.9405
 Red. masses --      5.0117                 4.1231                 8.8202
 Frc consts  --      0.3150                 0.3164                 0.7228
 IR Inten    --      0.0180                11.8497                15.9646

                     10                     11                     12
                      A                      A                      A
 Frequencies --    457.1741               462.6026               482.4901
 Red. masses --      5.7629                 8.0309                 3.9206
 Frc consts  --      0.7097                 1.0126                 0.5378
 IR Inten    --      2.8240                 2.2437                 0.1373

                     13                     14                     15
                      A                      A                      A
 Frequencies --    495.0738               530.3095               614.7612
 Red. masses --      3.3455                 6.5295                 4.8001
 Frc consts  --      0.4831                 1.0819                 1.0688
 IR Inten    --      0.5809                 2.4219                 3.5764

                     16                     17                     18
                      A                      A                      A
 Frequencies --    627.3462               641.7782               678.1884
 Red. masses --      5.3650                 2.2969                 4.1125
 Frc consts  --      1.2440                 0.5574                 1.1144
 IR Inten    --      0.9445                 0.4073                 2.7900

                     19                     20                     21
                      A                      A                      A
 Frequencies --    765.4376               775.5138               794.1557
 Red. masses --      6.7932                 1.6133                 5.3282
 Frc consts  --      2.3450                 0.5717                 1.9799
 IR Inten    --     69.1342                97.8800                12.8456

                     22                     23                     24
                      A                      A                      A
 Frequencies --    808.6881               833.5103               907.2094
 Red. masses --      2.9260                 2.0278                 4.4349
 Frc consts  --      1.1274                 0.8300                 2.1506
 IR Inten    --     37.9929                30.4832                37.5294

                     25                     26                     27
                      A                      A                      A
 Frequencies --    919.8554               939.2072               995.5297
 Red. masses --      1.3666                 1.2916                 1.3135
 Frc consts  --      0.6813                 0.6713                 0.7670
 IR Inten    --      0.0282                 0.0313                 0.9465

                     28                     29                     30
                      A                      A                      A
 Frequencies --   1022.5025              1056.3788              1057.8317
 Red. masses --      1.5707                 1.5460                 3.4875
 Frc consts  --      0.9675                 1.0165                 2.2993
 IR Inten    --      4.8071                 4.8560                49.2958

                     31                     32                     33
                      A                      A                      A
 Frequencies --   1110.0830              1132.0885              1170.4481
 Red. masses --      1.5995                 2.0817                 1.8015
 Frc consts  --      1.1613                 1.5719                 1.4541
 IR Inten    --      0.2171                29.8451                33.2759

                     34                     35                     36
                      A                      A                      A
 Frequencies --   1178.9517              1239.8919              1255.4661
 Red. masses --      1.4881                 2.9113                 2.4129
 Frc consts  --      1.2187                 2.6370                 2.2407
 IR Inten    --     31.8513                17.2778                21.7204

                     37                     38                     39
                      A                      A                      A
 Frequencies --   1310.9266              1329.7426              1408.2432
 Red. masses --      2.3124                 5.1518                 2.1507
 Frc consts  --      2.3414                 5.3672                 2.5129
 IR Inten    --     18.9432                 2.3694                19.2202

                     40                     41                     42
                      A                      A                      A
 Frequencies --   1412.7147              1420.4956              1454.4029
 Red. masses --      1.3452                 4.9700                 2.4032
 Frc consts  --      1.5818                 5.9086                 2.9950
 IR Inten    --      6.7498               423.9835               472.5624

                     43                     44                     45
                      A                      A                      A
 Frequencies --   1462.9249              1471.3256              1484.8229
 Red. masses --      1.0461                 3.3575                 1.5261
 Frc consts  --      1.3190                 4.2824                 1.9824
 IR Inten    --      8.5345                20.7846                29.0742

                     46                     47                     48
                      A                      A                      A
 Frequencies --   1526.0095              1559.3178              1617.6939
 Red. masses --      4.2489                 5.4313                 5.7601
 Frc consts  --      5.8297                 7.7808                 8.8813
 IR Inten    --    954.2626               108.6406                 0.6192

                     49                     50                     51
                      A                      A                      A
 Frequencies --   1624.6730              3032.6336              3096.8783
 Red. masses --      6.8460                 1.0372                 1.0999
 Frc consts  --     10.6468                 5.6200                 6.2151
 IR Inten    --      8.5082                62.0976                27.8024

                     52                     53                     54
                      A                      A                      A
 Frequencies --   3098.0279              3147.1705              3151.7035
 Red. masses --      1.1004                 1.0852                 1.0868
 Frc consts  --      6.2228                 6.3330                 6.3604
 IR Inten    --     36.4904                42.4760                22.5115

                     55                     56                     57
                      A                      A                      A
 Frequencies --   3166.1745              3168.7368              3190.9759
 Red. masses --      1.0941                 1.0918                 1.0931
 Frc consts  --      6.4624                 6.4591                 6.5580
 IR Inten    --     47.2501                34.6138                23.6792

 - Thermochemistry -
 -------------------
 Temperature   298.150 Kelvin.  Pressure   1.00000 Atm.
 Atom     1 has atomic number  6 and mass  12.00000

 Molecular mass:   172.05243 amu.
 Principal axes and moments of inertia in atomic units:
                           1         2         3
     Eigenvalues --  1583.426582024.939953597.40790
           X           -0.49152   0.70520   0.51098
           Y           -0.35530  -0.69808   0.62164
           Z            0.79509   0.12400   0.59368
 This molecule is an asymmetric top.
 Rotational symmetry number  1.
 Warning -- assumption of classical behavior for rotation
           may cause significant error
 Rotational temperatures (Kelvin)      0.05470     0.04277     0.02408
 Rotational constants (GHZ):           1.13977     0.89126     0.50168
 Zero-point vibrational energy     413977.7 (Joules/Mol)
                                   98.94305 (Kcal/Mol)
 Warning -- explicit consideration of  15 degrees of freedom as
           vibrations may cause significant error
 Vibrational temperatures:     97.11   126.68   267.42   307.71   341.88
          (Kelvin)            388.79   469.95   519.25   536.58   657.77
                              665.58   694.20   712.30   763.00   884.50
                              902.61   923.38   975.76  1101.29  1115.79
                             1142.61  1163.52  1199.24  1305.27  1323.47
                             1351.31  1432.35  1471.15  1519.89  1521.98
                             1597.16  1628.82  1684.01  1696.25  1783.93
                             1806.34  1886.13  1913.20  2026.15  2032.58
                             2043.78  2092.56  2104.82  2116.91  2136.33
                             2195.59  2243.51  2327.50  2337.54  4363.28
                             4455.72  4457.37  4528.08  4534.60  4555.42
                             4559.11  4591.10

 Zero-point correction=                           0.157676 (Hartree/Particle)
 Thermal correction to Energy=                    0.167829
 Thermal correction to Enthalpy=                  0.168773
 Thermal correction to Gibbs Free Energy=         0.121309
 Sum of electronic and zero-point Energies=           -574.574174
 Sum of electronic and thermal Energies=              -574.564020
 Sum of electronic and thermal Enthalpies=            -574.563076
 Sum of electronic and thermal Free Energies=         -574.610540

                     E (Thermal)             CV                S
                      KCal/Mol        Cal/Mol-Kelvin    Cal/Mol-Kelvin
 Total                  105.314             40.527             99.897
 Electronic               0.000              0.000              1.377
 Translational            0.889              2.981             41.335
 Rotational               0.889              2.981             30.823
 Vibrational            103.537             34.566             26.360
 Vibration     1          0.598              1.970              4.225
 Vibration     2          0.601              1.958              3.703
 Vibration     3          0.632              1.859              2.269
 Vibration     4          0.644              1.820              2.010
 Vibration     5          0.656              1.783              1.821
 Vibration     6          0.674              1.728              1.595
 Vibration     7          0.710              1.622              1.277
 Vibration     8          0.735              1.553              1.118
 Vibration     9          0.744              1.528              1.068
 Vibration    10          0.815              1.345              0.774
 Vibration    11          0.820              1.333              0.759
 Vibration    12          0.839              1.289              0.703
 Vibration    13          0.851              1.261              0.671
 Vibration    14          0.885              1.183              0.587
 Vibration    15          0.974              1.001              0.425

                           ! Non-Optimized Parameters !
 Normal termination of Gaussian 16 at Sun Feb 11 01:22:21 2024.
