 Q-Chem 5.4, Q-Chem, Inc., Pleasanton, CA (2021)
 Q-Chem 5.4.0 for Intel X86 EM64T Linux

User input:
--------------------------------------------------------------
$molecule
0 1
C                  6.9072270000     -1.6385930000     -0.2581940000
C                  7.4659780000     -0.6717450000     -1.0856220000
C                  6.6597520000      0.3233240000     -1.6451300000
C                  5.2963400000      0.3497310000     -1.3762470000
C                  4.7248230000     -0.6183870000     -0.5452400000
C                  5.5367000000     -1.6203120000      0.0181520000
C                  4.9654820000     -2.6707470000      0.9094630000
C                  3.4960870000     -2.6164190000      1.1801600000
C                  2.6870510000     -1.6151600000      0.6167200000
C                  3.2587280000     -0.5651430000     -0.2743780000
C                  2.9331640000     -3.5885340000      2.0121470000
C                  1.5693070000     -3.5571060000      2.2774070000
C                  0.7539420000     -2.5652520000      1.7223140000
C                  1.3174270000     -1.6013710000      0.8961690000
O                  5.6655280000     -3.5405790000      1.3994270000
O                  2.5530070000      0.3029110000     -0.7617480000
H                  7.5130320000     -2.4186580000      0.1859560000
H                  4.6530510000      1.1114840000     -1.7989880000
H                  3.5805330000     -4.3472680000      2.4317360000
H                  0.7057520000     -0.8237900000      0.4551500000
I                  0.7160180000     -5.0213600000      3.5316450000
H                  8.5290740000     -0.6904410000     -1.2967030000
H                  7.0976270000      1.0765000000     -2.2901920000
H                 -0.3076290000     -2.5470920000      1.9334550000
$end
$rem
MAX_SCF_CYCLES=200
BASIS  =  6-311++G(d,p)
GUI  =  2
JOB_TYPE  =  SP
METHOD  =  B3LYP
SOLVENT_METHOD = COSMO
$end
$solvent
dielectric 37.219
opticaldielectric 1.43
$end

--------------------------------------------------------------

             Standard Nuclear Orientation (Angstroms)
    I     Atom           X                Y                Z
 ----------------------------------------------------------------
    1      C       3.9766935149    -1.7987300887     0.0000411254
    2      C       5.3081741195    -1.4002401703    -0.0000806184
    3      C       5.6333124418    -0.0410135714    -0.0001441485
    4      C       4.6264692825     0.9171902330    -0.0001151026
    5      C       3.2841630914     0.5264590465    -0.0000340193
    6      C       2.9568308403    -0.8422126092     0.0000691555
    7      C       1.5373974496    -1.2997580555     0.0001420787
    8      C       0.4766598102    -0.2461045449     0.0000831523
    9      C       0.8054814671     1.1200578843     0.0000309076
   10      C       2.2248674976     1.5769487135    -0.0000392838
   11      C      -0.8628274612    -0.6459371282     0.0000569331
   12      C      -1.8652703548     0.3166452050     0.0000587214
   13      C      -1.5501355620     1.6795145092     0.0000945199
   14      C      -0.2179189109     2.0723201628     0.0000582361
   15      O       1.2496812769    -2.4846446467     0.0001011198
   16      O       2.5065702974     2.7642704532     0.0000733957
   17      H       3.7019722456    -2.8462502781     0.0000844267
   18      H       4.8555899954     1.9756334400    -0.0001156712
   19      H      -1.0859835088    -1.7047195462    -0.0000022391
   20      H       0.0499897945     3.1218444365     0.0000691242
   21      I      -3.8869082841    -0.2818820927    -0.0000485505
   22      H       6.0950409476    -2.1458395443    -0.0001309527
   23      H       6.6724800526     0.2676031173    -0.0001938765
   24      H      -2.3363464205     2.4236353191     0.0001362943
 ----------------------------------------------------------------

    9   -7607.8664179820      3.09e-06  Convergence criterion met
 Total energy in the final basis set =    -7607.8664179820
    5   -7607.8802397249      2.48e-06  Convergence criterion met
 Total energy in the final basis set =    -7607.8802397249

                    Orbital Energies (a.u.)
 --------------------------------------------------------------

 Alpha MOs
 -- Occupied --
********-176.3095-165.7132-165.7112-165.7111 -35.8060 -31.2990 -31.2934
-31.2931 -22.9496 -22.9482 -22.9481 -22.9441 -22.9441 -19.1367 -19.1353
-10.2888 -10.2874 -10.2466 -10.2169 -10.2138 -10.2106 -10.2101 -10.2088
-10.2087 -10.2045 -10.1981 -10.1979 -10.1975 -10.1972  -6.3554  -4.7673
 -4.7534  -4.7530  -2.0334  -2.0287  -2.0285  -2.0166  -2.0166  -1.0724
 -1.0700  -0.9020  -0.8869  -0.8204  -0.7894  -0.7794  -0.7773  -0.7005
 -0.6836  -0.6588  -0.6315  -0.6194  -0.5901  -0.5649  -0.5494  -0.5108
 -0.4940  -0.4906  -0.4721  -0.4639  -0.4600  -0.4593  -0.4504  -0.4475
 -0.4387  -0.4246  -0.4026  -0.3925  -0.3812  -0.3771  -0.3696  -0.3626
 -0.3163  -0.2938  -0.2902  -0.2828  -0.2823  -0.2795  -0.2774  -0.2583

          Ground-State Mulliken Net Atomic Charges

     Atom                 Charge (a.u.)
  ----------------------------------------
      1 C                     0.158230
      2 C                    -0.421669
      3 C                    -0.412389
      4 C                     0.185101
      5 C                     0.138662
      6 C                     0.247146
      7 C                    -0.504378
      8 C                     0.157144
      9 C                     0.257506
     10 C                    -0.541684
     11 C                     0.252751
     12 C                     0.020951
     13 C                    -0.515560
     14 C                     0.046862
     15 O                    -0.290360
     16 O                    -0.292674
     17 H                     0.200619
     18 H                     0.202168
     19 H                     0.189913
     20 H                     0.209560
     21 I                     0.031184
     22 H                     0.228152
     23 H                     0.228634
     24 H                     0.224128
  ----------------------------------------
  Sum of atomic charges =     0.000000

                    Cartesian Multipole Moments
 -----------------------------------------------------------------
    Charge (ESU x 10^10)
                -0.0000
    Dipole Moment (Debye)
         X       1.9967      Y       0.3765      Z       0.0002
       Tot       2.0319
    Quadrupole Moments (Debye-Ang)
        XX     -90.6622     XY     -11.0555     YY    -128.9920
        XZ      -0.0022     YZ       0.0003     ZZ    -122.4279

 Total job time:  76.32s(wall), 463.60s(cpu)
        *  Thank you very much for using Q-Chem.  Have a nice day.  *
