 Gaussian 16, Revision A.03,
 Gaussian 16:  ES64L-G16RevA.03 25-Dec-2016

 -------------------------------
 #P UB3LYP/genecp nosym opt freq
 -------------------------------

 --------
 Oxidized
 --------
 Symbolic Z-matrix:
 Charge =  0 Multiplicity = 1

 SCF Done:  E(UB3LYP) =  -986.148530898     A.U. after   16 cycles
 Optimization completed.
    -- Stationary point found.
 Normal termination of Gaussian 16 at Wed Dec 27 21:09:54 2023.

 ------------------------------------------------------------------
 #P Geom=AllCheck Guess=TCheck SCRF=Check GenChk UB3LYP/GenECP Freq
 ------------------------------------------------------------------

 Structure from the checkpoint file:  "119.chk"
 --------
 Oxidized
 --------
 Charge =  0 Multiplicity = 1

                          Input orientation:
 ---------------------------------------------------------------------
 Center     Atomic      Atomic             Coordinates (Angstroms)
 Number     Number       Type             X           Y           Z
 ---------------------------------------------------------------------
      1          6           0        6.907227   -1.638593   -0.258194
      2          6           0        7.465978   -0.671745   -1.085622
      3          6           0        6.659752    0.323324   -1.645130
      4          6           0        5.296340    0.349731   -1.376247
      5          6           0        4.724823   -0.618387   -0.545240
      6          6           0        5.536700   -1.620312    0.018152
      7          6           0        4.965482   -2.670747    0.909463
      8          6           0        3.496087   -2.616419    1.180160
      9          6           0        2.687051   -1.615160    0.616720
     10          6           0        3.258728   -0.565143   -0.274378
     11          6           0        2.933164   -3.588534    2.012147
     12          6           0        1.569307   -3.557106    2.277407
     13          6           0        0.753942   -2.565252    1.722314
     14          6           0        1.317427   -1.601371    0.896169
     15          8           0        5.665528   -3.540579    1.399427
     16          8           0        2.553007    0.302911   -0.761748
     17          1           0        7.513032   -2.418658    0.185956
     18          1           0        4.653051    1.111484   -1.798988
     19          1           0        3.580533   -4.347268    2.431736
     20          1           0        0.705752   -0.823790    0.455150
     21         53           0        0.716018   -5.021360    3.531645
     22          1           0        8.529074   -0.690441   -1.296703
     23          1           0        7.097627    1.076500   -2.290192
     24          1           0       -0.307629   -2.547092    1.933455
 ---------------------------------------------------------------------

 SCF Done:  E(UB3LYP) =  -986.148530898     A.U. after    1 cycles

 Alpha  occ. eigenvalues --  -19.13387 -19.13226 -10.28633 -10.28486 -10.24983
 Alpha  occ. eigenvalues --  -10.21985 -10.21682 -10.21503 -10.21497 -10.21450
 Alpha  occ. eigenvalues --  -10.21199 -10.20982 -10.20750 -10.20697 -10.20435
 Alpha  occ. eigenvalues --  -10.20411  -6.85883  -4.88336  -4.87162  -4.87124
 Alpha  occ. eigenvalues --   -1.93151  -1.92758  -1.92739  -1.91719  -1.91719
 Alpha  occ. eigenvalues --   -1.06859  -1.06592  -0.90569  -0.89250  -0.82564
 Alpha  occ. eigenvalues --   -0.79401  -0.78510  -0.78394  -0.72007  -0.69356
 Alpha  occ. eigenvalues --   -0.67132  -0.64444  -0.62693  -0.59417  -0.56992
 Alpha  occ. eigenvalues --   -0.55622  -0.51105  -0.50060  -0.49693  -0.47801
 Alpha  occ. eigenvalues --   -0.46385  -0.46091  -0.45752  -0.45637  -0.45117
 Alpha  occ. eigenvalues --   -0.44114  -0.42135  -0.40670  -0.40026  -0.38779
 Alpha  occ. eigenvalues --   -0.37939  -0.37589  -0.36534  -0.31693  -0.29375
 Alpha  occ. eigenvalues --   -0.28960  -0.28819  -0.28418  -0.28156  -0.27619
 Alpha  occ. eigenvalues --   -0.26016
 Alpha virt. eigenvalues --   -0.12297  -0.08242  -0.05256  -0.04761  -0.03687
 Alpha virt. eigenvalues --   -0.01127  -0.00338   0.00978   0.01497   0.01871
 Alpha virt. eigenvalues --    0.02226   0.02958   0.03697   0.04167   0.04390

  Beta  occ. eigenvalues --  -19.13387 -19.13226 -10.28633 -10.28486 -10.24983
  Beta  occ. eigenvalues --  -10.21985 -10.21682 -10.21503 -10.21497 -10.21450
  Beta  occ. eigenvalues --  -10.21199 -10.20982 -10.20750 -10.20697 -10.20435
  Beta  occ. eigenvalues --  -10.20411  -6.85883  -4.88336  -4.87162  -4.87124
  Beta  occ. eigenvalues --   -1.93151  -1.92758  -1.92739  -1.91719  -1.91719
  Beta  occ. eigenvalues --   -1.06859  -1.06592  -0.90569  -0.89250  -0.82564
  Beta  occ. eigenvalues --   -0.79401  -0.78510  -0.78394  -0.72007  -0.69356
  Beta  occ. eigenvalues --   -0.67132  -0.64444  -0.62693  -0.59417  -0.56992
  Beta  occ. eigenvalues --   -0.55622  -0.51105  -0.50060  -0.49693  -0.47801
  Beta  occ. eigenvalues --   -0.46385  -0.46091  -0.45752  -0.45637  -0.45117
  Beta  occ. eigenvalues --   -0.44114  -0.42135  -0.40670  -0.40026  -0.38779
  Beta  occ. eigenvalues --   -0.37939  -0.37589  -0.36534  -0.31693  -0.29375
  Beta  occ. eigenvalues --   -0.28960  -0.28819  -0.28418  -0.28156  -0.27619
  Beta  occ. eigenvalues --   -0.26016
  Beta virt. eigenvalues --   -0.12297  -0.08242  -0.05256  -0.04761  -0.03687
  Beta virt. eigenvalues --   -0.01127  -0.00338   0.00978   0.01497   0.01871
  Beta virt. eigenvalues --    0.02226   0.02958   0.03697   0.04167   0.04390

 Mulliken charges and spin densities:
               1          2
     1  C    0.134436   0.000000
     2  C   -0.345554   0.000000
     3  C   -0.349100  -0.000000
     4  C    0.170539   0.000000
     5  C    0.174724  -0.000000
     6  C    0.275648   0.000000
     7  C   -0.580958   0.000000
     8  C    0.206582  -0.000000
     9  C    0.288850  -0.000000
    10  C   -0.672749  -0.000000
    11  C    0.239008  -0.000000
    12  C    0.320917   0.000000
    13  C   -0.719746   0.000000
    14  C    0.093061   0.000000
    15  O   -0.209259   0.000000
    16  O   -0.212445   0.000000
    17  H    0.184271  -0.000000
    18  H    0.186848   0.000000
    19  H    0.170294   0.000000
    20  H    0.193125  -0.000000
    21  I   -0.066402  -0.000000
    22  H    0.178967   0.000000
    23  H    0.179020   0.000000
    24  H    0.159923  -0.000000
 Sum of Mulliken charges =  -0.00000   0.00000

 Dipole moment (field-independent basis, Debye):
    X=              0.7669    Y=              0.8746    Z=             -0.8039  Tot=              1.4139
 Quadrupole moment (field-independent basis, Debye-Ang):
   XX=           -100.6084   YY=           -125.0232   ZZ=           -118.5824
   XY=             11.4388   XZ=            -12.6402   YZ=              0.7488

  Exact polarizability: 254.876  32.874 207.855 -56.469 -84.730 175.905
 Approx polarizability: 402.498  -5.782 355.057 -45.124-135.256 277.742

                      1                      2                      3
                      A                      A                      A
 Frequencies --     32.1022                73.2402               103.9121
 Red. masses --      8.4327                 7.4125                10.2797
 Frc consts  --      0.0051                 0.0234                 0.0654
 IR Inten    --      2.6867                 3.3217                 0.1197

                      4                      5                      6
                      A                      A                      A
 Frequencies --    115.3642               136.6697               180.4382
 Red. masses --      4.7370                 6.0274                 6.3663
 Frc consts  --      0.0371                 0.0663                 0.1221
 IR Inten    --      0.0942                 0.5175                 0.5724

                      7                      8                      9
                      A                      A                      A
 Frequencies --    186.1865               260.9472               264.0854
 Red. masses --     15.3599                 6.2440                 5.8530
 Frc consts  --      0.3137                 0.2505                 0.2405
 IR Inten    --      0.0407                 0.7981                 0.7083

                     10                     11                     12
                      A                      A                      A
 Frequencies --    328.5310               381.9455               404.3074
 Red. masses --      6.6259                 8.7080                 9.4283
 Frc consts  --      0.4214                 0.7485                 0.9080
 IR Inten    --      0.1913                 8.3506                21.0074

                     13                     14                     15
                      A                      A                      A
 Frequencies --    411.5780               443.2703               447.0974
 Red. masses --      3.3661                 4.2237                 3.8137
 Frc consts  --      0.3360                 0.4890                 0.4492
 IR Inten    --      0.7119                 0.5033                 0.8189

                     16                     17                     18
                      A                      A                      A
 Frequencies --    447.6771               487.0711               517.6905
 Red. masses --      9.1588                10.6225                 4.7641
 Frc consts  --      1.0815                 1.4848                 0.7523
 IR Inten    --      6.6428                 3.0306                 5.0672

                     19                     20                     21
                      A                      A                      A
 Frequencies --    641.8568               646.7533               661.8972
 Red. masses --      7.0438                 7.1383                 4.5540
 Frc consts  --      1.7097                 1.7592                 1.1755
 IR Inten    --     11.0044                 2.0994                 3.3194

                     22                     23                     24
                      A                      A                      A
 Frequencies --    696.2666               703.7797               724.9511
 Red. masses --      6.7688                 7.5894                 4.5653
 Frc consts  --      1.9334                 2.2148                 1.4136
 IR Inten    --      0.0938                 9.2489                 3.0631

                     25                     26                     27
                      A                      A                      A
 Frequencies --    731.3184               801.9563               808.8061
 Red. masses --      2.2684                 3.2904                 1.9818
 Frc consts  --      0.7148                 1.2468                 0.7638
 IR Inten    --     76.7395                 0.2531                 6.0760

                     28                     29                     30
                      A                      A                      A
 Frequencies --    811.7560               863.7001               917.7921
 Red. masses --      6.9115                 1.5362                 1.3788
 Frc consts  --      2.6833                 0.6752                 0.6843
 IR Inten    --     22.7283                19.8268                 0.2631

                     31                     32                     33
                      A                      A                      A
 Frequencies --    937.4904               939.4212               960.9889
 Red. masses --      7.1749                 1.3933                 7.0120
 Frc consts  --      3.7153                 0.7245                 3.8153
 IR Inten    --     67.3363                 4.7009                42.1801

                     34                     35                     36
                      A                      A                      A
 Frequencies --   1001.7222              1005.7823              1020.2500
 Red. masses --      1.3446                 1.3861                 1.3296
 Frc consts  --      0.7949                 0.8262                 0.8154
 IR Inten    --      0.0152                 3.0545                 0.0005

                     37                     38                     39
                      A                      A                      A
 Frequencies --   1056.8497              1082.2868              1112.4338
 Red. masses --      2.0753                 2.0896                 2.4215
 Frc consts  --      1.3657                 1.4421                 1.7656
 IR Inten    --      1.7957                16.2140                 2.0549

                     40                     41                     42
                      A                      A                      A
 Frequencies --   1124.9217              1176.3323              1186.0321
 Red. masses --      2.5470                 1.6274                 1.5569
 Frc consts  --      1.8990                 1.3268                 1.2903
 IR Inten    --      3.7626                 0.5995                31.8437

                     43                     44                     45
                      A                      A                      A
 Frequencies --   1193.1116              1235.3557              1280.3837
 Red. masses --      1.8758                 1.7369                 1.4825
 Frc consts  --      1.5733                 1.5618                 1.4319
 IR Inten    --      4.0774                 5.2468                59.3941

                     46                     47                     48
                      A                      A                      A
 Frequencies --   1299.7615              1310.8229              1337.2207
 Red. masses --      4.0300                 2.5629                 6.8009
 Frc consts  --      4.0113                 2.5946                 7.1651
 IR Inten    --    700.1025                57.2933                44.9681

                     49                     50                     51
                      A                      A                      A
 Frequencies --   1359.4430              1421.9219              1481.6578
 Red. masses --      7.8626                 3.7653                 2.3965
 Frc consts  --      8.5613                 4.4854                 3.0998
 IR Inten    --     18.3086                 6.8783                 0.5965

                     52                     53                     54
                      A                      A                      A
 Frequencies --   1493.2016              1505.9015              1590.1576
 Red. masses --      2.5547                 2.5611                 7.7238
 Frc consts  --      3.3560                 3.4220                11.5070
 IR Inten    --      1.6168                 6.8897                10.6376

                     55                     56                     57
                      A                      A                      A
 Frequencies --   1606.4318              1614.2223              1629.2036
 Red. masses --      6.3598                 6.9925                 5.7434
 Frc consts  --      9.6698                10.7351                 8.9819
 IR Inten    --    176.7892                 1.9672                46.5586

                     58                     59                     60
                      A                      A                      A
 Frequencies --   1719.3021              1729.7839              3171.5013
 Red. masses --     12.6629                12.2125                 1.0871
 Frc consts  --     22.0540                21.5297                 6.4423
 IR Inten    --     16.2747               315.9101                 3.0775

                     61                     62                     63
                      A                      A                      A
 Frequencies --   3185.6289              3190.8835              3200.4587
 Red. masses --      1.0917                 1.0884                 1.0926
 Frc consts  --      6.5276                 6.5290                 6.5935
 IR Inten    --      9.5644                 0.6186                 0.1859

                     64                     65                     66
                      A                      A                      A
 Frequencies --   3203.0561              3203.7707              3208.5999
 Red. masses --      1.0951                 1.0948                 1.0916
 Frc consts  --      6.6195                 6.6209                 6.6213
 IR Inten    --     13.6042                 0.1636                 4.2431

 - Thermochemistry -
 -------------------
 Temperature   298.150 Kelvin.  Pressure   1.00000 Atm.
 Atom     1 has atomic number  6 and mass  12.00000

 Molecular mass:   333.94500 amu.
 Principal axes and moments of inertia in atomic units:
                           1         2         3
     Eigenvalues --  1813.24759********************
           X            0.63468   0.75429   0.16803
           Y            0.55301  -0.59520   0.58303
           Z           -0.53978   0.27711   0.79489
 This molecule is an asymmetric top.
 Rotational symmetry number  1.
 Warning -- assumption of classical behavior for rotation
           may cause significant error
 Rotational temperatures (Kelvin)      0.04777     0.00652     0.00574
 Rotational constants (GHZ):           0.99531     0.13591     0.11958
 Zero-point vibrational energy     442673.6 (Joules/Mol)
                                  105.80152 (Kcal/Mol)
 Warning -- explicit consideration of  18 degrees of freedom as
           vibrations may cause significant error
 Vibrational temperatures:     46.19   105.38   149.51   165.98   196.64
          (Kelvin)            259.61   267.88   375.44   379.96   472.68
                              549.53   581.71   592.17   637.77   643.27
                              644.11   700.79   744.84   923.49   930.53
                              952.32  1001.77  1012.58  1043.04  1052.20
                             1153.84  1163.69  1167.94  1242.67  1320.50
                             1348.84  1351.62  1382.65  1441.25  1447.10
                             1467.91  1520.57  1557.17  1600.54  1618.51
                             1692.48  1706.44  1716.62  1777.40  1842.19
                             1870.07  1885.98  1923.96  1955.94  2045.83
                             2131.78  2148.38  2166.66  2287.88  2311.30
                             2322.51  2344.06  2473.69  2488.77  4563.08
                             4583.41  4590.97  4604.75  4608.48  4609.51
                             4616.46

 Zero-point correction=                           0.168605 (Hartree/Particle)
 Thermal correction to Energy=                    0.181552
 Thermal correction to Enthalpy=                  0.182496
 Thermal correction to Gibbs Free Energy=         0.126934
 Sum of electronic and zero-point Energies=           -985.979925
 Sum of electronic and thermal Energies=              -985.966979
 Sum of electronic and thermal Enthalpies=            -985.966035
 Sum of electronic and thermal Free Energies=         -986.021596

                     E (Thermal)             CV                S
                      KCal/Mol        Cal/Mol-Kelvin    Cal/Mol-Kelvin
 Total                  113.925             50.181            116.939
 Electronic               0.000              0.000              0.000
 Translational            0.889              2.981             43.312
 Rotational               0.889              2.981             34.251
 Vibrational            112.148             44.220             39.375
 Vibration     1          0.594              1.983              5.695
 Vibration     2          0.599              1.967              4.064
 Vibration     3          0.605              1.946              3.380
 Vibration     4          0.608              1.937              3.177
 Vibration     5          0.614              1.917              2.850
 Vibration     6          0.629              1.866              2.324
 Vibration     7          0.632              1.859              2.265
 Vibration     8          0.669              1.744              1.655
 Vibration     9          0.671              1.739              1.635
 Vibration    10          0.712              1.618              1.267
 Vibration    11          0.751              1.509              1.031
 Vibration    12          0.769              1.461              0.947
 Vibration    13          0.776              1.445              0.921
 Vibration    14          0.803              1.376              0.816
 Vibration    15          0.806              1.367              0.805
 Vibration    16          0.807              1.366              0.803
 Vibration    17          0.843              1.279              0.691
 Vibration    18          0.873              1.211              0.615

 Optimization completed.
    -- Stationary point found.
 Normal termination of Gaussian 16 at Wed Dec 27 21:37:22 2023.
