 Q-Chem 5.4, Q-Chem, Inc., Pleasanton, CA (2021)
 Q-Chem 5.4.0 for Intel X86 EM64T Linux

User input:
--------------------------------------------------------------
$molecule
-2 1
C                  2.3461020000      3.5752960000      2.7567050000
C                  3.4234630000      3.5070090000      1.8230260000
C                  3.3952050000      2.6901490000      0.6986950000
C                  2.2459940000      1.8371290000      0.4049150000
C                  1.1687460000      1.9052170000      1.3387370000
C                  1.1969980000      2.7220840000      2.4630620000
O                  2.3374570000      4.3308920000      3.7971070000
O                  2.2548660000      1.0811360000     -0.6351960000
N                  0.1903690000      2.7755930000      3.4368570000
C                 -1.2084820000      2.5928980000      3.1219830000
C                 -2.0531120000      2.4499250000      4.3907520000
N                  4.4019280000      2.6365120000     -0.2749990000
C                  5.8007820000      2.8189240000      0.0400460000
C                  6.6455860000      2.9617250000     -1.2286250000
H                  4.2839010000      4.1347190000      2.0375810000
H                  0.3083900000      1.2773580000      1.1242890000
H                  0.4029220000      3.5627610000      4.0488610000
H                 -1.3174650000      1.6922700000      2.5130030000
H                 -1.6154510000      3.4263820000      2.5111950000
H                 -1.7242200000      1.5906110000      4.9833060000
H                 -3.1141290000      2.3181200000      4.1484740000
H                 -1.9724740000      3.3417540000      5.0231000000
H                  4.1892960000      1.8494430000     -0.8871000000
H                  6.2075060000      1.9853580000      0.6508850000
H                  5.9098750000      3.7195320000      0.6490350000
H                  6.5648440000      2.0699110000     -1.8609800000
H                  7.7066010000      3.0933200000     -0.9862250000
H                  6.3169350000      3.8211030000     -1.8212190000
$end
$rem
MAX_SCF_CYCLES=200
BASIS  =  6-311++G(d,p)
GUI  =  2
JOB_TYPE  =  SP
METHOD  =  B3LYP
SOLVENT_METHOD = COSMO
$end
$solvent
dielectric 37.219
opticaldielectric 1.43
$end

--------------------------------------------------------------

             Standard Nuclear Orientation (Angstroms)
    I     Atom           X                Y                Z
 ----------------------------------------------------------------
    1      C       0.6142362611    -1.3276792954    -0.0231426242
    2      C      -0.8005465167    -1.1500998074    -0.0862419969
    3      C      -1.4041036073     0.1019281236    -0.0682456082
    4      C      -0.6142273951     1.3276821123     0.0226304607
    5      C       0.8005405710     1.1500904831     0.0859990029
    6      C       1.4040993264    -0.1019355351     0.0679919105
    7      O       1.2016548612    -2.4711598214    -0.0519184440
    8      O      -1.2016736667     2.4711340994     0.0519468716
    9      N       2.7823762801    -0.3259236705     0.1889208675
   10      C       3.7694327959     0.5909559530    -0.3348714673
   11      C       5.1767003080     0.2353329111     0.1516943478
   12      N      -2.7824027876     0.3258935687    -0.1889890602
   13      C      -3.7693673041    -0.5909151448     0.3351128661
   14      C      -5.1767252925    -0.2353189694    -0.1512068672
   15      H      -1.3949721635    -2.0573809326    -0.1487428313
   16      H       1.3949572561     2.0573636796     0.1487004134
   17      H       2.9477783628    -1.3112257518    -0.0140153136
   18      H       3.5193933869     1.6026250693    -0.0064348338
   19      H       3.7697636719     0.6209609180    -1.4450430390
   20      H       5.2310618584     0.2669345740     1.2442861736
   21      H       5.9234711646     0.9286436581    -0.2526344263
   22      H       5.4632738363    -0.7734602862    -0.1675819326
   23      H      -2.9477929477     1.3112279358     0.0137913439
   24      H      -3.7694663773    -0.6207951825     1.4452876928
   25      H      -3.5194143521    -1.6026243057     0.0067354156
   26      H      -5.4632162488     0.7735136293     0.1680172654
   27      H      -5.9234270886    -0.9285721696     0.2533475327
   28      H      -5.2313092425    -0.2670393334    -1.2437836775
 ----------------------------------------------------------------

   14    -649.5868002554      6.82e-06  Convergence criterion met
 Total energy in the final basis set =     -649.5868002554
    6    -649.8714899139      3.15e-06  Convergence criterion met
 Total energy in the final basis set =     -649.8714899139

                    Orbital Energies (a.u.)
 --------------------------------------------------------------

 Alpha MOs
 -- Occupied --
-19.0195 -19.0195 -14.2781 -14.2781 -10.1799 -10.1799 -10.1610 -10.1610
-10.1484 -10.1484 -10.1467 -10.1467 -10.1123 -10.1123  -0.9444  -0.9404
 -0.8866  -0.8856  -0.7671  -0.7388  -0.7191  -0.6737  -0.6319  -0.6127
 -0.5879  -0.5380  -0.5336  -0.4795  -0.4563  -0.4540  -0.4491  -0.4353
 -0.4185  -0.3955  -0.3841  -0.3826  -0.3768  -0.3639  -0.3626  -0.3532
 -0.3484  -0.3454  -0.3391  -0.3332  -0.3199  -0.3081  -0.2708  -0.2545
 -0.2066  -0.2005  -0.2000  -0.1667  -0.0986

          Ground-State Mulliken Net Atomic Charges

     Atom                 Charge (a.u.)
  ----------------------------------------
      1 C                    -0.332258
      2 C                    -0.162860
      3 C                     0.044530
      4 C                    -0.330885
      5 C                    -0.163160
      6 C                     0.047247
      7 O                    -0.785695
      8 O                    -0.785823
      9 N                    -0.170059
     10 C                    -0.122592
     11 C                    -0.583283
     12 N                    -0.170678
     13 C                    -0.121602
     14 C                    -0.583342
     15 H                     0.136146
     16 H                     0.136114
     17 H                     0.274425
     18 H                     0.141451
     19 H                     0.125714
     20 H                     0.137080
     21 H                     0.147171
     22 H                     0.148299
     23 H                     0.274626
     24 H                     0.125833
     25 H                     0.141210
     26 H                     0.148288
     27 H                     0.147144
     28 H                     0.136959
  ----------------------------------------
  Sum of atomic charges =    -2.000003

                    Cartesian Multipole Moments
 -----------------------------------------------------------------
    Charge (ESU x 10^10)
                -9.6064
    Dipole Moment (Debye)
         X       0.0039      Y      -0.0004      Z       0.0002
       Tot       0.0039
    Quadrupole Moments (Debye-Ang)
        XX    -104.1269     XY      22.9682     YY    -141.6853
        XZ      -5.9630     YZ       0.6199     ZZ     -98.5253

 Total job time:  56.18s(wall), 420.78s(cpu)
        *  Thank you very much for using Q-Chem.  Have a nice day.  *
