 Q-Chem 5.4, Q-Chem, Inc., Pleasanton, CA (2021)
 Q-Chem 5.4.0 for Intel X86 EM64T Linux

User input:
--------------------------------------------------------------
$molecule
-2 1
C                 -1.8205550000      3.1486690000      0.2394700000
C                 -2.9562640000      2.4430860000     -0.1046570000
C                 -2.8598810000      1.0713360000     -0.4645710000
C                 -0.5324940000      2.5441270000      0.2492250000
C                 -0.4323010000      1.1432220000     -0.1275940000
C                 -1.6143480000      0.4590710000     -0.4701020000
C                  0.6286540000      3.2854810000      0.6133630000
C                  1.8477930000      2.5650390000      0.5733350000
C                  1.9960390000      1.2170570000      0.2176430000
C                  0.8493590000      0.4360120000     -0.1552720000
O                  0.6723440000      4.5536730000      0.9695140000
O                  0.9341650000     -0.8048080000     -0.4834010000
H                 -1.8730600000      4.1972060000      0.5182180000
H                 -3.9274630000      2.9375020000     -0.0999540000
H                 -3.7527840000      0.5098800000     -0.7342140000
H                 -1.5031460000     -0.5866180000     -0.7431940000
C                  3.3480780000      0.5551780000      0.2449730000
O                  2.9360610000      3.3416610000      0.9337410000
C                  4.0990820000      0.6170060000     -1.1022050000
H                  3.2016540000     -0.5001120000      0.5043570000
H                  3.9755360000      1.0214690000      1.0151840000
H                  2.4562370000      4.1944110000      1.1072890000
H                  3.5089070000      0.1252570000     -1.8808780000
H                  5.0801710000      0.1169930000     -1.0430710000
H                  4.2690560000      1.6564540000     -1.4017580000
$end
$rem
MAX_SCF_CYCLES=200
BASIS  =  6-311++G(d,p)
GUI  =  2
JOB_TYPE  =  SP
METHOD  =  B3LYP
SOLVENT_METHOD = COSMO
$end
$solvent
dielectric 37.219
opticaldielectric 1.43
$end

--------------------------------------------------------------

             Standard Nuclear Orientation (Angstroms)
    I     Atom           X                Y                Z
 ----------------------------------------------------------------
    1      C       2.5894253541    -1.0223209388    -0.1583459702
    2      C       3.6124526990    -0.0961359292    -0.1996021733
    3      C       3.3201409447     1.2915941885    -0.1032445514
    4      C       1.2275204069    -0.6343415694    -0.0192264058
    5      C       0.9272841050     0.7856591425     0.0703400859
    6      C       1.9992536379     1.6975410176     0.0260433867
    7      C       0.1844207820    -1.6039624417     0.0281597792
    8      C      -1.1258597083    -1.0819810522     0.1609727427
    9      C      -1.4660710745     0.2751070327     0.2510688242
   10      C      -0.4429915214     1.2827656899     0.2074320235
   11      O       0.3231828673    -2.9125451232    -0.0454591674
   12      O      -0.7050416716     2.5391990601     0.2922841045
   13      H       2.7919040703    -2.0871255848    -0.2296235850
   14      H       4.6448640096    -0.4287100740    -0.3055178042
   15      H       4.1234787830     2.0257599113    -0.1326548170
   16      H       1.7390862259     2.7498856733     0.0988050066
   17      C      -2.8996244198     0.7023444199     0.4220460685
   18      O      -2.0917369785    -2.0735124766     0.1971388702
   19      C      -3.6292729374     0.9815317661    -0.9092637151
   20      H      -2.9080519563     1.6251439959     1.0142681133
   21      H      -3.4557378437    -0.0698510308     0.9686792807
   22      H      -1.4943509404    -2.8629547874     0.1108643018
   23      H      -3.1137002187     1.7752532379    -1.4575758957
   24      H      -4.6724942435     1.2972105186    -0.7416877988
   25      H      -3.6463012330     0.0834485014    -1.5355478296
 ----------------------------------------------------------------

   12    -689.1521706171      5.88e-06  Convergence criterion met
 Total energy in the final basis set =     -689.1521706171
    6    -689.4306407678      2.67e-06  Convergence criterion met
 Total energy in the final basis set =     -689.4306407678

                    Orbital Energies (a.u.)
 --------------------------------------------------------------

 Alpha MOs
 -- Occupied --
-19.1129 -19.0326 -19.0237 -10.1800 -10.1776 -10.1649 -10.1501 -10.1463
-10.1460 -10.1455 -10.1431 -10.1417 -10.1412 -10.1363 -10.1274  -1.0252
 -0.9414  -0.9299  -0.8252  -0.7776  -0.7404  -0.7234  -0.6907  -0.6430
 -0.6084  -0.5818  -0.5558  -0.5353  -0.5034  -0.4721  -0.4507  -0.4328
 -0.4268  -0.4103  -0.4021  -0.3977  -0.3880  -0.3744  -0.3628  -0.3532
 -0.3527  -0.3499  -0.3379  -0.3218  -0.3149  -0.3089  -0.2999  -0.2991
 -0.2320  -0.2283  -0.2217  -0.2020  -0.1941  -0.1159

          Ground-State Mulliken Net Atomic Charges

     Atom                 Charge (a.u.)
  ----------------------------------------
      1 C                    -0.051716
      2 C                    -0.446551
      3 C                    -0.496699
      4 C                     0.149363
      5 C                     0.398628
      6 C                     0.036012
      7 C                    -0.805751
      8 C                    -0.579757
      9 C                     1.612678
     10 C                    -0.794709
     11 O                    -0.783770
     12 O                    -0.694086
     13 H                     0.164718
     14 H                     0.174854
     15 H                     0.172873
     16 H                     0.156342
     17 C                    -0.236773
     18 O                    -0.368285
     19 C                    -0.652448
     20 H                     0.150253
     21 H                     0.162986
     22 H                     0.293882
     23 H                     0.164626
     24 H                     0.125665
     25 H                     0.147664
  ----------------------------------------
  Sum of atomic charges =    -2.000000

                    Cartesian Multipole Moments
 -----------------------------------------------------------------
    Charge (ESU x 10^10)
                -9.6064
    Dipole Moment (Debye)
         X       0.8442      Y       1.6238      Z      -1.0404
       Tot       2.1052
    Quadrupole Moments (Debye-Ang)
        XX    -115.3161     XY       5.2704     YY    -150.5899
        XZ       0.9404     YZ      -2.4433     ZZ    -100.5197

 Total job time:  54.59s(wall), 416.63s(cpu)
        *  Thank you very much for using Q-Chem.  Have a nice day.  *
