 Q-Chem 5.4, Q-Chem, Inc., Pleasanton, CA (2021)
 Q-Chem 5.4.0 for Intel X86 EM64T Linux

User input:
--------------------------------------------------------------
$molecule
-1 2
C                  2.6862460000      1.3899630000      0.9129910000
C                  2.3482390000      0.5291090000     -0.3215880000
C                  3.5920200000     -0.2231270000     -0.8132730000
C                  1.1463500000     -0.3604300000     -0.0432140000
C                  1.2590490000     -1.6813860000      0.3102820000
C                  0.1182910000     -2.5222580000      0.6021550000
O                  0.2403370000     -3.7390590000      0.9292960000
C                 -1.1696790000     -1.8752970000      0.4919050000
C                 -1.3298900000     -0.5572120000      0.1392750000
C                 -2.7299240000      0.0347290000      0.0452760000
C                 -2.9599150000      1.1679220000      1.0643670000
C                 -3.0759490000      0.5018080000     -1.3821920000
C                 -0.1666510000      0.2765320000     -0.1453930000
O                 -0.2771430000      1.4996740000     -0.4696480000
H                  3.5040700000      2.0882270000      0.6936300000
H                  2.9946490000      0.7567530000      1.7524810000
H                  1.8131710000      1.9699600000      1.2173860000
H                  2.0312890000      1.2242140000     -1.1065200000
H                  4.3799230000      0.4870150000     -1.0897890000
H                  3.3656010000     -0.8391050000     -1.6884290000
H                  4.0030940000     -0.8821940000     -0.0413450000
H                  2.2285130000     -2.1650660000      0.3859380000
H                 -2.0374880000     -2.4960070000      0.7053120000
H                 -3.4229600000     -0.7780180000      0.2995150000
H                 -2.2877260000      2.0019980000      0.8562090000
H                 -3.9962150000      1.5259850000      1.0166150000
H                 -2.7694870000      0.8167000000      2.0833560000
H                 -4.1116170000      0.8615770000     -1.4307360000
H                 -2.9695310000     -0.3216700000     -2.0952920000
H                 -2.4066660000      1.3086630000     -1.6854280000
$end
$rem
MAX_SCF_CYCLES=200
BASIS  =  6-311++G(d,p)
GUI  =  2
JOB_TYPE  =  SP
METHOD  =  B3LYP
SOLVENT_METHOD = PCM
$end
$pcm
theory = CPCM
$end
$solvent
dielectric 37.219
opticaldielectric 1.43
$end

--------------------------------------------------------------

             Standard Nuclear Orientation (Angstroms)
    I     Atom           X                Y                Z
 ----------------------------------------------------------------
    1      C       2.6862460000     1.3899630000     0.9129910000
    2      C       2.3482390000     0.5291090000    -0.3215880000
    3      C       3.5920200000    -0.2231270000    -0.8132730000
    4      C       1.1463500000    -0.3604300000    -0.0432140000
    5      C       1.2590490000    -1.6813860000     0.3102820000
    6      C       0.1182910000    -2.5222580000     0.6021550000
    7      O       0.2403370000    -3.7390590000     0.9292960000
    8      C      -1.1696790000    -1.8752970000     0.4919050000
    9      C      -1.3298900000    -0.5572120000     0.1392750000
   10      C      -2.7299240000     0.0347290000     0.0452760000
   11      C      -2.9599150000     1.1679220000     1.0643670000
   12      C      -3.0759490000     0.5018080000    -1.3821920000
   13      C      -0.1666510000     0.2765320000    -0.1453930000
   14      O      -0.2771430000     1.4996740000    -0.4696480000
   15      H       3.5040700000     2.0882270000     0.6936300000
   16      H       2.9946490000     0.7567530000     1.7524810000
   17      H       1.8131710000     1.9699600000     1.2173860000
   18      H       2.0312890000     1.2242140000    -1.1065200000
   19      H       4.3799230000     0.4870150000    -1.0897890000
   20      H       3.3656010000    -0.8391050000    -1.6884290000
   21      H       4.0030940000    -0.8821940000    -0.0413450000
   22      H       2.2285130000    -2.1650660000     0.3859380000
   23      H      -2.0374880000    -2.4960070000     0.7053120000
   24      H      -3.4229600000    -0.7780180000     0.2995150000
   25      H      -2.2877260000     2.0019980000     0.8562090000
   26      H      -3.9962150000     1.5259850000     1.0166150000
   27      H      -2.7694870000     0.8167000000     2.0833560000
   28      H      -4.1116170000     0.8615770000    -1.4307360000
   29      H      -2.9695310000    -0.3216700000    -2.0952920000
   30      H      -2.4066660000     1.3086630000    -1.6854280000
 ----------------------------------------------------------------

    8    -617.6734470687      8.91e-06  Convergence criterion met
 Total energy in the final basis set =     -617.6734470687

                    Orbital Energies (a.u.)
 --------------------------------------------------------------

 Alpha MOs
 -- Occupied --
-19.0729 -19.0716 -10.2142 -10.2136 -10.1671 -10.1654 -10.1653 -10.1651
-10.1524 -10.1518 -10.1486 -10.1485 -10.1451 -10.1451  -0.9941  -0.9916
 -0.8275  -0.8022  -0.7668  -0.7172  -0.6778  -0.6720  -0.6706  -0.6134
 -0.5933  -0.5405  -0.5311  -0.4829  -0.4615  -0.4422  -0.4410  -0.4268
 -0.4217  -0.4142  -0.4047  -0.3973  -0.3879  -0.3804  -0.3793  -0.3753
 -0.3665  -0.3584  -0.3388  -0.3337  -0.3304  -0.3264  -0.3220  -0.3163
 -0.2719  -0.2423  -0.2385  -0.2291  -0.1571

 Beta MOs
 -- Occupied --
-19.0667 -19.0649 -10.2126 -10.2118 -10.1672 -10.1654 -10.1642 -10.1639
-10.1514 -10.1509 -10.1485 -10.1485 -10.1450 -10.1450  -0.9827  -0.9797
 -0.8226  -0.8011  -0.7647  -0.7152  -0.6759  -0.6717  -0.6621  -0.6106
 -0.5909  -0.5379  -0.5286  -0.4811  -0.4576  -0.4412  -0.4390  -0.4264
 -0.4200  -0.4064  -0.3989  -0.3960  -0.3837  -0.3778  -0.3722  -0.3662
 -0.3654  -0.3424  -0.3360  -0.3331  -0.3266  -0.3240  -0.3214  -0.3134
 -0.2415  -0.2350  -0.2327  -0.2234

          Ground-State Mulliken Net Atomic Charges

     Atom                 Charge (a.u.)    Spin (a.u.)
  --------------------------------------------------------
      1 C                    -0.714362       0.010316
      2 C                     0.224666       0.001722
      3 C                    -0.585370       0.001262
      4 C                     1.048221       0.069350
      5 C                    -0.307109       0.088057
      6 C                    -0.388336       0.135025
      7 O                    -0.547512       0.222465
      8 C                    -0.373818       0.042959
      9 C                     0.777256       0.056308
     10 C                     0.242347      -0.005834
     11 C                    -0.684694       0.006373
     12 C                    -0.689016       0.007399
     13 C                    -1.111994       0.123650
     14 O                    -0.461656       0.253940
     15 H                     0.143259       0.001903
     16 H                     0.150289      -0.001056
     17 H                     0.172447      -0.001875
     18 H                     0.190199       0.002161
     19 H                     0.168943      -0.000410
     20 H                     0.136876      -0.000235
     21 H                     0.144559      -0.000233
     22 H                     0.182956      -0.004945
     23 H                     0.185396      -0.007372
     24 H                     0.180158      -0.000802
     25 H                     0.177098      -0.000980
     26 H                     0.147851       0.000450
     27 H                     0.131927       0.000480
     28 H                     0.148100       0.000379
     29 H                     0.130992       0.000365
     30 H                     0.180327      -0.000822
  --------------------------------------------------------
  Sum of atomic charges =    -1.000000

                    Cartesian Multipole Moments
 -----------------------------------------------------------------
    Charge (ESU x 10^10)
                -4.8032
    Dipole Moment (Debye)
         X       0.0011      Y       6.6348      Z      -1.4909
       Tot       6.8002
    Quadrupole Moments (Debye-Ang)
        XX     -87.8373     XY       4.7245     YY    -137.6003
        XZ      -1.6415     YZ      11.3612     ZZ     -94.8790

 Total job time:  81.71s(wall), 352.32s(cpu)
        *  Thank you very much for using Q-Chem.  Have a nice day.  *
