 Gaussian 16, Revision A.03,
 Gaussian 16:  ES64L-G16RevA.03 25-Dec-2016

 --------------------------------------
 #P UB3LYP/6-311++G(d,p) nosym opt freq
 --------------------------------------

 -------
 Radical
 -------
 Symbolic Z-matrix:
 Charge = -1 Multiplicity = 2

 SCF Done:  E(UB3LYP) =  -617.593176843     A.U. after   22 cycles
 Optimization completed.
    -- Stationary point found.
 Normal termination of Gaussian 16 at Sat Jan  6 05:44:57 2024.

 ----------------------------------------------------------------------
 #P Geom=AllCheck Guess=TCheck SCRF=Check GenChk UB3LYP/6-311++G(d,p) F
 req
 ----------------------------------------------------------------------

 Structure from the checkpoint file:  "047-rad.chk"
 -------
 Radical
 -------
 Charge = -1 Multiplicity = 2

                          Input orientation:
 ---------------------------------------------------------------------
 Center     Atomic      Atomic             Coordinates (Angstroms)
 Number     Number       Type             X           Y           Z
 ---------------------------------------------------------------------
      1          6           0        2.686246    1.389963    0.912991
      2          6           0        2.348239    0.529109   -0.321588
      3          6           0        3.592020   -0.223127   -0.813273
      4          6           0        1.146350   -0.360430   -0.043214
      5          6           0        1.259049   -1.681386    0.310282
      6          6           0        0.118291   -2.522258    0.602155
      7          8           0        0.240337   -3.739059    0.929296
      8          6           0       -1.169679   -1.875297    0.491905
      9          6           0       -1.329890   -0.557212    0.139275
     10          6           0       -2.729924    0.034729    0.045276
     11          6           0       -2.959915    1.167922    1.064367
     12          6           0       -3.075949    0.501808   -1.382192
     13          6           0       -0.166651    0.276532   -0.145393
     14          8           0       -0.277143    1.499674   -0.469648
     15          1           0        3.504070    2.088227    0.693630
     16          1           0        2.994649    0.756753    1.752481
     17          1           0        1.813171    1.969960    1.217386
     18          1           0        2.031289    1.224214   -1.106520
     19          1           0        4.379923    0.487015   -1.089789
     20          1           0        3.365601   -0.839105   -1.688429
     21          1           0        4.003094   -0.882194   -0.041345
     22          1           0        2.228513   -2.165066    0.385938
     23          1           0       -2.037488   -2.496007    0.705312
     24          1           0       -3.422960   -0.778018    0.299515
     25          1           0       -2.287726    2.001998    0.856209
     26          1           0       -3.996215    1.525985    1.016615
     27          1           0       -2.769487    0.816700    2.083356
     28          1           0       -4.111617    0.861577   -1.430736
     29          1           0       -2.969531   -0.321670   -2.095292
     30          1           0       -2.406666    1.308663   -1.685428
 ---------------------------------------------------------------------

 SCF Done:  E(UB3LYP) =  -617.593176843     A.U. after    2 cycles

 Alpha  occ. eigenvalues --  -18.93374 -18.93082 -10.07929 -10.07525 -10.05534
 Alpha  occ. eigenvalues --  -10.05253 -10.04871 -10.04207 -10.03738 -10.03732
 Alpha  occ. eigenvalues --  -10.03509 -10.03507 -10.02282 -10.02248  -0.85600
 Alpha  occ. eigenvalues --   -0.84932  -0.70144  -0.68678  -0.64960  -0.59440
 Alpha  occ. eigenvalues --   -0.57148  -0.56370  -0.54128  -0.49173  -0.47575
 Alpha  occ. eigenvalues --   -0.41949  -0.40862  -0.35808  -0.33407  -0.33130
 Alpha  occ. eigenvalues --   -0.31897  -0.31627  -0.30904  -0.29525  -0.28653
 Alpha  occ. eigenvalues --   -0.27610  -0.26939  -0.26383  -0.25364  -0.24860
 Alpha  occ. eigenvalues --   -0.24606  -0.23056  -0.22637  -0.22449  -0.21568
 Alpha  occ. eigenvalues --   -0.20963  -0.20673  -0.19918  -0.13600  -0.11389
 Alpha  occ. eigenvalues --   -0.09786  -0.09127  -0.01972
 Alpha virt. eigenvalues --    0.08214   0.08487   0.10134   0.10536   0.10991
 Alpha virt. eigenvalues --    0.11303   0.11511   0.12646   0.13020   0.13449
 Alpha virt. eigenvalues --    0.13840   0.14068   0.14522   0.14712   0.15234

  Beta  occ. eigenvalues --  -18.92681 -18.92331 -10.07769 -10.07442 -10.05541
  Beta  occ. eigenvalues --  -10.05261 -10.04870 -10.04200 -10.03734 -10.03728
  Beta  occ. eigenvalues --  -10.03413 -10.03411 -10.02152 -10.02125  -0.84392
  Beta  occ. eigenvalues --   -0.83624  -0.69758  -0.68596  -0.64668  -0.59222
  Beta  occ. eigenvalues --   -0.57122  -0.56356  -0.53212  -0.48910  -0.47333
  Beta  occ. eigenvalues --   -0.41723  -0.40579  -0.35663  -0.33183  -0.33076
  Beta  occ. eigenvalues --   -0.31595  -0.31566  -0.30808  -0.29215  -0.28554
  Beta  occ. eigenvalues --   -0.27538  -0.26769  -0.25723  -0.24726  -0.24374
  Beta  occ. eigenvalues --   -0.24012  -0.22579  -0.22380  -0.21797  -0.20999
  Beta  occ. eigenvalues --   -0.20530  -0.20022  -0.19059  -0.10600  -0.10190
  Beta  occ. eigenvalues --   -0.09134  -0.08460
  Beta virt. eigenvalues --    0.05289   0.08215   0.08486   0.10152   0.10575
  Beta virt. eigenvalues --    0.10998   0.11311   0.11518   0.12966   0.13457
  Beta virt. eigenvalues --    0.13563   0.13896   0.14117   0.14534   0.14910

 Mulliken charges and spin densities:
               1          2
     1  C   -0.706662   0.009136
     2  C    0.112828   0.004678
     3  C   -0.555821   0.001389
     4  C    1.456929   0.049716
     5  C   -0.254073   0.119748
     6  C   -0.726469   0.082463
     7  O   -0.413245   0.266743
     8  C   -0.330274   0.075899
     9  C    0.972324   0.040018
    10  C    0.230649  -0.008560
    11  C   -0.667095   0.007392
    12  C   -0.674525   0.008426
    13  C   -1.318534   0.105149
    14  O   -0.368184   0.256369
    15  H    0.093614   0.002872
    16  H    0.125308  -0.001423
    17  H    0.191813  -0.002212
    18  H    0.210178   0.001705
    19  H    0.131889  -0.000525
    20  H    0.121335  -0.000513
    21  H    0.122880  -0.000281
    22  H    0.138257  -0.007034
    23  H    0.142727  -0.009592
    24  H    0.143644  -0.000990
    25  H    0.195154  -0.001061
    26  H    0.102713   0.000475
    27  H    0.110840   0.000308
    28  H    0.102675   0.000393
    29  H    0.109840   0.000195
    30  H    0.199287  -0.000881
 Sum of Mulliken charges =  -1.00000   1.00000

 Dipole moment (field-independent basis, Debye):
    X=              0.1200    Y=              5.3093    Z=             -1.2668  Tot=              5.4596
 Quadrupole moment (field-independent basis, Debye-Ang):
   XX=           -100.4333   YY=           -132.4220   ZZ=            -95.7840
   XY=              3.8701   XZ=             -1.3974   YZ=              9.4647

  Exact polarizability: 193.490  -5.570 200.416  -0.207 -17.329 124.048
 Approx polarizability: 244.228 -11.362 345.634   1.094 -44.558 186.190

                      1                      2                      3
                      A                      A                      A
 Frequencies --     37.9105                64.9692                76.0003
 Red. masses --      2.7865                 2.8841                 4.3377
 Frc consts  --      0.0024                 0.0072                 0.0148
 IR Inten    --      0.6805                 2.1693                 0.8752

                      4                      5                      6
                      A                      A                      A
 Frequencies --    136.3975               151.7927               156.8581
 Red. masses --      3.9353                 3.4485                 3.8718
 Frc consts  --      0.0431                 0.0468                 0.0561
 IR Inten    --      2.5060                 2.2900                 4.2423

                      7                      8                      9
                      A                      A                      A
 Frequencies --    211.9295               230.0755               244.1779
 Red. masses --      2.5687                 1.0727                 1.1195
 Frc consts  --      0.0680                 0.0335                 0.0393
 IR Inten    --      0.7478                 0.3030                 0.7077

                     10                     11                     12
                      A                      A                      A
 Frequencies --    249.0282               262.5121               273.6382
 Red. masses --      1.2475                 1.1774                 3.1016
 Frc consts  --      0.0456                 0.0478                 0.1368
 IR Inten    --      0.2916                 0.3122                 1.2359

                     13                     14                     15
                      A                      A                      A
 Frequencies --    278.3573               289.2383               316.8036
 Red. masses --      2.5491                 3.4333                 3.4665
 Frc consts  --      0.1164                 0.1692                 0.2050
 IR Inten    --      1.5797                 1.8519                 3.9470

                     16                     17                     18
                      A                      A                      A
 Frequencies --    406.0884               415.0954               433.3210
 Red. masses --      4.1665                 3.2616                 3.6036
 Frc consts  --      0.4048                 0.3311                 0.3987
 IR Inten    --     14.0672                 0.5095                 1.9207

                     19                     20                     21
                      A                      A                      A
 Frequencies --    452.2340               474.9670               513.0646
 Red. masses --      3.2782                 6.2337                 3.6275
 Frc consts  --      0.3950                 0.8286                 0.5626
 IR Inten    --      0.5602                 0.1810                 0.0639

                     22                     23                     24
                      A                      A                      A
 Frequencies --    555.1250               605.9198               661.6962
 Red. masses --      4.0643                 3.6975                 3.0383
 Frc consts  --      0.7379                 0.7998                 0.7838
 IR Inten    --      3.6562                 0.2003                 0.0558

                     25                     26                     27
                      A                      A                      A
 Frequencies --    680.9168               797.1092               806.4964
 Red. masses --      3.5264                 7.0869                 4.7180
 Frc consts  --      0.9633                 2.6530                 1.8081
 IR Inten    --      0.2829                 7.8015                14.2485

                     28                     29                     30
                      A                      A                      A
 Frequencies --    822.1219               863.3976               867.6439
 Red. masses --      3.9236                 2.0728                 1.6462
 Frc consts  --      1.5625                 0.9104                 0.7301
 IR Inten    --     23.2816                 1.4870                 1.1774

                     31                     32                     33
                      A                      A                      A
 Frequencies --    886.7876               924.9225               927.3973
 Red. masses --      1.6846                 1.2318                 1.1603
 Frc consts  --      0.7805                 0.6208                 0.5879
 IR Inten    --     30.5191                 0.4319                 1.8395

                     34                     35                     36
                      A                      A                      A
 Frequencies --    938.2436               957.2371               959.7355
 Red. masses --      2.2397                 1.5674                 1.7988
 Frc consts  --      1.1616                 0.8462                 0.9762
 IR Inten    --     14.0891                 0.2012                 1.0475

                     37                     38                     39
                      A                      A                      A
 Frequencies --    964.4045              1067.8241              1104.0399
 Red. masses --      2.0901                 1.8025                 1.6144
 Frc consts  --      1.1454                 1.2110                 1.1594
 IR Inten    --      1.0685                39.4655                 2.5142

                     40                     41                     42
                      A                      A                      A
 Frequencies --   1117.2055              1121.7830              1150.8899
 Red. masses --      2.3362                 2.2808                 2.2895
 Frc consts  --      1.7180                 1.6910                 1.7868
 IR Inten    --      2.4076                13.0757                20.3499

                     43                     44                     45
                      A                      A                      A
 Frequencies --   1169.0075              1200.7746              1214.0180
 Red. masses --      2.0449                 2.0490                 1.8319
 Frc consts  --      1.6465                 1.7407                 1.5908
 IR Inten    --      0.4112                 3.4970                 3.7976

                     46                     47                     48
                      A                      A                      A
 Frequencies --   1254.2625              1299.6523              1340.9965
 Red. masses --      1.9097                 1.9386                 1.4155
 Frc consts  --      1.7701                 1.9292                 1.4997
 IR Inten    --     10.3988                11.1417                 2.1288

                     49                     50                     51
                      A                      A                      A
 Frequencies --   1345.2907              1346.3247              1372.5917
 Red. masses --      1.6704                 1.2845                 1.4535
 Frc consts  --      1.7812                 1.3717                 1.6134
 IR Inten    --      2.5268                 2.4742                 7.8899

                     52                     53                     54
                      A                      A                      A
 Frequencies --   1374.3083              1382.0633              1392.7818
 Red. masses --      1.2349                 1.3268                 1.2875
 Frc consts  --      1.3742                 1.4932                 1.4715
 IR Inten    --     10.5047                 5.8254                28.7966

                     55                     56                     57
                      A                      A                      A
 Frequencies --   1403.0486              1432.7429              1477.6511
 Red. masses --      1.2403                 3.9295                 1.0525
 Frc consts  --      1.4386                 4.7525                 1.3540
 IR Inten    --      5.0690                22.0195                 2.0338

                     58                     59                     60
                      A                      A                      A
 Frequencies --   1477.8484              1486.3950              1486.8509
 Red. masses --      1.9724                 1.1132                 1.0468
 Frc consts  --      2.5380                 1.4491                 1.3635
 IR Inten    --     77.6402                 2.0788                 3.8940

                     61                     62                     63
                      A                      A                      A
 Frequencies --   1498.1607              1502.6541              1503.5586
 Red. masses --      1.7418                 1.1120                 1.0525
 Frc consts  --      2.3033                 1.4794                 1.4018
 IR Inten    --     29.1190                 2.2462                 1.1143

                     64                     65                     66
                      A                      A                      A
 Frequencies --   1508.7413              1513.3508              1522.5929
 Red. masses --      1.1829                 1.6751                 1.8030
 Frc consts  --      1.5865                 2.2603                 2.4628
 IR Inten    --     81.5736               168.7332               155.2336

                     67                     68                     69
                      A                      A                      A
 Frequencies --   1530.7358              1639.5916              2983.8777
 Red. masses --      3.3680                 6.8694                 1.0788
 Frc consts  --      4.6497                10.8802                 5.6591
 IR Inten    --     10.7672                14.2958                28.0933

                     70                     71                     72
                      A                      A                      A
 Frequencies --   2992.8223              2993.4165              3002.3165
 Red. masses --      1.0403                 1.0434                 1.0465
 Frc consts  --      5.4899                 5.5086                 5.5580
 IR Inten    --     75.5561                49.3686               202.8825

                     73                     74                     75
                      A                      A                      A
 Frequencies --   3005.5791              3020.8496              3048.5608
 Red. masses --      1.0365                 1.0845                 1.0984
 Frc consts  --      5.5167                 5.8308                 6.0145
 IR Inten    --     59.9808                 0.4870                10.0799

                     76                     77                     78
                      A                      A                      A
 Frequencies --   3055.6968              3058.3973              3060.8397
 Red. masses --      1.0940                 1.0945                 1.0973
 Frc consts  --      6.0183                 6.0319                 6.0569
 IR Inten    --     42.2368                63.6116               102.1595

                     79                     80                     81
                      A                      A                      A
 Frequencies --   3077.0150              3102.3588              3105.4105
 Red. masses --      1.1003                 1.0974                 1.0989
 Frc consts  --      6.1380                 6.2231                 6.2438
 IR Inten    --     42.5086                16.5811                 0.9578

                     82                     83                     84
                      A                      A                      A
 Frequencies --   3108.8083              3125.9388              3149.4661
 Red. masses --      1.0982                 1.0887                 1.0881
 Frc consts  --      6.2537                 6.2678                 6.3588
 IR Inten    --     19.3530                40.4368                25.0349

 - Thermochemistry -
 -------------------
 Temperature   298.150 Kelvin.  Pressure   1.00000 Atm.
 Atom     1 has atomic number  6 and mass  12.00000

 Molecular mass:   192.11503 amu.
 Principal axes and moments of inertia in atomic units:
                           1         2         3
     Eigenvalues --  2056.870663376.813104765.28484
           X            0.99509   0.09843   0.01050
           Y           -0.09867   0.97771   0.18534
           Z            0.00798  -0.18547   0.98262
 This molecule is an asymmetric top.
 Rotational symmetry number  1.
 Warning -- assumption of classical behavior for rotation
           may cause significant error
 Rotational temperatures (Kelvin)      0.04211     0.02565     0.01818
 Rotational constants (GHZ):           0.87742     0.53445     0.37873
 Zero-point vibrational energy     658081.9 (Joules/Mol)
                                  157.28535 (Kcal/Mol)
 Warning -- explicit consideration of  23 degrees of freedom as
           vibrations may cause significant error
 Vibrational temperatures:     54.54    93.48   109.35   196.25   218.40
          (Kelvin)            225.68   304.92   331.03   351.32   358.30
                              377.70   393.70   400.49   416.15   455.81
                              584.27   597.23   623.45   650.66   683.37
                              738.19   798.70   871.78   952.03   979.69
                             1146.86  1160.37  1182.85  1242.24  1248.35
                             1275.89  1330.76  1334.32  1349.92  1377.25
                             1380.85  1387.56  1536.36  1588.47  1607.41
                             1614.00  1655.87  1681.94  1727.65  1746.70
                             1804.60  1869.91  1929.39  1935.57  1937.06
                             1974.85  1977.32  1988.48  2003.90  2018.67
                             2061.40  2126.01  2126.29  2138.59  2139.25
                             2155.52  2161.98  2163.29  2170.74  2177.37
                             2190.67  2202.39  2359.01  4293.13  4306.00
                             4306.86  4319.66  4324.36  4346.33  4386.20
                             4396.47  4400.35  4403.87  4427.14  4463.60
                             4467.99  4472.88  4497.53  4531.38

 Zero-point correction=                           0.250650 (Hartree/Particle)
 Thermal correction to Energy=                    0.265309
 Thermal correction to Enthalpy=                  0.266253
 Thermal correction to Gibbs Free Energy=         0.208901
 Sum of electronic and zero-point Energies=           -617.342527
 Sum of electronic and thermal Energies=              -617.327868
 Sum of electronic and thermal Enthalpies=            -617.326924
 Sum of electronic and thermal Free Energies=         -617.384276

                     E (Thermal)             CV                S
                      KCal/Mol        Cal/Mol-Kelvin    Cal/Mol-Kelvin
 Total                  166.484             55.731            120.707
 Electronic               0.000              0.000              1.377
 Translational            0.889              2.981             41.664
 Rotational               0.889              2.981             31.871
 Vibrational            164.706             49.770             45.795
 Vibration     1          0.594              1.982              5.365
 Vibration     2          0.597              1.971              4.300
 Vibration     3          0.599              1.965              3.992
 Vibration     4          0.614              1.917              2.854
 Vibration     5          0.619              1.901              2.650
 Vibration     6          0.621              1.895              2.587
 Vibration     7          0.643              1.823              2.027
 Vibration     8          0.652              1.795              1.878
 Vibration     9          0.660              1.772              1.772
 Vibration    10          0.662              1.764              1.737
 Vibration    11          0.670              1.741              1.645
 Vibration    12          0.676              1.722              1.573
 Vibration    13          0.679              1.714              1.544
 Vibration    14          0.686              1.694              1.478
 Vibration    15          0.704              1.642              1.327
 Vibration    16          0.771              1.457              0.941
 Vibration    17          0.778              1.437              0.909
 Vibration    18          0.794              1.398              0.848
 Vibration    19          0.811              1.356              0.789
 Vibration    20          0.832              1.306              0.724
 Vibration    21          0.868              1.221              0.626
 Vibration    22          0.911              1.128              0.534
 Vibration    23          0.965              1.019              0.440

 Optimization completed.
    -- Stationary point found.
 Normal termination of Gaussian 16 at Sat Jan  6 07:02:08 2024.
