 Q-Chem 5.4, Q-Chem, Inc., Pleasanton, CA (2021)
 Q-Chem 5.4.0 for Intel X86 EM64T Linux

User input:
--------------------------------------------------------------
$molecule
-1 2
N                 -2.7945330000     -2.0527700000      0.3760680000
C                 -2.4885180000     -0.7166680000      0.1921740000
C                 -3.5248220000      0.2144520000      0.0708670000
C                 -3.2595260000      1.5650480000     -0.1829210000
C                 -1.9591610000      2.0069720000     -0.3228740000
C                 -0.8857540000      1.1025680000     -0.1947710000
C                  0.4700400000      1.6281980000     -0.3368470000
O                  0.6851930000      2.8435980000     -0.5729780000
C                  1.5723630000      0.6770550000     -0.1957050000
C                  2.8795270000      1.1813640000     -0.3516140000
C                  3.9774930000      0.3600140000     -0.2387110000
C                  3.7931840000     -1.0076940000      0.0310270000
C                  2.5193660000     -1.5197840000      0.1898510000
Cl                 2.4771600000     -3.2680470000      0.4984370000
C                  1.3504980000     -0.7123510000      0.0923790000
C                 -0.0168710000     -1.2197320000      0.2750600000
O                 -0.2257910000     -2.4203190000      0.6067450000
C                 -1.1223100000     -0.2785110000      0.0762440000
H                 -3.6941090000     -2.2529440000      0.7836910000
H                 -1.9919940000     -2.6188140000      0.6543180000
H                 -4.5504600000     -0.1343740000      0.1598950000
H                 -4.0872640000      2.2627380000     -0.2744730000
H                 -1.7216460000      3.0430650000     -0.5261660000
H                  2.9736350000      2.2393060000     -0.5632950000
H                  4.9821990000      0.7525130000     -0.3596710000
H                  4.6421020000     -1.6748850000      0.1132680000
$end

$rem
BASIS  =  6-311++G(d,p)
GUI  =  2
JOB_TYPE  =  SP
METHOD  =  B3LYP
SCF_CONVERGENCE  = 8
SOLVENT_METHOD = sm12
$end

$smx
solvent dimethylformamide
charges CM5
$end

--------------------------------------------------------------

             Standard Nuclear Orientation (Angstroms)
    I     Atom           X                Y                Z
 ----------------------------------------------------------------
    1      N      -2.7945330000    -2.0527700000     0.3760680000
    2      C      -2.4885180000    -0.7166680000     0.1921740000
    3      C      -3.5248220000     0.2144520000     0.0708670000
    4      C      -3.2595260000     1.5650480000    -0.1829210000
    5      C      -1.9591610000     2.0069720000    -0.3228740000
    6      C      -0.8857540000     1.1025680000    -0.1947710000
    7      C       0.4700400000     1.6281980000    -0.3368470000
    8      O       0.6851930000     2.8435980000    -0.5729780000
    9      C       1.5723630000     0.6770550000    -0.1957050000
   10      C       2.8795270000     1.1813640000    -0.3516140000
   11      C       3.9774930000     0.3600140000    -0.2387110000
   12      C       3.7931840000    -1.0076940000     0.0310270000
   13      C       2.5193660000    -1.5197840000     0.1898510000
   14      Cl      2.4771600000    -3.2680470000     0.4984370000
   15      C       1.3504980000    -0.7123510000     0.0923790000
   16      C      -0.0168710000    -1.2197320000     0.2750600000
   17      O      -0.2257910000    -2.4203190000     0.6067450000
   18      C      -1.1223100000    -0.2785110000     0.0762440000
   19      H      -3.6941090000    -2.2529440000     0.7836910000
   20      H      -1.9919940000    -2.6188140000     0.6543180000
   21      H      -4.5504600000    -0.1343740000     0.1598950000
   22      H      -4.0872640000     2.2627380000    -0.2744730000
   23      H      -1.7216460000     3.0430650000    -0.5261660000
   24      H       2.9736350000     2.2393060000    -0.5632950000
   25      H       4.9821990000     0.7525130000    -0.3596710000
   26      H       4.6421020000    -1.6748850000     0.1132680000
 ----------------------------------------------------------------

   18   -1204.0100218823      7.39e-09  Convergence criterion met
 Total energy in the final basis set =    -1204.0966644165

                    Orbital Energies (a.u.)
 --------------------------------------------------------------

 Alpha MOs
 -- Occupied --
******** -19.0820 -19.0762 -14.3121 -10.2425 -10.2393 -10.2260 -10.2259
-10.1953 -10.1866 -10.1857 -10.1850 -10.1823 -10.1814 -10.1794 -10.1784
-10.1726 -10.1658  -9.4592  -7.2237  -7.2144  -7.2134  -1.0135  -1.0033
 -0.9201  -0.8892  -0.8487  -0.8352  -0.7935  -0.7509  -0.7431  -0.7347
 -0.6737  -0.6458  -0.6345  -0.5894  -0.5667  -0.5522  -0.5331  -0.5075
 -0.4852  -0.4814  -0.4753  -0.4546  -0.4502  -0.4342  -0.4338  -0.4236
 -0.4129  -0.4037  -0.3940  -0.3878  -0.3871  -0.3707  -0.3609  -0.3570
 -0.3517  -0.3296  -0.3148  -0.3104  -0.2759  -0.2603  -0.2538  -0.2468
 -0.2363  -0.2174  -0.1450

 Beta MOs
 -- Occupied --
******** -19.0766 -19.0703 -14.3119 -10.2426 -10.2379 -10.2261 -10.2244
-10.1943 -10.1859 -10.1851 -10.1840 -10.1820 -10.1812 -10.1787 -10.1783
-10.1715 -10.1654  -9.4592  -7.2237  -7.2144  -7.2134  -1.0044  -0.9931
 -0.9195  -0.8878  -0.8466  -0.8342  -0.7897  -0.7490  -0.7403  -0.7331
 -0.6670  -0.6440  -0.6321  -0.5886  -0.5646  -0.5501  -0.5318  -0.5067
 -0.4835  -0.4791  -0.4741  -0.4536  -0.4490  -0.4337  -0.4239  -0.4221
 -0.4076  -0.4011  -0.3914  -0.3859  -0.3704  -0.3681  -0.3556  -0.3521
 -0.3466  -0.3264  -0.3103  -0.3070  -0.2571  -0.2536  -0.2463  -0.2417
 -0.2315  -0.2102

          Ground-State Mulliken Net Atomic Charges

     Atom                 Charge (a.u.)    Spin (a.u.)
  --------------------------------------------------------
      1 N                    -0.235862       0.005057
      2 C                     0.042404       0.022542
      3 C                     1.905252       0.093914
      4 C                     0.652071       0.020728
      5 C                    -0.428476       0.067407
      6 C                    -1.121465       0.012021
      7 C                    -2.413875       0.073205
      8 O                    -0.302255       0.222757
      9 C                    -1.032035       0.022015
     10 C                     0.290561       0.031516
     11 C                     0.643233       0.036692
     12 C                     1.873169       0.062099
     13 C                     1.188411       0.020861
     14 Cl                    0.625664       0.000743
     15 C                    -0.603610       0.072668
     16 C                    -3.136855       0.045507
     17 O                    -0.144237       0.198416
     18 C                    -1.094923       0.017367
     19 H                     0.394133      -0.000637
     20 H                     0.277636      -0.003345
     21 H                     0.311943      -0.006338
     22 H                     0.347544      -0.001663
     23 H                     0.113795      -0.004149
     24 H                     0.145791      -0.002070
     25 H                     0.365338      -0.003159
     26 H                     0.336649      -0.004153
  --------------------------------------------------------
  Sum of atomic charges =    -1.000000

                    Cartesian Multipole Moments
 -----------------------------------------------------------------
    Charge (ESU x 10^10)
                -4.8032
    Dipole Moment (Debye)
         X      -1.9440      Y      -0.8855      Z       0.7930
       Tot       2.2786
    Quadrupole Moments (Debye-Ang)
        XX    -113.9101     XY       4.2623     YY    -146.6049
        XZ      -3.5512     YZ       3.6277     ZZ    -119.6745

 Total job time:  723.14s(wall), 5359.02s(cpu)
        *  Thank you very much for using Q-Chem.  Have a nice day.  *
