 Gaussian 16, Revision A.03,
 Gaussian 16:  ES64L-G16RevA.03 25-Dec-2016

 --------------------------------------
 #P UB3LYP/6-311++G(d,p) nosym opt freq
 --------------------------------------

 -------
 Radical
 -------
 Symbolic Z-matrix:
 Charge = -1 Multiplicity = 2

 SCF Done:  E(UB3LYP) =  -1204.01398800     A.U. after   25 cycles
 Optimization completed.
    -- Stationary point found.
 Normal termination of Gaussian 16 at Wed Dec 27 19:53:29 2023.

 ----------------------------------------------------------------------
 #P Geom=AllCheck Guess=TCheck SCRF=Check GenChk UB3LYP/6-311++G(d,p) F
 req
 ----------------------------------------------------------------------

 Structure from the checkpoint file:  "153-rad.chk"
 -------
 Radical
 -------
 Charge = -1 Multiplicity = 2

                          Input orientation:
 ---------------------------------------------------------------------
 Center     Atomic      Atomic             Coordinates (Angstroms)
 Number     Number       Type             X           Y           Z
 ---------------------------------------------------------------------
      1          7           0       -2.794533   -2.052770    0.376068
      2          6           0       -2.488518   -0.716668    0.192174
      3          6           0       -3.524822    0.214452    0.070867
      4          6           0       -3.259526    1.565048   -0.182921
      5          6           0       -1.959161    2.006972   -0.322874
      6          6           0       -0.885754    1.102568   -0.194771
      7          6           0        0.470040    1.628198   -0.336847
      8          8           0        0.685193    2.843598   -0.572978
      9          6           0        1.572363    0.677055   -0.195705
     10          6           0        2.879527    1.181364   -0.351614
     11          6           0        3.977493    0.360014   -0.238711
     12          6           0        3.793184   -1.007694    0.031027
     13          6           0        2.519366   -1.519784    0.189851
     14         17           0        2.477160   -3.268047    0.498437
     15          6           0        1.350498   -0.712351    0.092379
     16          6           0       -0.016871   -1.219732    0.275060
     17          8           0       -0.225791   -2.420319    0.606745
     18          6           0       -1.122310   -0.278511    0.076244
     19          1           0       -3.694109   -2.252944    0.783691
     20          1           0       -1.991994   -2.618814    0.654318
     21          1           0       -4.550460   -0.134374    0.159895
     22          1           0       -4.087264    2.262738   -0.274473
     23          1           0       -1.721646    3.043065   -0.526166
     24          1           0        2.973635    2.239306   -0.563295
     25          1           0        4.982199    0.752513   -0.359671
     26          1           0        4.642102   -1.674885    0.113268
 ---------------------------------------------------------------------

 SCF Done:  E(UB3LYP) =  -1204.01398800     A.U. after    1 cycles

 Alpha  occ. eigenvalues -- -101.42699 -18.95431 -18.94765 -14.19285 -10.12126
 Alpha  occ. eigenvalues --  -10.11151 -10.10176 -10.09807 -10.06963 -10.06681
 Alpha  occ. eigenvalues --  -10.06565 -10.05860 -10.05852 -10.05577 -10.05538
 Alpha  occ. eigenvalues --  -10.05184 -10.05053 -10.03993  -9.34173  -7.10630
 Alpha  occ. eigenvalues --   -7.09693  -7.09587  -0.88587  -0.87448  -0.79981
 Alpha  occ. eigenvalues --   -0.76768  -0.72489  -0.71359  -0.66931  -0.62738
 Alpha  occ. eigenvalues --   -0.62044  -0.61111  -0.54892  -0.52276  -0.51092
 Alpha  occ. eigenvalues --   -0.46701  -0.44322  -0.43045  -0.41008  -0.38802
 Alpha  occ. eigenvalues --   -0.36313  -0.35774  -0.35408  -0.33256  -0.32705
 Alpha  occ. eigenvalues --   -0.31305  -0.30662  -0.29927  -0.28568  -0.28010
 Alpha  occ. eigenvalues --   -0.27118  -0.26722  -0.25967  -0.24787  -0.23751
 Alpha  occ. eigenvalues --   -0.23377  -0.22665  -0.21039  -0.19416  -0.19083
 Alpha  occ. eigenvalues --   -0.15044  -0.13451  -0.13203  -0.11918  -0.10974
 Alpha  occ. eigenvalues --   -0.09372  -0.01810
 Alpha virt. eigenvalues --    0.06629   0.07855   0.08325   0.08979   0.09408
 Alpha virt. eigenvalues --    0.10440   0.11161   0.11680   0.12082   0.12623
 Alpha virt. eigenvalues --    0.14061   0.14439   0.15014   0.15708   0.16108

  Beta  occ. eigenvalues -- -101.42697 -18.94884 -18.94168 -14.19275 -10.12139
  Beta  occ. eigenvalues --  -10.11006 -10.10191 -10.09672 -10.06855 -10.06615
  Beta  occ. eigenvalues --  -10.06499 -10.05817 -10.05745 -10.05554 -10.05551
  Beta  occ. eigenvalues --  -10.05103 -10.04962 -10.03969  -9.34172  -7.10629
  Beta  occ. eigenvalues --   -7.09688  -7.09587  -0.87670  -0.86416  -0.79917
  Beta  occ. eigenvalues --   -0.76638  -0.72275  -0.71263  -0.66543  -0.62539
  Beta  occ. eigenvalues --   -0.61796  -0.60954  -0.54211  -0.52096  -0.50853
  Beta  occ. eigenvalues --   -0.46620  -0.44121  -0.42847  -0.40882  -0.38721
  Beta  occ. eigenvalues --   -0.36151  -0.35504  -0.35306  -0.33149  -0.32592
  Beta  occ. eigenvalues --   -0.31272  -0.29813  -0.29665  -0.28107  -0.27725
  Beta  occ. eigenvalues --   -0.26872  -0.26536  -0.24737  -0.24167  -0.23237
  Beta  occ. eigenvalues --   -0.22709  -0.22187  -0.20663  -0.19318  -0.18432
  Beta  occ. eigenvalues --   -0.13203  -0.12804  -0.12266  -0.11410  -0.10460
  Beta  occ. eigenvalues --   -0.08705
  Beta virt. eigenvalues --    0.03937   0.07484   0.07865   0.08319   0.09372
  Beta virt. eigenvalues --    0.10103   0.10440   0.11165   0.11896   0.12122
  Beta virt. eigenvalues --    0.12622   0.14057   0.14469   0.15089   0.15782

 Mulliken charges and spin densities:
               1          2
     1  N   -0.366732   0.003966
     2  C    0.211753   0.024568
     3  C   -0.216708   0.082576
     4  C   -0.360612   0.029957
     5  C   -0.047187   0.047755
     6  C    0.336356   0.022849
     7  C   -0.956294   0.062683
     8  O   -0.351101   0.225049
     9  C    0.213351   0.039051
    10  C    0.310673   0.013197
    11  C   -0.640847   0.048668
    12  C   -0.208952   0.058226
    13  C    1.172263   0.019643
    14  Cl   0.315379  -0.000043
    15  C   -0.066086   0.076981
    16  C   -1.614776   0.053427
    17  O   -0.255856   0.200358
    18  C    0.188716   0.016319
    19  H    0.213393  -0.000734
    20  H    0.308067  -0.003479
    21  H    0.095415  -0.005889
    22  H    0.127517  -0.002392
    23  H    0.149094  -0.003029
    24  H    0.164569  -0.001196
    25  H    0.125075  -0.004221
    26  H    0.153530  -0.004290
 Sum of Mulliken charges =  -1.00000   1.00000

 Dipole moment (field-independent basis, Debye):
    X=             -2.0211    Y=              0.0117    Z=              0.6150  Tot=              2.1127
 Quadrupole moment (field-independent basis, Debye-Ang):
   XX=           -123.2330   YY=           -147.6250   ZZ=           -119.3177
   XY=              4.9421   XZ=             -3.1931   YZ=              3.8946

  Exact polarizability: 342.998 -17.296 254.529  -5.945 -28.171 109.171
 Approx polarizability: 518.683  -6.804 472.257 -12.400 -58.958 177.904

                      1                      2                      3
                      A                      A                      A
 Frequencies --     28.5217                51.7610                93.4387
 Red. masses --     10.0191                 6.7731                 6.9761
 Frc consts  --      0.0048                 0.0107                 0.0359
 IR Inten    --      1.4119                 4.5634                 0.0335

                      4                      5                      6
                      A                      A                      A
 Frequencies --    164.2533               173.8058               191.8882
 Red. masses --      7.1809                10.2639                 4.4327
 Frc consts  --      0.1141                 0.1827                 0.0962
 IR Inten    --      0.9357                 3.3603                 0.0596

                      7                      8                      9
                      A                      A                      A
 Frequencies --    220.8734               263.5057               274.7821
 Red. masses --      4.6589                 5.2860                 5.8665
 Frc consts  --      0.1339                 0.2163                 0.2610
 IR Inten    --      2.8077                 8.7981                 2.9872

                     10                     11                     12
                      A                      A                      A
 Frequencies --    341.8106               347.8667               386.0858
 Red. masses --      5.4559                 9.7542                 1.6471
 Frc consts  --      0.3756                 0.6955                 0.1447
 IR Inten    --      5.6489                 4.2918               122.9309

                     13                     14                     15
                      A                      A                      A
 Frequencies --    401.8715               412.1811               413.8236
 Red. masses --      6.8219                 5.2587                 6.3246
 Frc consts  --      0.6491                 0.5264                 0.6381
 IR Inten    --      2.9962                 8.5519                 0.3000

                     16                     17                     18
                      A                      A                      A
 Frequencies --    440.2009               465.6187               498.0183
 Red. masses --      4.5368                 5.8429                 4.2033
 Frc consts  --      0.5180                 0.7463                 0.6142
 IR Inten    --     54.9709                 6.7553                 1.8314

                     19                     20                     21
                      A                      A                      A
 Frequencies --    503.3506               509.2749               562.7731
 Red. masses --      6.7177                 4.9195                 5.7153
 Frc consts  --      1.0028                 0.7518                 1.0665
 IR Inten    --      3.7247                 5.1316                 0.6377

                     22                     23                     24
                      A                      A                      A
 Frequencies --    577.9636               617.5777               640.3605
 Red. masses --      4.5900                 6.3606                 4.1190
 Frc consts  --      0.9034                 1.4293                 0.9952
 IR Inten    --      4.0581                26.2783                 7.9875

                     25                     26                     27
                      A                      A                      A
 Frequencies --    698.3613               707.7703               727.5699
 Red. masses --      5.8229                 1.6618                 2.3713
 Frc consts  --      1.6732                 0.4905                 0.7396
 IR Inten    --     15.1652                61.6076                17.2709

                     28                     29                     30
                      A                      A                      A
 Frequencies --    741.7731               744.5655               772.4094
 Red. masses --      2.0621                 4.9046                 2.0198
 Frc consts  --      0.6685                 1.6020                 0.7100
 IR Inten    --    107.1318                40.5297                11.1113

                     31                     32                     33
                      A                      A                      A
 Frequencies --    785.1943               799.7298               818.3849
 Red. masses --      1.9141                 5.5741                 5.2881
 Frc consts  --      0.6953                 2.1005                 2.0867
 IR Inten    --      3.6927                 6.4567                20.4368

                     34                     35                     36
                      A                      A                      A
 Frequencies --    857.0249               888.0173               912.6600
 Red. masses --      1.4882                 1.3728                 7.7074
 Frc consts  --      0.6440                 0.6378                 3.7825
 IR Inten    --      1.2112                 0.0502                39.7578

                     37                     38                     39
                      A                      A                      A
 Frequencies --    925.0273               960.8330               984.7909
 Red. masses --      6.4474                 1.2786                 1.3052
 Frc consts  --      3.2504                 0.6955                 0.7458
 IR Inten    --      4.1940                 0.7769                 1.6738

                     40                     41                     42
                      A                      A                      A
 Frequencies --   1028.5951              1074.1639              1085.8908
 Red. masses --      3.4643                 2.2578                 2.0287
 Frc consts  --      2.1595                 1.5349                 1.4094
 IR Inten    --      1.7715                27.8805                32.8171

                     43                     44                     45
                      A                      A                      A
 Frequencies --   1122.2912              1149.6089              1160.8761
 Red. masses --      2.8141                 1.5084                 1.7109
 Frc consts  --      2.0883                 1.1745                 1.3585
 IR Inten    --      4.9935                73.4893                32.8021

                     46                     47                     48
                      A                      A                      A
 Frequencies --   1176.8098              1184.2762              1222.3642
 Red. masses --      1.9190                 1.5602                 2.6252
 Frc consts  --      1.5658                 1.2892                 2.3111
 IR Inten    --      3.2797                10.3029                10.2194

                     49                     50                     51
                      A                      A                      A
 Frequencies --   1233.7400              1310.4322              1327.3854
 Red. masses --      2.4495                 2.5940                 7.0407
 Frc consts  --      2.1967                 2.6245                 7.3090
 IR Inten    --     80.6396                 5.2570                16.2437

                     52                     53                     54
                      A                      A                      A
 Frequencies --   1355.6784              1360.9972              1396.2859
 Red. masses --      3.9583                 6.0465                 3.3156
 Frc consts  --      4.2862                 6.5988                 3.8086
 IR Inten    --     28.9894                10.8852               213.0533

                     55                     56                     57
                      A                      A                      A
 Frequencies --   1431.5351              1460.6124              1472.5806
 Red. masses --      2.4549                 3.3720                 3.0213
 Frc consts  --      2.9641                 4.2384                 3.8601
 IR Inten    --     91.4590                16.2766                33.0777

                     58                     59                     60
                      A                      A                      A
 Frequencies --   1516.5844              1526.1017              1555.6364
 Red. masses --      4.3706                 5.1493                 4.1614
 Frc consts  --      5.9228                 7.0658                 5.9335
 IR Inten    --     25.3214               696.2197               142.5145

                     61                     62                     63
                      A                      A                      A
 Frequencies --   1601.2391              1606.6342              1611.9314
 Red. masses --      1.8040                 3.6641                 6.6914
 Frc consts  --      2.7253                 5.5725                10.2438
 IR Inten    --     98.8476                94.2844                60.0909

                     64                     65                     66
                      A                      A                      A
 Frequencies --   1621.1059              3126.2495              3147.9505
 Red. masses --      7.2774                 1.0851                 1.0924
 Frc consts  --     11.2681                 6.2485                 6.3782
 IR Inten    --     61.8072                30.0878                64.5634

                     67                     68                     69
                      A                      A                      A
 Frequencies --   3150.2469              3185.8628              3193.9788
 Red. masses --      1.0870                 1.0915                 1.0928
 Frc consts  --      6.3555                 6.5273                 6.5686
 IR Inten    --     27.8687                10.7781                18.9360

                     70                     71                     72
                      A                      A                      A
 Frequencies --   3198.7597              3380.1142              3643.7020
 Red. masses --      1.0916                 1.0612                 1.0874
 Frc consts  --      6.5809                 7.1438                 8.5063
 IR Inten    --     11.4398               129.5084                20.7115

 - Thermochemistry -
 -------------------
 Temperature   298.150 Kelvin.  Pressure   1.00000 Atm.
 Atom     1 has atomic number  7 and mass  14.00307

 Molecular mass:   257.02436 amu.
 Principal axes and moments of inertia in atomic units:
                           1         2         3
     Eigenvalues --  2874.541205461.896338332.02164
           X            0.92855   0.36944   0.03617
           Y           -0.36939   0.90995   0.18855
           Z            0.03675  -0.18844   0.98140
 This molecule is an asymmetric top.
 Rotational symmetry number  1.
 Warning -- assumption of classical behavior for rotation
           may cause significant error
 Rotational temperatures (Kelvin)      0.03013     0.01586     0.01040
 Rotational constants (GHZ):           0.62784     0.33042     0.21660
 Zero-point vibrational energy     481652.1 (Joules/Mol)
                                  115.11761 (Kcal/Mol)
 Warning -- explicit consideration of  23 degrees of freedom as
           vibrations may cause significant error
 Vibrational temperatures:     41.04    74.47   134.44   236.32   250.07
          (Kelvin)            276.08   317.79   379.13   395.35   491.79
                              500.50   555.49   578.20   593.04   595.40
                              633.35   669.92   716.54   724.21   732.73
                              809.70   831.56   888.56   921.34  1004.79
                             1018.32  1046.81  1067.25  1071.26  1111.32
                             1129.72  1150.63  1177.47  1233.07  1277.66
                             1313.11  1330.91  1382.42  1416.89  1479.92
                             1545.48  1562.35  1614.73  1654.03  1670.24
                             1693.17  1703.91  1758.71  1775.08  1885.42
                             1909.81  1950.52  1958.17  2008.94  2059.66
                             2101.50  2118.71  2182.03  2195.72  2238.21
                             2303.83  2311.59  2319.21  2332.41  4497.98
                             4529.20  4532.50  4583.75  4595.42  4602.30
                             4863.23  5242.47

 Zero-point correction=                           0.183452 (Hartree/Particle)
 Thermal correction to Energy=                    0.197225
 Thermal correction to Enthalpy=                  0.198169
 Thermal correction to Gibbs Free Energy=         0.141641
 Sum of electronic and zero-point Energies=          -1203.830536
 Sum of electronic and thermal Energies=             -1203.816763
 Sum of electronic and thermal Enthalpies=           -1203.815819
 Sum of electronic and thermal Free Energies=        -1203.872347

                     E (Thermal)             CV                S
                      KCal/Mol        Cal/Mol-Kelvin    Cal/Mol-Kelvin
 Total                  123.760             55.541            118.973
 Electronic               0.000              0.000              1.377
 Translational            0.889              2.981             42.532
 Rotational               0.889              2.981             33.236
 Vibrational            121.983             49.579             41.827
 Vibration     1          0.593              1.984              5.930
 Vibration     2          0.596              1.977              4.749
 Vibration     3          0.602              1.954              3.587
 Vibration     4          0.623              1.886              2.500
 Vibration     5          0.627              1.875              2.394
 Vibration     6          0.634              1.851              2.210
 Vibration     7          0.648              1.809              1.952
 Vibration     8          0.670              1.740              1.638
 Vibration     9          0.677              1.720              1.566
 Vibration    10          0.721              1.592              1.204
 Vibration    11          0.725              1.580              1.176
 Vibration    12          0.755              1.500              1.015
 Vibration    13          0.767              1.466              0.956
 Vibration    14          0.776              1.444              0.919
 Vibration    15          0.777              1.440              0.913
 Vibration    16          0.800              1.382              0.826
 Vibration    17          0.823              1.326              0.750
 Vibration    18          0.854              1.254              0.663
 Vibration    19          0.859              1.243              0.650
 Vibration    20          0.864              1.229              0.635
 Vibration    21          0.919              1.112              0.518
 Vibration    22          0.934              1.079              0.489
 Vibration    23          0.977              0.995              0.420

                           ! Non-Optimized Parameters !
 Normal termination of Gaussian 16 at Wed Dec 27 20:43:09 2023.
