 Gaussian 16, Revision A.03,
 Gaussian 16:  ES64L-G16RevA.03 25-Dec-2016

 ----------------------------------------------------------------------
 #P UB3LYP/6-311++G(d,p) nosym opt freq SCRF=(PCM,Solvent=n,n-DiMethylF
 ormamide)
 ----------------------------------------------------------------------

 -------
 Reduced
 -------
 Symbolic Z-matrix:
 Charge = -2 Multiplicity = 1

 SCF Done:  E(UB3LYP) =  -819.803466859     A.U. after   17 cycles
 SCF Done:  E(UB3LYP) =  -819.804605987     A.U. after   13 cycles
 SCF Done:  E(UB3LYP) =  -819.804862950     A.U. after   14 cycles
 SCF Done:  E(UB3LYP) =  -819.805059731     A.U. after   13 cycles
 SCF Done:  E(UB3LYP) =  -819.805107882     A.U. after   12 cycles
 SCF Done:  E(UB3LYP) =  -819.805135976     A.U. after   11 cycles
 SCF Done:  E(UB3LYP) =  -819.805141438     A.U. after   11 cycles
 SCF Done:  E(UB3LYP) =  -819.805143817     A.U. after   10 cycles
 SCF Done:  E(UB3LYP) =  -819.805144727     A.U. after   10 cycles
 SCF Done:  E(UB3LYP) =  -819.805145002     A.U. after   10 cycles
 SCF Done:  E(UB3LYP) =  -819.805145078     A.U. after    9 cycles
 Optimization completed.
    -- Stationary point found.
 Normal termination of Gaussian 16 at Sat Feb 10 19:42:34 2024.

 ----------------------------------------------------------------------
 #P Geom=AllCheck Guess=TCheck SCRF=Check GenChk UB3LYP/6-311++G(d,p) F
 req
 ----------------------------------------------------------------------

 Structure from the checkpoint file:  "181-an.chk"
 -------
 Reduced
 -------
 Charge = -2 Multiplicity = 1

                          Input orientation:
 ---------------------------------------------------------------------
 Center     Atomic      Atomic             Coordinates (Angstroms)
 Number     Number       Type             X           Y           Z
 ---------------------------------------------------------------------
      1          7           0       -2.571152   -2.263483    0.635621
      2          6           0       -2.343106   -0.937886    0.219193
      3          6           0       -3.414595   -0.098667    0.005670
      4          6           0       -3.212378    1.270233   -0.295607
      5          6           0       -1.948488    1.802249   -0.365952
      6          8           0       -1.825410    3.164975   -0.622464
      7          6           0       -0.769633    0.990378   -0.183800
      8          6           0        0.561982    1.545492   -0.280833
      9          8           0        0.821795    2.789905   -0.531682
     10          6           0        1.651487    0.615201   -0.082941
     11          6           0        2.991232    1.091792   -0.123239
     12          6           0        4.075092    0.258282    0.040806
     13          6           0        3.864755   -1.131581    0.255482
     14          6           0        2.581975   -1.627866    0.296956
     15          6           0        1.439504   -0.790083    0.138577
     16          6           0        0.124527   -1.357920    0.194281
     17          8           0       -0.012463   -2.662997    0.326314
     18          6           0       -0.981830   -0.445069    0.087120
     19          1           0       -3.424843   -2.664445    0.269902
     20          1           0       -1.720742   -2.824819    0.493931
     21          1           0       -4.425507   -0.483292    0.105955
     22          1           0       -4.073237    1.916690   -0.450498
     23          1           0       -2.722586    3.512950   -0.694100
     24          1           0        3.131574    2.153096   -0.292375
     25          1           0        5.084550    0.656920    0.007099
     26          1           0        4.713963   -1.795545    0.387087
     27          1           0        2.403536   -2.684509    0.459500
 ---------------------------------------------------------------------

 SCF Done:  E(UB3LYP) =  -819.805145078     A.U. after    1 cycles

 Alpha  occ. eigenvalues --  -19.12440 -19.02002 -19.01183 -14.27341 -10.20180
 Alpha  occ. eigenvalues --  -10.18039 -10.17630 -10.17436 -10.14905 -10.14789
 Alpha  occ. eigenvalues --  -10.14542 -10.14505 -10.14411 -10.14371 -10.13977
 Alpha  occ. eigenvalues --  -10.13602 -10.13462 -10.13404  -1.03111  -0.93432
 Alpha  occ. eigenvalues --   -0.92720  -0.87588  -0.82456  -0.80054  -0.75104
 Alpha  occ. eigenvalues --   -0.72160  -0.70710  -0.69419  -0.63648  -0.60937
 Alpha  occ. eigenvalues --   -0.59698  -0.55968  -0.53493  -0.51879  -0.50838
 Alpha  occ. eigenvalues --   -0.47836  -0.46311  -0.44050  -0.43485  -0.42501
 Alpha  occ. eigenvalues --   -0.41400  -0.40076  -0.39564  -0.39202  -0.37291
 Alpha  occ. eigenvalues --   -0.36431  -0.35905  -0.35514  -0.34660  -0.34058
 Alpha  occ. eigenvalues --   -0.33653  -0.31647  -0.31329  -0.30524  -0.30015
 Alpha  occ. eigenvalues --   -0.26173  -0.22769  -0.22145  -0.21560  -0.20087
 Alpha  occ. eigenvalues --   -0.18756  -0.17619  -0.10366
 Alpha virt. eigenvalues --   -0.01920   0.00063   0.00167   0.00641   0.01113
 Alpha virt. eigenvalues --    0.02310   0.02447   0.03078   0.03950   0.04726
 Alpha virt. eigenvalues --    0.04884   0.05326   0.06561   0.06712   0.06786

  Beta  occ. eigenvalues --  -19.12440 -19.02002 -19.01183 -14.27341 -10.20180
  Beta  occ. eigenvalues --  -10.18039 -10.17630 -10.17436 -10.14905 -10.14789
  Beta  occ. eigenvalues --  -10.14542 -10.14505 -10.14411 -10.14371 -10.13977
  Beta  occ. eigenvalues --  -10.13602 -10.13462 -10.13404  -1.03111  -0.93432
  Beta  occ. eigenvalues --   -0.92720  -0.87588  -0.82456  -0.80054  -0.75104
  Beta  occ. eigenvalues --   -0.72160  -0.70710  -0.69419  -0.63648  -0.60937
  Beta  occ. eigenvalues --   -0.59698  -0.55968  -0.53493  -0.51879  -0.50838
  Beta  occ. eigenvalues --   -0.47836  -0.46311  -0.44050  -0.43485  -0.42501
  Beta  occ. eigenvalues --   -0.41400  -0.40076  -0.39564  -0.39202  -0.37291
  Beta  occ. eigenvalues --   -0.36431  -0.35905  -0.35514  -0.34660  -0.34058
  Beta  occ. eigenvalues --   -0.33653  -0.31647  -0.31329  -0.30524  -0.30015
  Beta  occ. eigenvalues --   -0.26173  -0.22769  -0.22145  -0.21560  -0.20087
  Beta  occ. eigenvalues --   -0.18756  -0.17619  -0.10366
  Beta virt. eigenvalues --   -0.01920   0.00063   0.00167   0.00641   0.01113
  Beta virt. eigenvalues --    0.02310   0.02447   0.03078   0.03950   0.04726
  Beta virt. eigenvalues --    0.04884   0.05326   0.06561   0.06712   0.06786

 Mulliken charges and spin densities:
               1          2
     1  N   -0.459868   0.000000
     2  C    0.001532   0.000000
     3  C   -0.287484  -0.000000
     4  C   -0.303665   0.000000
     5  C   -0.316303   0.000000
     6  O   -0.269315  -0.000000
     7  C    0.414551  -0.000000
     8  C   -0.347332  -0.000000
     9  O   -0.659205   0.000000
    10  C   -0.017122  -0.000000
    11  C    0.031924   0.000000
    12  C   -0.516334   0.000000
    13  C   -0.558032   0.000000
    14  C    0.093911   0.000000
    15  C    0.104113  -0.000000
    16  C   -0.402631   0.000000
    17  O   -0.646805  -0.000000
    18  C    0.444360   0.000000
    19  H    0.238595   0.000000
    20  H    0.303258  -0.000000
    21  H    0.143636   0.000000
    22  H    0.131114  -0.000000
    23  H    0.274291   0.000000
    24  H    0.141414  -0.000000
    25  H    0.155682  -0.000000
    26  H    0.154540   0.000000
    27  H    0.151178  -0.000000
 Sum of Mulliken charges =  -2.00000   0.00000

 Dipole moment (field-independent basis, Debye):
    X=             -4.1062    Y=             -2.1122    Z=             -0.3163  Tot=              4.6284
 Quadrupole moment (field-independent basis, Debye-Ang):
   XX=           -124.5659   YY=           -163.3288   ZZ=           -121.3019
   XY=             -9.2296   XZ=              5.4690   YZ=             10.4525

  Exact polarizability: 573.565 -19.008 386.949   8.557 -43.131 169.961
 Approx polarizability: 632.596 -19.920 464.389  10.288 -53.451 188.328

                      1                      2                      3
                      A                      A                      A
 Frequencies --     37.4078                44.0537                93.9794
 Red. masses --      6.3692                 7.5186                 5.0316
 Frc consts  --      0.0053                 0.0086                 0.0262
 IR Inten    --      1.7785                33.1375                 3.8883

                      4                      5                      6
                      A                      A                      A
 Frequencies --    131.4258               174.0453               217.1560
 Red. masses --      4.2912                 7.3137                 5.2938
 Frc consts  --      0.0437                 0.1305                 0.1471
 IR Inten    --      0.0857                 0.5619                29.5582

                      7                      8                      9
                      A                      A                      A
 Frequencies --    257.1533               314.8946               321.9341
 Red. masses --      4.4011                 6.2535                 1.8436
 Frc consts  --      0.1715                 0.3653                 0.1126
 IR Inten    --     13.9592                10.2836                28.9660

                     10                     11                     12
                      A                      A                      A
 Frequencies --    338.4898               359.4790               371.0433
 Red. masses --      4.4044                10.1434                 1.8625
 Frc consts  --      0.2973                 0.7723                 0.1511
 IR Inten    --     13.7562                 5.6017               131.0993

                     13                     14                     15
                      A                      A                      A
 Frequencies --    390.1569               409.3526               418.0462
 Red. masses --      8.0133                 5.9904                 7.8758
 Frc consts  --      0.7187                 0.5914                 0.8110
 IR Inten    --      0.1312                25.8910                15.3843

                     16                     17                     18
                      A                      A                      A
 Frequencies --    433.2365               447.0745               470.8726
 Red. masses --      1.4913                 2.8791                 5.8878
 Frc consts  --      0.1649                 0.3390                 0.7692
 IR Inten    --    180.4489                35.1246                21.8107

                     19                     20                     21
                      A                      A                      A
 Frequencies --    491.4302               496.1745               515.5157
 Red. masses --      4.6639                 4.5848                 8.3521
 Frc consts  --      0.6636                 0.6650                 1.3078
 IR Inten    --      6.2683                 3.6772                 3.3325

                     22                     23                     24
                      A                      A                      A
 Frequencies --    587.8990               597.4852               623.8344
 Red. masses --      4.7227                 3.1304                 4.2265
 Frc consts  --      0.9617                 0.6584                 0.9691
 IR Inten    --    120.4588                78.8292                 2.8157

                     25                     26                     27
                      A                      A                      A
 Frequencies --    652.4584               704.4803               712.8219
 Red. masses --      6.4295                 5.9296                 2.1037
 Frc consts  --      1.6126                 1.7339                 0.6298
 IR Inten    --      2.5463                 2.9851                22.2647

                     28                     29                     30
                      A                      A                      A
 Frequencies --    731.4507               752.5839               763.2720
 Red. masses --      4.9244                 5.3815                 1.5603
 Frc consts  --      1.5523                 1.7958                 0.5356
 IR Inten    --     23.9159               222.0943               135.0478

                     31                     32                     33
                      A                      A                      A
 Frequencies --    779.4015               801.7470               814.2372
 Red. masses --      2.1795                 3.6693                 1.3848
 Frc consts  --      0.7801                 1.3897                 0.5409
 IR Inten    --     32.1480                 8.9987               106.2256

                     34                     35                     36
                      A                      A                      A
 Frequencies --    827.4913               850.3059               855.8489
 Red. masses --      1.7727                 6.5647                 1.7144
 Frc consts  --      0.7152                 2.7965                 0.7399
 IR Inten    --    213.8077               128.9854                 0.7465

                     37                     38                     39
                      A                      A                      A
 Frequencies --    894.8591               945.3538               977.2021
 Red. masses --      5.6510                 6.3317                 1.3571
 Frc consts  --      2.6662                 3.3339                 0.7635
 IR Inten    --    206.8024               174.9866                 3.5853

                     40                     41                     42
                      A                      A                      A
 Frequencies --    982.8954              1015.3391              1046.3851
 Red. masses --      1.2492                 2.2480                 2.5924
 Frc consts  --      0.7110                 1.3654                 1.6724
 IR Inten    --      0.4820                95.9931               259.9922

                     43                     44                     45
                      A                      A                      A
 Frequencies --   1094.6557              1113.4721              1151.3011
 Red. masses --      2.7216                 1.7790                 1.9971
 Frc consts  --      1.9214                 1.2996                 1.5596
 IR Inten    --    266.9005               638.9765                93.8430

                     46                     47                     48
                      A                      A                      A
 Frequencies --   1160.5500              1173.9385              1198.9972
 Red. masses --      1.6550                 1.6902                 1.7282
 Frc consts  --      1.3134                 1.3724                 1.4638
 IR Inten    --    179.4863               253.6457               135.4727

                     49                     50                     51
                      A                      A                      A
 Frequencies --   1215.4669              1226.9977              1253.5935
 Red. masses --      2.2912                 2.0716                 2.3348
 Frc consts  --      1.9944                 1.8375                 2.1618
 IR Inten    --    242.4160               175.6825               123.9772

                     52                     53                     54
                      A                      A                      A
 Frequencies --   1260.7311              1272.3321              1346.4906
 Red. masses --      3.6067                 5.0544                 7.3079
 Frc consts  --      3.3776                 4.8208                 7.8064
 IR Inten    --     39.2774                84.7343               475.2578

                     55                     56                     57
                      A                      A                      A
 Frequencies --   1351.6052              1387.7373              1431.4532
 Red. masses --      3.9978                 2.0402                 6.5198
 Frc consts  --      4.3030                 2.3149                 7.8712
 IR Inten    --   2528.4713                75.5781                31.4236

                     58                     59                     60
                      A                      A                      A
 Frequencies --   1446.9655              1467.3924              1478.5471
 Red. masses --      2.6214                 2.8055                 2.7580
 Frc consts  --      3.2337                 3.5592                 3.5524
 IR Inten    --    194.4759               292.7240                31.4479

                     61                     62                     63
                      A                      A                      A
 Frequencies --   1491.7007              1543.1048              1578.4011
 Red. masses --      4.0688                 4.7621                 1.2968
 Frc consts  --      5.3344                 6.6809                 1.9035
 IR Inten    --     27.2585               176.0662               300.6832

                     64                     65                     66
                      A                      A                      A
 Frequencies --   1595.3318              1607.0754              1612.2709
 Red. masses --      7.4797                 5.4503                 4.6181
 Frc consts  --     11.2159                 8.2937                 7.0728
 IR Inten    --     34.7706                 4.1072               248.2421

                     67                     68                     69
                      A                      A                      A
 Frequencies --   3123.5586              3138.2122              3146.9485
 Red. masses --      1.0865                 1.0849                 1.0924
 Frc consts  --      6.2454                 6.2949                 6.3742
 IR Inten    --     87.5230                27.8819                67.0253

                     70                     71                     72
                      A                      A                      A
 Frequencies --   3154.3175              3175.8514              3179.4727
 Red. masses --      1.0899                 1.0909                 1.0930
 Frc consts  --      6.3895                 6.4829                 6.5101
 IR Inten    --     43.3044                34.9563                80.9959

                     73                     74                     75
                      A                      A                      A
 Frequencies --   3230.1192              3584.0693              3788.8621
 Red. masses --      1.0686                 1.0813                 1.0656
 Frc consts  --      6.5693                 8.1838                 9.0126
 IR Inten    --    444.8131                22.0553                42.6318

 - Thermochemistry -
 -------------------
 Temperature   298.150 Kelvin.  Pressure   1.00000 Atm.
 Atom     1 has atomic number  7 and mass  14.00307

 Molecular mass:   239.05824 amu.
 Principal axes and moments of inertia in atomic units:
                           1         2         3
     Eigenvalues --  2617.206704703.582147310.41601
           X            0.98725   0.15908  -0.00543
           Y           -0.15538   0.97054   0.18414
           Z            0.03457  -0.18094   0.98289
 This molecule is an asymmetric top.
 Rotational symmetry number  1.
 Warning -- assumption of classical behavior for rotation
           may cause significant error
 Rotational temperatures (Kelvin)      0.03309     0.01841     0.01185
 Rotational constants (GHZ):           0.68957     0.38370     0.24687
 Zero-point vibrational energy     512191.9 (Joules/Mol)
                                  122.41680 (Kcal/Mol)
 Warning -- explicit consideration of  23 degrees of freedom as
           vibrations may cause significant error
 Vibrational temperatures:     53.82    63.38   135.22   189.09   250.41
          (Kelvin)            312.44   369.99   453.06   463.19   487.01
                              517.21   533.85   561.35   588.97   601.48
                              623.33   643.24   677.48   707.06   713.88
                              741.71   845.86   859.65   897.56   938.74
                             1013.59  1025.59  1052.39  1082.80  1098.18
                             1121.38  1153.54  1171.51  1190.58  1223.40
                             1231.38  1287.50  1360.15  1405.98  1414.17
                             1460.85  1505.51  1574.97  1602.04  1656.47
                             1669.77  1689.04  1725.09  1748.79  1765.38
                             1803.64  1813.91  1830.60  1937.30  1944.66
                             1996.64  2059.54  2081.86  2111.25  2127.30
                             2146.22  2220.18  2270.97  2295.33  2312.22
                             2319.70  4494.10  4515.19  4527.76  4538.36
                             4569.34  4574.55  4647.42  5156.68  5451.33

 Zero-point correction=                           0.195084 (Hartree/Particle)
 Thermal correction to Energy=                    0.208952
 Thermal correction to Enthalpy=                  0.209897
 Thermal correction to Gibbs Free Energy=         0.154344
 Sum of electronic and zero-point Energies=           -819.610061
 Sum of electronic and thermal Energies=              -819.596193
 Sum of electronic and thermal Enthalpies=            -819.595248
 Sum of electronic and thermal Free Energies=         -819.650801

                     E (Thermal)             CV                S
                      KCal/Mol        Cal/Mol-Kelvin    Cal/Mol-Kelvin
 Total                  131.120             56.779            116.921
 Electronic               0.000              0.000              0.000
 Translational            0.889              2.981             42.316
 Rotational               0.889              2.981             32.865
 Vibrational            129.342             50.818             41.740
 Vibration     1          0.594              1.982              5.392
 Vibration     2          0.595              1.980              5.068
 Vibration     3          0.603              1.953              3.575
 Vibration     4          0.612              1.922              2.925
 Vibration     5          0.627              1.874              2.391
 Vibration     6          0.646              1.815              1.983
 Vibration     7          0.667              1.751              1.681
 Vibration     8          0.702              1.645              1.336
 Vibration     9          0.707              1.631              1.300
 Vibration    10          0.719              1.599              1.219
 Vibration    11          0.734              1.556              1.124
 Vibration    12          0.743              1.532              1.075
 Vibration    13          0.758              1.491              1.000
 Vibration    14          0.774              1.450              0.929
 Vibration    15          0.781              1.431              0.899
 Vibration    16          0.794              1.398              0.848
 Vibration    17          0.806              1.367              0.805
 Vibration    18          0.828              1.315              0.735
 Vibration    19          0.847              1.269              0.680
 Vibration    20          0.852              1.259              0.668
 Vibration    21          0.871              1.216              0.620
 Vibration    22          0.945              1.058              0.471
 Vibration    23          0.955              1.037              0.454

                           ! Non-Optimized Parameters !
 Normal termination of Gaussian 16 at Sat Feb 10 20:57:44 2024.
