 Gaussian 16, Revision A.03,
 Gaussian 16:  ES64L-G16RevA.03 25-Dec-2016

 ----------------------------------------------------------------------
 #P UB3LYP/6-311++G(d,p) nosym opt freq SCRF=(PCM,Solvent=n,n-DiMethylF
 ormamide)
 ----------------------------------------------------------------------

 --------
 Oxidized
 --------
 Symbolic Z-matrix:
 Charge =  0 Multiplicity = 1

 SCF Done:  E(UB3LYP) =  -799.734289025     A.U. after   14 cycles
 SCF Done:  E(UB3LYP) =  -799.734412246     A.U. after   11 cycles
 SCF Done:  E(UB3LYP) =  -799.734479222     A.U. after   11 cycles
 SCF Done:  E(UB3LYP) =  -799.734488361     A.U. after   10 cycles
 SCF Done:  E(UB3LYP) =  -799.734487403     A.U. after    9 cycles
 SCF Done:  E(UB3LYP) =  -799.734487548     A.U. after   10 cycles
 SCF Done:  E(UB3LYP) =  -799.734489019     A.U. after    9 cycles
 Optimization completed.
    -- Stationary point found.
 Normal termination of Gaussian 16 at Sat Feb 10 16:32:14 2024.

 ----------------------------------------------------------------------
 #P Geom=AllCheck Guess=TCheck SCRF=Check GenChk UB3LYP/6-311++G(d,p) F
 req
 ----------------------------------------------------------------------

 Structure from the checkpoint file:  "167.chk"
 --------
 Oxidized
 --------
 Charge =  0 Multiplicity = 1

                          Input orientation:
 ---------------------------------------------------------------------
 Center     Atomic      Atomic             Coordinates (Angstroms)
 Number     Number       Type             X           Y           Z
 ---------------------------------------------------------------------
      1          7           0        3.589219   -1.275395   -0.029835
      2          6           0        2.892558   -0.118914   -0.143091
      3          6           0        3.598317    1.095245   -0.337666
      4          6           0        2.930581    2.294467   -0.454455
      5          6           0        1.531711    2.347089   -0.383606
      6          6           0        0.808478    1.179396   -0.194239
      7          6           0       -0.681529    1.290007   -0.126104
      8          8           0       -1.210291    2.407588   -0.237379
      9          6           0       -1.464882    0.074385    0.070530
     10          6           0       -2.892530    0.118975    0.143563
     11          7           0       -3.589126    1.275571    0.031259
     12          6           0       -3.598315   -1.095241    0.337714
     13          6           0       -2.930597   -2.294501    0.454193
     14          6           0       -1.531720   -2.347113    0.383443
     15          6           0       -0.808469   -1.179386    0.194362
     16          6           0        0.681541   -1.289991    0.126279
     17          8           0        1.210307   -2.407563    0.237613
     18          6           0        1.464907   -0.074341   -0.070162
     19          1           0        3.081831   -2.140492    0.095176
     20          1           0        4.593220   -1.271915   -0.104923
     21          1           0        4.680921    1.062933   -0.392838
     22          1           0        3.496614    3.207138   -0.602818
     23          1           0        1.004577    3.286555   -0.474562
     24          1           0       -4.593313    1.271780    0.103756
     25          1           0       -3.081845    2.140466   -0.095556
     26          1           0       -4.680920   -1.062929    0.392873
     27          1           0       -3.496647   -3.207211    0.602247
     28          1           0       -1.004598   -3.286603    0.474226
 ---------------------------------------------------------------------

 SCF Done:  E(UB3LYP) =  -799.734489019     A.U. after    2 cycles

 Alpha  occ. eigenvalues --  -19.11941 -19.11941 -14.33465 -14.33465 -10.27350
 Alpha  occ. eigenvalues --  -10.27350 -10.24693 -10.24693 -10.20299 -10.20298
 Alpha  occ. eigenvalues --  -10.19764 -10.19763 -10.19515 -10.19515 -10.18935
 Alpha  occ. eigenvalues --  -10.18935 -10.18272 -10.18272  -1.05219  -1.05010
 Alpha  occ. eigenvalues --   -0.94476  -0.94421  -0.87473  -0.85858  -0.80656
 Alpha  occ. eigenvalues --   -0.76739  -0.75872  -0.75018  -0.68389  -0.66402
 Alpha  occ. eigenvalues --   -0.65073  -0.61304  -0.58852  -0.58333  -0.55483
 Alpha  occ. eigenvalues --   -0.53670  -0.52641  -0.51148  -0.49642  -0.48802
 Alpha  occ. eigenvalues --   -0.47375  -0.46436  -0.46392  -0.45232  -0.44835
 Alpha  occ. eigenvalues --   -0.43233  -0.42504  -0.41820  -0.40154  -0.38971
 Alpha  occ. eigenvalues --   -0.38746  -0.38167  -0.38112  -0.36739  -0.33544
 Alpha  occ. eigenvalues --   -0.32918  -0.28560  -0.28076  -0.27296  -0.26909
 Alpha  occ. eigenvalues --   -0.22882  -0.22214
 Alpha virt. eigenvalues --   -0.11133  -0.05567  -0.03275  -0.00660  -0.00576
 Alpha virt. eigenvalues --    0.00007   0.00599   0.01558   0.01658   0.03445
 Alpha virt. eigenvalues --    0.03690   0.03747   0.03939   0.04116   0.04748

  Beta  occ. eigenvalues --  -19.11941 -19.11941 -14.33465 -14.33465 -10.27350
  Beta  occ. eigenvalues --  -10.27350 -10.24693 -10.24693 -10.20299 -10.20298
  Beta  occ. eigenvalues --  -10.19764 -10.19763 -10.19515 -10.19515 -10.18935
  Beta  occ. eigenvalues --  -10.18935 -10.18272 -10.18272  -1.05219  -1.05010
  Beta  occ. eigenvalues --   -0.94476  -0.94421  -0.87473  -0.85858  -0.80656
  Beta  occ. eigenvalues --   -0.76739  -0.75872  -0.75018  -0.68389  -0.66402
  Beta  occ. eigenvalues --   -0.65073  -0.61304  -0.58852  -0.58333  -0.55483
  Beta  occ. eigenvalues --   -0.53670  -0.52641  -0.51148  -0.49642  -0.48802
  Beta  occ. eigenvalues --   -0.47375  -0.46436  -0.46392  -0.45232  -0.44835
  Beta  occ. eigenvalues --   -0.43233  -0.42504  -0.41820  -0.40154  -0.38971
  Beta  occ. eigenvalues --   -0.38746  -0.38167  -0.38112  -0.36739  -0.33544
  Beta  occ. eigenvalues --   -0.32918  -0.28560  -0.28076  -0.27296  -0.26909
  Beta  occ. eigenvalues --   -0.22882  -0.22214
  Beta virt. eigenvalues --   -0.11133  -0.05567  -0.03275  -0.00660  -0.00576
  Beta virt. eigenvalues --    0.00007   0.00599   0.01558   0.01658   0.03445
  Beta virt. eigenvalues --    0.03690   0.03747   0.03939   0.04116   0.04748

 Mulliken charges and spin densities:
               1          2
     1  N   -0.431302  -0.000000
     2  C    0.210274   0.000000
     3  C   -0.189565  -0.000000
     4  C   -0.437713  -0.000000
     5  C   -0.093169   0.000000
     6  C    0.586566   0.000000
     7  C   -0.725588   0.000000
     8  O   -0.336221   0.000000
     9  C    0.195747  -0.000000
    10  C    0.210451   0.000000
    11  N   -0.431587  -0.000000
    12  C   -0.189721  -0.000000
    13  C   -0.437669  -0.000000
    14  C   -0.093100  -0.000000
    15  C    0.586630  -0.000000
    16  C   -0.725519   0.000000
    17  O   -0.336213  -0.000000
    18  C    0.195851  -0.000000
    19  H    0.336272   0.000000
    20  H    0.313142  -0.000000
    21  H    0.183731  -0.000000
    22  H    0.207956   0.000000
    23  H    0.179737  -0.000000
    24  H    0.313250  -0.000000
    25  H    0.336343   0.000000
    26  H    0.183725  -0.000000
    27  H    0.207955  -0.000000
    28  H    0.179736  -0.000000
 Sum of Mulliken charges =  -0.00000   0.00000

 Dipole moment (field-independent basis, Debye):
    X=             -0.0011    Y=             -0.0008    Z=             -0.0081  Tot=              0.0082
 Quadrupole moment (field-independent basis, Debye-Ang):
   XX=            -58.6152   YY=           -106.9869   ZZ=           -109.2660
   XY=              5.2779   XZ=             -3.9108   YZ=             -0.4668

  Exact polarizability: 427.312  29.995 340.231 -20.298 -29.106 130.236
 Approx polarizability: 465.536  12.995 422.905 -19.011 -36.062 152.162

                      1                      2                      3
                      A                      A                      A
 Frequencies --     36.1624                51.5697                68.0014
 Red. masses --      6.3030                10.4597                 5.1981
 Frc consts  --      0.0049                 0.0164                 0.0142
 IR Inten    --     23.5241                38.1655                 0.0083

                      4                      5                      6
                      A                      A                      A
 Frequencies --    120.1713               152.0446               200.0611
 Red. masses --      1.7176                 1.9888                 2.5926
 Frc consts  --      0.0146                 0.0271                 0.0611
 IR Inten    --    283.7619                 0.0179               234.4956

                      7                      8                      9
                      A                      A                      A
 Frequencies --    207.6784               216.7827               225.9884
 Red. masses --      1.8569                 4.8365                 2.9650
 Frc consts  --      0.0472                 0.1339                 0.0892
 IR Inten    --      0.0760                 2.3447                49.7365

                     10                     11                     12
                      A                      A                      A
 Frequencies --    263.2831               310.1847               359.1863
 Red. masses --      6.7317                 4.8515                 6.5801
 Frc consts  --      0.2749                 0.2750                 0.5002
 IR Inten    --      0.0007                 0.0005                 0.0000

                     13                     14                     15
                      A                      A                      A
 Frequencies --    389.1210               422.1361               434.6468
 Red. masses --     10.3985                 5.0943                 5.0295
 Frc consts  --      0.9277                 0.5349                 0.5598
 IR Inten    --      0.0000                 3.5302                 0.0000

                     16                     17                     18
                      A                      A                      A
 Frequencies --    447.0577               447.6145               481.5842
 Red. masses --      5.6131                 4.7234                 3.6486
 Frc consts  --      0.6610                 0.5576                 0.4986
 IR Inten    --     67.0559                 0.0001                12.0598

                     19                     20                     21
                      A                      A                      A
 Frequencies --    486.4230               534.6031               543.0782
 Red. masses --      6.4415                 5.5033                 4.7502
 Frc consts  --      0.8980                 0.9267                 0.8254
 IR Inten    --      0.0002                 9.2858                11.4383

                     22                     23                     24
                      A                      A                      A
 Frequencies --    562.7850               595.3165               618.0258
 Red. masses --      3.1020                 6.4175                 5.6296
 Frc consts  --      0.5789                 1.3400                 1.2669
 IR Inten    --      0.0001                 0.0000                 5.6796

                     25                     26                     27
                      A                      A                      A
 Frequencies --    626.6004               632.9408               683.1919
 Red. masses --      1.0508                 1.1310                 4.2124
 Frc consts  --      0.2431                 0.2670                 1.1584
 IR Inten    --     60.3855                 0.0016                 0.0001

                     28                     29                     30
                      A                      A                      A
 Frequencies --    709.5781               720.0965               771.5428
 Red. masses --      6.8845                 2.5752                 1.9581
 Frc consts  --      2.0423                 0.7868                 0.6868
 IR Inten    --      0.0000                45.1765                 0.0002

                     31                     32                     33
                      A                      A                      A
 Frequencies --    776.7967               784.5277               821.2279
 Red. masses --      5.5604                 6.6982                 1.8514
 Frc consts  --      1.9769                 2.4290                 0.7357
 IR Inten    --     60.0791                25.6903                71.3556

                     34                     35                     36
                      A                      A                      A
 Frequencies --    825.6964               866.9337               913.7179
 Red. masses --      2.7934                 7.2872                 6.0023
 Frc consts  --      1.1221                 3.2269                 2.9525
 IR Inten    --      0.0002               110.2667                 0.0000

                     37                     38                     39
                      A                      A                      A
 Frequencies --    914.7855               915.0190               966.7456
 Red. masses --      1.4276                 1.4543                 4.0684
 Frc consts  --      0.7039                 0.7174                 2.2403
 IR Inten    --      0.0002                 0.2568                 0.0000

                     40                     41                     42
                      A                      A                      A
 Frequencies --   1003.0209              1003.0657              1029.8526
 Red. masses --      1.3195                 1.3183                 1.8237
 Frc consts  --      0.7821                 0.7815                 1.1396
 IR Inten    --      0.9766                 0.0082               125.5398

                     43                     44                     45
                      A                      A                      A
 Frequencies --   1059.1419              1069.3344              1108.5922
 Red. masses --      2.0728                 3.1928                 1.7824
 Frc consts  --      1.3700                 2.1510                 1.2907
 IR Inten    --      0.0000                45.6841                 0.0000

                     46                     47                     48
                      A                      A                      A
 Frequencies --   1137.8038              1192.2150              1193.2555
 Red. masses --      1.7731                 1.1956                 1.1815
 Frc consts  --      1.3524                 1.0012                 0.9911
 IR Inten    --     16.8789                 0.0001                68.9827

                     49                     50                     51
                      A                      A                      A
 Frequencies --   1208.0498              1234.1736              1267.4915
 Red. masses --      1.9197                 2.6561                 4.7857
 Frc consts  --      1.6507                 2.3837                 4.5298
 IR Inten    --      0.0000               193.6877              2090.1967

                     52                     53                     54
                      A                      A                      A
 Frequencies --   1313.3959              1346.5275              1374.3646
 Red. masses --      2.3876                 2.9963                 6.4331
 Frc consts  --      2.4266                 3.2009                 7.1594
 IR Inten    --      0.0000                18.8882                 0.0000

                     55                     56                     57
                      A                      A                      A
 Frequencies --   1394.4575              1398.5156              1463.9182
 Red. masses --      5.1475                 6.4298                 2.5339
 Frc consts  --      5.8974                 7.4093                 3.1994
 IR Inten    --      0.0002               186.9793               271.5375

                     58                     59                     60
                      A                      A                      A
 Frequencies --   1474.8475              1479.8064              1484.4257
 Red. masses --      2.9971                 2.6152                 3.3031
 Frc consts  --      3.8410                 3.3741                 4.2883
 IR Inten    --     11.2020                 0.0000                 0.0000

                     61                     62                     63
                      A                      A                      A
 Frequencies --   1564.7800              1567.0662              1591.1320
 Red. masses --      3.2303                 3.4809                 3.9095
 Frc consts  --      4.6602                 5.0364                 5.8316
 IR Inten    --      0.0000               906.1059                 0.0005

                     64                     65                     66
                      A                      A                      A
 Frequencies --   1596.5662              1614.4337              1626.4457
 Red. masses --      1.6448                 1.9984                 6.4477
 Frc consts  --      2.4702                 3.0688                10.0493
 IR Inten    --    640.3695                 0.0001              1152.4901

                     67                     68                     69
                      A                      A                      A
 Frequencies --   1652.5741              1660.7992              3169.4562
 Red. masses --      5.8288                 7.4360                 1.0875
 Frc consts  --      9.3789                12.0844                 6.4365
 IR Inten    --    150.1518                 0.0000                 0.0850

                     70                     71                     72
                      A                      A                      A
 Frequencies --   3169.4804              3185.1389              3185.3099
 Red. masses --      1.0875                 1.0945                 1.0944
 Frc consts  --      6.4365                 6.5421                 6.5424
 IR Inten    --     21.3539                64.7014                 0.0013

                     73                     74                     75
                      A                      A                      A
 Frequencies --   3215.3411              3215.5014              3532.3067
 Red. masses --      1.0921                 1.0921                 1.0500
 Frc consts  --      6.6520                 6.6527                 7.7186
 IR Inten    --      9.7225                 0.0011                 0.4678

                     76                     77                     78
                      A                      A                      A
 Frequencies --   3532.6632              3693.4869              3693.5448
 Red. masses --      1.0498                 1.1017                 1.1017
 Frc consts  --      7.7193                 8.8550                 8.8552
 IR Inten    --    272.8970               216.2276               125.4446

 - Thermochemistry -
 -------------------
 Temperature   298.150 Kelvin.  Pressure   1.00000 Atm.
 Atom     1 has atomic number  7 and mass  14.00307

 Molecular mass:   238.07423 amu.
 Principal axes and moments of inertia in atomic units:
                           1         2         3
     Eigenvalues --  2275.193845075.394747350.57929
           X            0.98270  -0.17704   0.05440
           Y            0.16912   0.97749   0.12610
           Z           -0.07550  -0.11472   0.99052
 This molecule is an asymmetric top.
 Rotational symmetry number  1.
 Warning -- assumption of classical behavior for rotation
           may cause significant error
 Rotational temperatures (Kelvin)      0.03807     0.01707     0.01178
 Rotational constants (GHZ):           0.79323     0.35559     0.24552
 Zero-point vibrational energy     555098.3 (Joules/Mol)
                                  132.67168 (Kcal/Mol)
 Warning -- explicit consideration of  24 degrees of freedom as
           vibrations may cause significant error
 Vibrational temperatures:     52.03    74.20    97.84   172.90   218.76
          (Kelvin)            287.84   298.80   311.90   325.15   378.81
                              446.29   516.79   559.86   607.36   625.36
                              643.22   644.02   692.89   699.85   769.17
                              781.37   809.72   856.53   889.20   901.54
                              910.66   982.96  1020.92  1036.06  1110.08
                             1117.64  1128.76  1181.56  1187.99  1247.32
                             1314.64  1316.17  1316.51  1390.93  1443.12
                             1443.19  1481.73  1523.87  1538.53  1595.02
                             1637.05  1715.33  1716.83  1738.11  1775.70
                             1823.64  1889.68  1937.35  1977.40  2006.31
                             2012.15  2106.25  2121.98  2129.11  2135.76
                             2251.37  2254.66  2289.28  2297.10  2322.81
                             2340.09  2377.69  2389.52  4560.14  4560.18
                             4582.70  4582.95  4626.16  4626.39  5082.20
                             5082.71  5314.10  5314.19

 Zero-point correction=                           0.211426 (Hartree/Particle)
 Thermal correction to Energy=                    0.225914
 Thermal correction to Enthalpy=                  0.226858
 Thermal correction to Gibbs Free Energy=         0.169780
 Sum of electronic and zero-point Energies=           -799.523063
 Sum of electronic and thermal Energies=              -799.508575
 Sum of electronic and thermal Enthalpies=            -799.507631
 Sum of electronic and thermal Free Energies=         -799.564709

                     E (Thermal)             CV                S
                      KCal/Mol        Cal/Mol-Kelvin    Cal/Mol-Kelvin
 Total                  141.763             57.688            120.130
 Electronic               0.000              0.000              0.000
 Translational            0.889              2.981             42.304
 Rotational               0.889              2.981             32.806
 Vibrational            139.985             51.727             45.020
 Vibration     1          0.594              1.982              5.459
 Vibration     2          0.596              1.977              4.756
 Vibration     3          0.598              1.969              4.210
 Vibration     4          0.609              1.932              3.098
 Vibration     5          0.619              1.900              2.646
 Vibration     6          0.638              1.840              2.133
 Vibration     7          0.641              1.829              2.064
 Vibration     8          0.646              1.815              1.986
 Vibration     9          0.650              1.801              1.911
 Vibration    10          0.670              1.740              1.640
 Vibration    11          0.699              1.654              1.361
 Vibration    12          0.734              1.556              1.126
 Vibration    13          0.757              1.493              1.004
 Vibration    14          0.784              1.422              0.885
 Vibration    15          0.795              1.395              0.844
 Vibration    16          0.806              1.367              0.805
 Vibration    17          0.807              1.366              0.803
 Vibration    18          0.838              1.291              0.706
 Vibration    19          0.842              1.280              0.693
 Vibration    20          0.890              1.173              0.577
 Vibration    21          0.898              1.155              0.559
 Vibration    22          0.919              1.112              0.518
 Vibration    23          0.953              1.042              0.458
 Vibration    24          0.978              0.994              0.420

                           ! Non-Optimized Parameters !
 Normal termination of Gaussian 16 at Sat Feb 10 17:56:07 2024.
