 Q-Chem 5.4, Q-Chem, Inc., Pleasanton, CA (2021)
 Q-Chem 5.4.0 for Intel X86 EM64T Linux

User input:
--------------------------------------------------------------
$molecule
-3 1
C                  5.0501380000     -2.8934330000     -0.3568480000
C                  5.8212790000     -2.0439660000     -1.1246940000
C                  5.2650520000     -0.8212910000     -1.5965520000
C                  3.7072170000     -2.5913600000     -0.0153310000
C                  3.1527870000     -1.3371840000     -0.4687320000
C                  3.9657320000     -0.4925660000     -1.2713610000
C                  2.9362350000     -3.5160190000      0.7755660000
C                  1.5821840000     -3.1341760000      1.1117690000
C                  1.0392840000     -1.8787770000      0.6578560000
C                  1.8126910000     -0.9528810000     -0.1335900000
C                  0.7675680000     -4.0215610000      1.9071620000
C                 -0.5432510000     -3.6617940000      2.2295830000
C                 -0.3082010000     -1.5567960000      1.0141700000
C                 -1.0619740000     -2.4297230000      1.7749270000
O                  3.4486960000     -4.6431160000      1.1766470000
O                  1.3050690000      0.1828300000     -0.5381670000
O                  1.2963610000     -5.1887650000      2.3259370000
H                  5.4488500000     -3.8326530000      0.0122350000
H                  6.8491760000     -2.3026680000     -1.3757790000
H                  5.8698840000     -0.1527780000     -2.2089780000
H                  2.2394320000     -5.1880630000      1.9521710000
O                 -0.8555140000     -0.3725450000      0.5951600000
H                 -2.0803100000     -2.1729910000      2.0363430000
H                 -0.0992700000      0.0621680000      0.0685150000
H                  3.5184490000      0.4338650000     -1.6163700000
S                 -1.6602240000     -4.7206970000      3.2378390000
O                 -1.8308010000     -6.0063670000      2.4993230000
O                 -1.0201490000     -4.8830410000      4.5763590000
O                 -2.9399690000     -3.9412650000      3.3158120000
$end
$rem
MAX_SCF_CYCLES=200
BASIS  =  6-311++G(d,p)
GUI  =  2
JOB_TYPE  =  SP
METHOD  =  B3LYP
SOLVENT_METHOD = COSMO
$end
$solvent
dielectric 37.219
opticaldielectric 1.43
$end

--------------------------------------------------------------

             Standard Nuclear Orientation (Angstroms)
    I     Atom           X                Y                Z
 ----------------------------------------------------------------
    1      C       3.7379481901    -1.8559306072     0.0208200458
    2      C       5.0579321270    -1.4516736971     0.0131478484
    3      C       5.3687241920    -0.0626144581    -0.0167741501
    4      C       2.6650460572    -0.9287025868    -0.0003455461
    5      C       2.9803584800     0.4807301355    -0.0002560368
    6      C       4.3479700366     0.8647631183    -0.0253508318
    7      C       1.3031859175    -1.3979772412    -0.0069662601
    8      C       0.2565658271    -0.3995600963    -0.0006231045
    9      C       0.5813779544     1.0044645614     0.0033660489
   10      C       1.9458556950     1.4734769815     0.0108764784
   11      C      -1.1257514924    -0.8153724443    -0.0011794443
   12      C      -2.1413548733     0.1438893386    -0.0019861479
   13      C      -0.4945995715     1.9471296616     0.0019070116
   14      C      -1.8071783636     1.5157894238    -0.0010945972
   15      O       1.0338762956    -2.6712806933    -0.0077005047
   16      O       2.2240863594     2.7516707232     0.0141284601
   17      O      -1.4078454532    -2.1336214974     0.0002856138
   18      H       3.4741423396    -2.9082462695     0.0399498245
   19      H       5.8628266883    -2.1855199763     0.0256789388
   20      H       6.4101604298     0.2583614442    -0.0302655430
   21      H      -0.5002503819    -2.5867799777    -0.0014478688
   22      O      -0.2195959145     3.2894948515     0.0017781313
   23      H      -2.6109155978     2.2405387031    -0.0027662047
   24      H       0.7988680685     3.3204072735     0.0050756231
   25      H       4.5574396354     1.9292165886    -0.0460628266
   26      S      -3.9311339400    -0.2829293233    -0.0009231709
   27      O      -4.1969752682    -1.0627502245    -1.2453738507
   28      O      -4.1980632835    -1.0501294598     1.2512110258
   29      O      -4.6293088853     1.0451686564    -0.0079087624
 ----------------------------------------------------------------

   34   -1462.6866023835      9.96e-06  Convergence criterion met
 Total energy in the final basis set =    -1462.6866023835
    6   -1463.2039117253      2.90e-06  Convergence criterion met
 Total energy in the final basis set =    -1463.2039117253

                    Orbital Energies (a.u.)
 --------------------------------------------------------------

 Alpha MOs
 -- Occupied --
-89.0375 -19.1102 -19.1053 -19.0827 -19.0826 -19.0811 -19.0502 -19.0472
-10.2178 -10.2047 -10.1955 -10.1914 -10.1686 -10.1559 -10.1555 -10.1550
-10.1539 -10.1536 -10.1527 -10.1489 -10.1485 -10.1431  -8.0959  -6.0588
 -6.0587  -6.0574  -1.0970  -1.0345  -1.0221  -0.9635  -0.9628  -0.9596
 -0.9567  -0.8378  -0.8230  -0.7675  -0.7328  -0.7233  -0.7108  -0.6566
 -0.6290  -0.6117  -0.5875  -0.5670  -0.5485  -0.5181  -0.5049  -0.4977
 -0.4835  -0.4677  -0.4469  -0.4460  -0.4442  -0.4365  -0.4152  -0.4119
 -0.4049  -0.3997  -0.3924  -0.3901  -0.3805  -0.3779  -0.3712  -0.3556
 -0.3379  -0.3349  -0.3344  -0.3276  -0.3252  -0.3234  -0.3131  -0.3007
 -0.2861  -0.2815  -0.2791  -0.2491  -0.2416  -0.2392  -0.2329  -0.2265
 -0.2204  -0.1923  -0.1197

          Ground-State Mulliken Net Atomic Charges

     Atom                 Charge (a.u.)
  ----------------------------------------
      1 C                    -0.123372
      2 C                    -0.480891
      3 C                    -0.522547
      4 C                     0.177287
      5 C                     0.094888
      6 C                    -0.109929
      7 C                    -0.244046
      8 C                     0.285714
      9 C                     0.755786
     10 C                    -0.292612
     11 C                    -0.512440
     12 C                    -0.363935
     13 C                    -0.372979
     14 C                    -0.255385
     15 O                    -0.671862
     16 O                    -0.688775
     17 O                    -0.433570
     18 H                     0.165913
     19 H                     0.188299
     20 H                     0.186608
     21 H                     0.418110
     22 O                    -0.495908
     23 H                     0.224268
     24 H                     0.386821
     25 H                     0.169935
     26 S                     0.824745
     27 O                    -0.433859
     28 O                    -0.435597
     29 O                    -0.440669
  ----------------------------------------
  Sum of atomic charges =    -3.000000

                    Cartesian Multipole Moments
 -----------------------------------------------------------------
    Charge (ESU x 10^10)
               -14.4096
    Dipole Moment (Debye)
         X      16.1950      Y      -0.1501      Z      -0.0164
       Tot      16.1957
    Quadrupole Moments (Debye-Ang)
        XX    -294.0210     XY     -17.1671     YY    -208.8849
        XZ      -0.1293     YZ      -0.3166     ZZ    -155.3729

 Total job time:  231.40s(wall), 1767.88s(cpu)
        *  Thank you very much for using Q-Chem.  Have a nice day.  *
