 Q-Chem 5.4, Q-Chem, Inc., Pleasanton, CA (2021)
 Q-Chem 5.4.0 for Intel X86 EM64T Linux

User input:
--------------------------------------------------------------
$molecule
0 1
O                  0.1245830000      0.4111350000      2.6509660000
C                  0.0678470000      0.2238980000      1.4432210000
C                 -1.2096040000      0.1119060000      0.7087730000
C                 -2.4408460000      0.2174090000      1.3770760000
C                 -3.6329730000      0.1114660000      0.6838320000
C                 -3.6144560000     -0.1038480000     -0.7028260000
C                 -2.4141800000     -0.2116300000     -1.3863480000
C                 -1.2155790000     -0.1030050000     -0.6760010000
O                 -0.0661920000     -0.2179290000     -1.4064430000
C                  1.1469450000     -0.1231330000     -0.7838510000
C                  2.2735480000     -0.2514500000     -1.6007390000
C                  3.5328830000     -0.1648550000     -1.0294600000
C                  3.6814700000      0.0485850000      0.3495050000
C                  2.5595500000      0.1742170000      1.1487350000
C                  1.2710110000      0.0905180000      0.5955720000
H                 -2.4172350000      0.3835040000      2.4474160000
H                 -4.5781410000      0.1939840000      1.2068550000
H                 -4.5468360000     -0.1874460000     -1.2495290000
H                 -2.3788870000     -0.3777220000     -2.4559490000
H                  2.1382170000     -0.4158250000     -2.6625600000
H                  4.4100730000     -0.2637240000     -1.6587370000
H                  4.6717940000      0.1143500000      0.7838790000
H                  2.6370070000      0.3395930000      2.2166140000
$end
$rem
MAX_SCF_CYCLES=200
BASIS  =  6-311++G(d,p)
GUI  =  2
JOB_TYPE  =  SP
METHOD  =  B3LYP
SOLVENT_METHOD = PCM
$end
$pcm
theory = CPCM
$end
$solvent
dielectric 37.219
opticaldielectric 1.43
$end

--------------------------------------------------------------

             Standard Nuclear Orientation (Angstroms)
    I     Atom           X                Y                Z
 ----------------------------------------------------------------
    1      O       0.1245830000     0.4111350000     2.6509660000
    2      C       0.0678470000     0.2238980000     1.4432210000
    3      C      -1.2096040000     0.1119060000     0.7087730000
    4      C      -2.4408460000     0.2174090000     1.3770760000
    5      C      -3.6329730000     0.1114660000     0.6838320000
    6      C      -3.6144560000    -0.1038480000    -0.7028260000
    7      C      -2.4141800000    -0.2116300000    -1.3863480000
    8      C      -1.2155790000    -0.1030050000    -0.6760010000
    9      O      -0.0661920000    -0.2179290000    -1.4064430000
   10      C       1.1469450000    -0.1231330000    -0.7838510000
   11      C       2.2735480000    -0.2514500000    -1.6007390000
   12      C       3.5328830000    -0.1648550000    -1.0294600000
   13      C       3.6814700000     0.0485850000     0.3495050000
   14      C       2.5595500000     0.1742170000     1.1487350000
   15      C       1.2710110000     0.0905180000     0.5955720000
   16      H      -2.4172350000     0.3835040000     2.4474160000
   17      H      -4.5781410000     0.1939840000     1.2068550000
   18      H      -4.5468360000    -0.1874460000    -1.2495290000
   19      H      -2.3788870000    -0.3777220000    -2.4559490000
   20      H       2.1382170000    -0.4158250000    -2.6625600000
   21      H       4.4100730000    -0.2637240000    -1.6587370000
   22      H       4.6717940000     0.1143500000     0.7838790000
   23      H       2.6370070000     0.3395930000     2.2166140000
 ----------------------------------------------------------------

    9    -650.8445443040      2.09e-06  Convergence criterion met
 Total energy in the final basis set =     -650.8445443040

                    Orbital Energies (a.u.)
 --------------------------------------------------------------

 Alpha MOs
 -- Occupied --
-19.2054 -19.1163 -10.2743 -10.2659 -10.2659 -10.2003 -10.2003 -10.1962
-10.1961 -10.1938 -10.1938 -10.1915 -10.1915 -10.1867 -10.1867  -1.1271
 -1.0525  -0.8874  -0.8756  -0.8005  -0.7919  -0.7700  -0.7518  -0.6745
 -0.6670  -0.6176  -0.6167  -0.5808  -0.5680  -0.5211  -0.5039  -0.4873
 -0.4843  -0.4840  -0.4544  -0.4509  -0.4458  -0.4450  -0.4179  -0.4122
 -0.3968  -0.3936  -0.3757  -0.3734  -0.3577  -0.3546  -0.2818  -0.2798
 -0.2746  -0.2746  -0.2442

          Ground-State Mulliken Net Atomic Charges

     Atom                 Charge (a.u.)
  ----------------------------------------
      1 O                    -0.365528
      2 C                    -0.313459
      3 C                     1.182844
      4 C                     0.399447
      5 C                    -0.330010
      6 C                    -0.361791
      7 C                    -0.381577
      8 C                    -1.016881
      9 O                    -0.044958
     10 C                    -1.016705
     11 C                    -0.379736
     12 C                    -0.363008
     13 C                    -0.330273
     14 C                     0.399841
     15 C                     1.182934
     16 H                     0.204975
     17 H                     0.213510
     18 H                     0.221389
     19 H                     0.229384
     20 H                     0.229574
     21 H                     0.221416
     22 H                     0.213452
     23 H                     0.205161
  ----------------------------------------
  Sum of atomic charges =     0.000000

                    Cartesian Multipole Moments
 -----------------------------------------------------------------
    Charge (ESU x 10^10)
                 0.0000
    Dipole Moment (Debye)
         X      -0.2136      Y      -0.7079      Z      -4.5755
       Tot       4.6348
    Quadrupole Moments (Debye-Ang)
        XX     -59.9250     XY      -0.2624     YY     -90.4190
        XZ      -1.4206     YZ      -0.0790     ZZ     -90.9540

 Total job time:  32.13s(wall), 238.72s(cpu)
        *  Thank you very much for using Q-Chem.  Have a nice day.  *
