 Gaussian 16, Revision A.03,
 Gaussian 16:  ES64L-G16RevA.03 25-Dec-2016

 ----------------------------------------------------------------------
 #P UB3LYP/6-311++G(d,p) nosym opt freq SCRF=(PCM,Solvent=n,n-DiMethylF
 ormamide)
 ----------------------------------------------------------------------

 -------
 Reduced
 -------
 Symbolic Z-matrix:
 Charge = -2 Multiplicity = 1

 SCF Done:  E(UB3LYP) =  -696.417354729     A.U. after   17 cycles
 SCF Done:  E(UB3LYP) =  -696.421753263     A.U. after   14 cycles
 SCF Done:  E(UB3LYP) =  -696.422399292     A.U. after   14 cycles
 SCF Done:  E(UB3LYP) =  -696.422129313     A.U. after   14 cycles
 SCF Done:  E(UB3LYP) =  -696.422688686     A.U. after   13 cycles
 SCF Done:  E(UB3LYP) =  -696.422697363     A.U. after   13 cycles
 SCF Done:  E(UB3LYP) =  -696.422706587     A.U. after   12 cycles
 SCF Done:  E(UB3LYP) =  -696.422711253     A.U. after   12 cycles
 SCF Done:  E(UB3LYP) =  -696.422713921     A.U. after   12 cycles
 SCF Done:  E(UB3LYP) =  -696.422715600     A.U. after   13 cycles
 SCF Done:  E(UB3LYP) =  -696.422716159     A.U. after   12 cycles
 SCF Done:  E(UB3LYP) =  -696.422716347     A.U. after   10 cycles
 SCF Done:  E(UB3LYP) =  -696.422716352     A.U. after   10 cycles
 Optimization completed.
    -- Stationary point found.
 Normal termination of Gaussian 16 at Sun Feb 11 16:35:50 2024.

 ----------------------------------------------------------------------
 #P Geom=AllCheck Guess=TCheck SCRF=Check GenChk UB3LYP/6-311++G(d,p) F
 req
 ----------------------------------------------------------------------

 Structure from the checkpoint file:  "319-an.chk"
 -------
 Reduced
 -------
 Charge = -2 Multiplicity = 1

                          Input orientation:
 ---------------------------------------------------------------------
 Center     Atomic      Atomic             Coordinates (Angstroms)
 Number     Number       Type             X           Y           Z
 ---------------------------------------------------------------------
      1          6           0       -0.746293    3.152717   -0.008758
      2          6           0       -1.872636    2.356244    0.312623
      3          6           0       -1.873361    0.945214    0.307430
      4          6           0        0.505419    2.451089   -0.366272
      5          6           0        0.485324    1.028491   -0.352900
      6          6           0       -0.684845    0.302005   -0.024707
      7          8           0        1.581498    3.128419   -0.677925
      8          8           0       -0.800884    4.460601    0.013822
      9          6           0        1.753425    0.266200   -0.679083
     10          6           0        2.720643    0.098042    0.509048
     11          6           0        4.019016   -0.634389    0.151541
     12          6           0        4.971445   -0.803987    1.339826
     13          6           0       -3.137160    0.167161    0.617622
     14          6           0       -4.163507    0.111858   -0.531622
     15          6           0       -5.433850   -0.672620   -0.183661
     16          6           0       -6.447143   -0.731644   -1.331277
     17          1           0       -2.788583    2.887078    0.577295
     18          1           0       -0.648009   -0.787494   -0.037137
     19          1           0        2.293472    0.777057   -1.485239
     20          1           0        1.492976   -0.733824   -1.052934
     21          1           0        2.208956   -0.447419    1.313206
     22          1           0        2.960888    1.089090    0.909907
     23          1           0        4.531392   -0.086828   -0.649655
     24          1           0        3.775712   -1.621258   -0.263125
     25          1           0        5.259651    0.167399    1.755034
     26          1           0        5.888303   -1.326953    1.050894
     27          1           0        4.500346   -1.379096    2.143910
     28          1           0       -3.637080    0.597769    1.497130
     29          1           0       -2.870779   -0.861836    0.891714
     30          1           0       -3.688778   -0.338930   -1.412751
     31          1           0       -4.435898    1.134634   -0.819967
     32          1           0       -5.906886   -0.220097    0.696979
     33          1           0       -5.157945   -1.693209    0.110657
     34          1           0       -6.768751    0.272767   -1.625480
     35          1           0       -7.340400   -1.297583   -1.050116
     36          1           0       -6.014179   -1.211502   -2.215116
 ---------------------------------------------------------------------

 SCF Done:  E(UB3LYP) =  -696.422716352     A.U. after    1 cycles

 Alpha  occ. eigenvalues --  -19.00673 -19.00355 -10.15513 -10.15513 -10.15220
 Alpha  occ. eigenvalues --  -10.15118 -10.15100 -10.14947 -10.14850 -10.14587
 Alpha  occ. eigenvalues --  -10.14258 -10.13570 -10.12261 -10.11259 -10.11180
 Alpha  occ. eigenvalues --  -10.10357  -0.92220  -0.89239  -0.79776  -0.78371
 Alpha  occ. eigenvalues --   -0.76975  -0.73122  -0.70550  -0.66497  -0.64979
 Alpha  occ. eigenvalues --   -0.61338  -0.59686  -0.56736  -0.56416  -0.51632
 Alpha  occ. eigenvalues --   -0.50763  -0.46255  -0.45478  -0.42946  -0.42732
 Alpha  occ. eigenvalues --   -0.41874  -0.41580  -0.39847  -0.39242  -0.38340
 Alpha  occ. eigenvalues --   -0.37888  -0.36314  -0.36052  -0.34751  -0.34063
 Alpha  occ. eigenvalues --   -0.33871  -0.33415  -0.32907  -0.32418  -0.32158
 Alpha  occ. eigenvalues --   -0.31713  -0.31369  -0.30881  -0.29854  -0.28572
 Alpha  occ. eigenvalues --   -0.26249  -0.25269  -0.19031  -0.17265  -0.16587
 Alpha  occ. eigenvalues --   -0.11539
 Alpha virt. eigenvalues --   -0.00038   0.00351   0.01349   0.01432   0.01527
 Alpha virt. eigenvalues --    0.02221   0.02462   0.03215   0.03883   0.04040
 Alpha virt. eigenvalues --    0.04322   0.04436   0.05351   0.05466   0.05760

  Beta  occ. eigenvalues --  -19.00673 -19.00355 -10.15513 -10.15513 -10.15220
  Beta  occ. eigenvalues --  -10.15118 -10.15100 -10.14947 -10.14850 -10.14587
  Beta  occ. eigenvalues --  -10.14258 -10.13570 -10.12261 -10.11259 -10.11180
  Beta  occ. eigenvalues --  -10.10357  -0.92220  -0.89239  -0.79776  -0.78371
  Beta  occ. eigenvalues --   -0.76975  -0.73122  -0.70550  -0.66497  -0.64979
  Beta  occ. eigenvalues --   -0.61338  -0.59686  -0.56736  -0.56416  -0.51632
  Beta  occ. eigenvalues --   -0.50763  -0.46255  -0.45478  -0.42946  -0.42732
  Beta  occ. eigenvalues --   -0.41874  -0.41580  -0.39847  -0.39242  -0.38340
  Beta  occ. eigenvalues --   -0.37888  -0.36314  -0.36052  -0.34751  -0.34063
  Beta  occ. eigenvalues --   -0.33871  -0.33415  -0.32907  -0.32418  -0.32158
  Beta  occ. eigenvalues --   -0.31713  -0.31369  -0.30881  -0.29854  -0.28572
  Beta  occ. eigenvalues --   -0.26249  -0.25269  -0.19031  -0.17265  -0.16587
  Beta  occ. eigenvalues --   -0.11539
  Beta virt. eigenvalues --   -0.00038   0.00351   0.01349   0.01432   0.01527
  Beta virt. eigenvalues --    0.02221   0.02462   0.03215   0.03883   0.04040
  Beta virt. eigenvalues --    0.04322   0.04436   0.05351   0.05466   0.05760

 Mulliken charges and spin densities:
               1          2
     1  C   -0.623887   0.000000
     2  C    0.007761  -0.000000
     3  C    0.623741   0.000000
     4  C   -0.435788  -0.000000
     5  C    1.264948   0.000000
     6  C   -0.977127  -0.000000
     7  O   -0.726806   0.000000
     8  O   -0.739402  -0.000000
     9  C   -0.364170   0.000000
    10  C   -0.393970   0.000000
    11  C   -0.163952  -0.000000
    12  C   -0.646420  -0.000000
    13  C   -0.284971  -0.000000
    14  C   -0.325335  -0.000000
    15  C   -0.181510   0.000000
    16  C   -0.635582  -0.000000
    17  H    0.119081   0.000000
    18  H    0.141318  -0.000000
    19  H    0.152762   0.000000
    20  H    0.119014  -0.000000
    21  H    0.116704   0.000000
    22  H    0.150317  -0.000000
    23  H    0.118631   0.000000
    24  H    0.117168  -0.000000
    25  H    0.137952  -0.000000
    26  H    0.137746   0.000000
    27  H    0.136481  -0.000000
    28  H    0.129132   0.000000
    29  H    0.122996   0.000000
    30  H    0.123281   0.000000
    31  H    0.120890  -0.000000
    32  H    0.123561   0.000000
    33  H    0.120281  -0.000000
    34  H    0.139774   0.000000
    35  H    0.137318  -0.000000
    36  H    0.138066  -0.000000
 Sum of Mulliken charges =  -2.00000   0.00000

 Dipole moment (field-independent basis, Debye):
    X=             -0.7280    Y=            -30.5332    Z=              2.2674  Tot=             30.6260
 Quadrupole moment (field-independent basis, Debye-Ang):
   XX=           -131.1863   YY=           -227.3488   ZZ=           -114.2741
   XY=             -2.1286   XZ=              3.1389   YZ=              7.6340

  Exact polarizability: 321.564  10.730 315.138 -18.012  -3.107 218.129
 Approx polarizability: 320.090  14.413 342.561 -26.552  -3.869 231.320

                      1                      2                      3
                      A                      A                      A
 Frequencies --     22.9044                36.8844                62.2566
 Red. masses --      3.2495                 3.0465                 4.3537
 Frc consts  --      0.0010                 0.0024                 0.0099
 IR Inten    --      5.1303                 3.1789                 9.4628

                      4                      5                      6
                      A                      A                      A
 Frequencies --     71.1511                75.8810                83.3619
 Red. masses --      1.6496                 4.4853                 1.6659
 Frc consts  --      0.0049                 0.0152                 0.0068
 IR Inten    --      0.8887                 0.9601                 1.4321

                      7                      8                      9
                      A                      A                      A
 Frequencies --    116.1910               125.2698               153.8158
 Red. masses --      2.2810                 2.7826                 4.7558
 Frc consts  --      0.0181                 0.0257                 0.0663
 IR Inten    --      0.9731                 0.9406                 3.5645

                     10                     11                     12
                      A                      A                      A
 Frequencies --    202.6199               217.9524               233.2199
 Red. masses --      3.7295                 3.7140                 1.5374
 Frc consts  --      0.0902                 0.1039                 0.0493
 IR Inten    --      1.3170                 1.1253                 0.8350

                     13                     14                     15
                      A                      A                      A
 Frequencies --    241.9432               243.4068               267.1949
 Red. masses --      1.1681                 1.9865                 3.2557
 Frc consts  --      0.0403                 0.0693                 0.1369
 IR Inten    --      0.2735                 1.7038                 4.8334

                     16                     17                     18
                      A                      A                      A
 Frequencies --    281.3063               336.8014               350.1100
 Red. masses --      2.3367                 3.5573                 4.1678
 Frc consts  --      0.1089                 0.2377                 0.3010
 IR Inten    --      7.0065                 6.8056                 1.1700

                     19                     20                     21
                      A                      A                      A
 Frequencies --    382.4996               406.3199               444.1966
 Red. masses --     10.4780                 3.0216                 3.9994
 Frc consts  --      0.9032                 0.2939                 0.4649
 IR Inten    --      0.2601                 0.9113                 3.4100

                     22                     23                     24
                      A                      A                      A
 Frequencies --    500.7828               538.2298               577.6280
 Red. masses --      6.8093                 4.6206                 4.1606
 Frc consts  --      1.0061                 0.7887                 0.8179
 IR Inten    --     16.1452                12.5678                 4.1717

                     25                     26                     27
                      A                      A                      A
 Frequencies --    614.7753               641.5758               665.0318
 Red. masses --      3.8631                 3.4717                 4.4451
 Frc consts  --      0.8602                 0.8420                 1.1583
 IR Inten    --     10.8971                21.1345                 9.8691

                     28                     29                     30
                      A                      A                      A
 Frequencies --    729.0655               733.0380               774.5862
 Red. masses --      1.1076                 1.0870                 1.5861
 Frc consts  --      0.3469                 0.3441                 0.5607
 IR Inten    --      9.7554                 2.1957                 8.8833

                     31                     32                     33
                      A                      A                      A
 Frequencies --    781.1849               793.0758               794.9514
 Red. masses --      2.6824                 1.3973                 1.6019
 Frc consts  --      0.9645                 0.5178                 0.5964
 IR Inten    --      1.6364                19.6637                39.9498

                     34                     35                     36
                      A                      A                      A
 Frequencies --    806.9869               822.7236               898.5884
 Red. masses --      2.1703                 1.8543                 1.8781
 Frc consts  --      0.8327                 0.7395                 0.8935
 IR Inten    --     18.1361                45.5473                 1.8676

                     37                     38                     39
                      A                      A                      A
 Frequencies --    901.6012               921.2687               934.2319
 Red. masses --      1.8061                 1.3364                 1.2853
 Frc consts  --      0.8650                 0.6683                 0.6609
 IR Inten    --      2.6104                 8.8236                 2.0970

                     40                     41                     42
                      A                      A                      A
 Frequencies --    962.6277               997.3088              1013.5463
 Red. masses --      4.3955                 4.0548                 3.3182
 Frc consts  --      2.3998                 2.3762                 2.0084
 IR Inten    --      7.5702                 9.9160                15.1709

                     43                     44                     45
                      A                      A                      A
 Frequencies --   1022.5337              1052.0586              1052.8524
 Red. masses --      2.7688                 2.4616                 2.4565
 Frc consts  --      1.7057                 1.6053                 1.6044
 IR Inten    --     66.8552                 0.1545                 0.7108

                     46                     47                     48
                      A                      A                      A
 Frequencies --   1097.1722              1103.0724              1115.1300
 Red. masses --      1.3870                 1.5894                 2.1624
 Frc consts  --      0.9837                 1.1394                 1.5843
 IR Inten    --      2.5247                 0.4921                 7.8350

                     49                     50                     51
                      A                      A                      A
 Frequencies --   1115.7795              1163.8907              1222.4287
 Red. masses --      2.1685                 1.7868                 1.5885
 Frc consts  --      1.5906                 1.4261                 1.3986
 IR Inten    --     10.1531                73.6276                 5.2981

                     52                     53                     54
                      A                      A                      A
 Frequencies --   1230.3743              1231.9604              1257.7410
 Red. masses --      1.7004                 1.5947                 3.8998
 Frc consts  --      1.5166                 1.4260                 3.6347
 IR Inten    --    145.4791                35.2019               498.7305

                     55                     56                     57
                      A                      A                      A
 Frequencies --   1270.6312              1272.8461              1282.8940
 Red. masses --      1.3530                 1.3459                 2.3043
 Frc consts  --      1.2870                 1.2847                 2.2345
 IR Inten    --     29.0285                32.0101               259.5146

                     58                     59                     60
                      A                      A                      A
 Frequencies --   1303.4820              1315.3466              1320.7132
 Red. masses --      1.2578                 1.2939                 1.0722
 Frc consts  --      1.2591                 1.3190                 1.1019
 IR Inten    --      7.4852               186.7800                 4.7827

                     61                     62                     63
                      A                      A                      A
 Frequencies --   1325.3873              1332.4799              1347.1020
 Red. masses --      1.1799                 1.8635                 1.4203
 Frc consts  --      1.2212                 1.9494                 1.5185
 IR Inten    --    181.3277               178.1291                13.4516

                     64                     65                     66
                      A                      A                      A
 Frequencies --   1361.4124              1375.6209              1377.5221
 Red. masses --      2.7790                 1.5641                 1.5673
 Frc consts  --      3.0348                 1.7438                 1.7522
 IR Inten    --    175.3922                 3.8535                 8.5829

                     67                     68                     69
                      A                      A                      A
 Frequencies --   1400.5321              1401.5704              1410.9679
 Red. masses --      1.2401                 1.2384                 3.2803
 Frc consts  --      1.4331                 1.4334                 3.8476
 IR Inten    --      3.2767                 3.9480                96.0123

                     70                     71                     72
                      A                      A                      A
 Frequencies --   1449.0216              1463.8728              1467.2634
 Red. masses --      1.6806                 1.3943                 1.3761
 Frc consts  --      2.0790                 1.7604                 1.7455
 IR Inten    --    307.9128               239.7250               218.1972

                     73                     74                     75
                      A                      A                      A
 Frequencies --   1473.4555              1475.7131              1487.2060
 Red. masses --      1.0715                 1.0767                 1.0411
 Frc consts  --      1.3706                 1.3815                 1.3567
 IR Inten    --      7.5006                14.7056                 9.2031

                     76                     77                     78
                      A                      A                      A
 Frequencies --   1487.5264              1488.3649              1489.7518
 Red. masses --      1.0405                 1.0740                 1.0780
 Frc consts  --      1.3565                 1.4018                 1.4096
 IR Inten    --     10.4180                 4.4329                 0.9911

                     79                     80                     81
                      A                      A                      A
 Frequencies --   1501.7714              1502.4072              1524.8879
 Red. masses --      1.0913                 1.0939                 5.9332
 Frc consts  --      1.4501                 1.4548                 8.1286
 IR Inten    --     11.3470                14.9254               274.1782

                     82                     83                     84
                      A                      A                      A
 Frequencies --   1578.1824              2970.4632              2977.2810
 Red. masses --      5.1556                 1.0627                 1.0627
 Frc consts  --      7.5657                 5.5246                 5.5503
 IR Inten    --     13.3583               127.3826               119.6148

                     85                     86                     87
                      A                      A                      A
 Frequencies --   2989.1806              2992.2706              2994.2025
 Red. masses --      1.0636                 1.0578                 1.0642
 Frc consts  --      5.5993                 5.5802                 5.6214
 IR Inten    --      7.9287                 1.5223               116.4947

                     88                     89                     90
                      A                      A                      A
 Frequencies --   2998.4926              3004.8092              3009.6731
 Red. masses --      1.0603                 1.0947                 1.0361
 Frc consts  --      5.6169                 5.8236                 5.5298
 IR Inten    --    162.7477                24.7527                57.6535

                     91                     92                     93
                      A                      A                      A
 Frequencies --   3011.2164              3014.8893              3015.8961
 Red. masses --      1.0355                 1.0928                 1.1008
 Frc consts  --      5.5320                 5.8524                 5.8992
 IR Inten    --     61.6651                50.2862                 7.3208

                     94                     95                     96
                      A                      A                      A
 Frequencies --   3020.6113              3038.9047              3045.9222
 Red. masses --      1.0936                 1.1052                 1.1019
 Frc consts  --      5.8790                 6.0137                 6.0233
 IR Inten    --     50.9706               136.4317               100.0682

                     97                     98                     99
                      A                      A                      A
 Frequencies --   3068.3920              3069.9651              3070.3035
 Red. masses --      1.1023                 1.1025                 1.1013
 Frc consts  --      6.1147                 6.1218                 6.1167
 IR Inten    --    124.2961               112.6493                89.6260

                    100                    101                    102
                      A                      A                      A
 Frequencies --   3072.3489              3082.6220              3093.0293
 Red. masses --      1.1013                 1.0865                 1.0874
 Frc consts  --      6.1246                 6.0832                 6.1295
 IR Inten    --     83.9178               159.3466                71.8742

 - Thermochemistry -
 -------------------
 Temperature   298.150 Kelvin.  Pressure   1.00000 Atm.
 Atom     1 has atomic number  6 and mass  12.00000

 Molecular mass:   220.14633 amu.
 Principal axes and moments of inertia in atomic units:
                           1         2         3
     Eigenvalues --  2440.088978517.35285**********
           X            0.99452  -0.03510  -0.09852
           Y            0.04111   0.99737   0.05969
           Z            0.09617  -0.06341   0.99334
 This molecule is an asymmetric top.
 Rotational symmetry number  1.
 Warning -- assumption of classical behavior for rotation
           may cause significant error
 Rotational temperatures (Kelvin)      0.03550     0.01017     0.00834
 Rotational constants (GHZ):           0.73962     0.21189     0.17376
 Zero-point vibrational energy     804198.5 (Joules/Mol)
                                  192.20806 (Kcal/Mol)
 Warning -- explicit consideration of  25 degrees of freedom as
           vibrations may cause significant error
 Vibrational temperatures:     32.95    53.07    89.57   102.37   109.18
          (Kelvin)            119.94   167.17   180.24   221.31   291.52
                              313.58   335.55   348.10   350.21   384.43
                              404.74   484.58   503.73   550.33   584.60
                              639.10   720.51   774.39   831.08   884.52
                              923.08   956.83  1048.96  1054.68  1114.46
                             1123.95  1141.06  1143.76  1161.07  1183.72
                             1292.87  1297.20  1325.50  1344.15  1385.01
                             1434.90  1458.27  1471.20  1513.68  1514.82
                             1578.59  1587.08  1604.42  1605.36  1674.58
                             1758.80  1770.23  1772.52  1809.61  1828.15
                             1831.34  1845.80  1875.42  1892.49  1900.21
                             1906.94  1917.14  1938.18  1958.77  1979.21
                             1981.95  2015.05  2016.55  2030.07  2084.82
                             2106.19  2111.06  2119.97  2123.22  2139.76
                             2140.22  2141.43  2143.42  2160.71  2161.63
                             2193.97  2270.65  4273.83  4283.64  4300.76
                             4305.21  4307.99  4314.16  4323.25  4330.25
                             4332.47  4337.75  4339.20  4345.99  4372.31
                             4382.40  4414.73  4417.00  4417.48  4420.42
                             4435.21  4450.18

 Zero-point correction=                           0.306303 (Hartree/Particle)
 Thermal correction to Energy=                    0.323698
 Thermal correction to Enthalpy=                  0.324642
 Thermal correction to Gibbs Free Energy=         0.259448
 Sum of electronic and zero-point Energies=           -696.116413
 Sum of electronic and thermal Energies=              -696.099018
 Sum of electronic and thermal Enthalpies=            -696.098074
 Sum of electronic and thermal Free Energies=         -696.163269

                     E (Thermal)             CV                S
                      KCal/Mol        Cal/Mol-Kelvin    Cal/Mol-Kelvin
 Total                  203.123             64.453            137.213
 Electronic               0.000              0.000              0.000
 Translational            0.889              2.981             42.070
 Rotational               0.889              2.981             33.734
 Vibrational            201.346             58.491             61.409
 Vibration     1          0.593              1.985              6.365
 Vibration     2          0.594              1.982              5.420
 Vibration     3          0.597              1.972              4.384
 Vibration     4          0.598              1.968              4.121
 Vibration     5          0.599              1.965              3.995
 Vibration     6          0.600              1.961              3.810
 Vibration     7          0.608              1.936              3.163
 Vibration     8          0.610              1.928              3.017
 Vibration     9          0.619              1.898              2.624
 Vibration    10          0.639              1.836              2.109
 Vibration    11          0.646              1.814              1.976
 Vibration    12          0.654              1.790              1.854
 Vibration    13          0.658              1.776              1.789
 Vibration    14          0.659              1.774              1.778
 Vibration    15          0.672              1.733              1.614
 Vibration    16          0.681              1.708              1.526
 Vibration    17          0.718              1.602              1.227
 Vibration    18          0.727              1.575              1.166
 Vibration    19          0.752              1.508              1.029
 Vibration    20          0.771              1.456              0.940
 Vibration    21          0.804              1.374              0.814
 Vibration    22          0.856              1.248              0.656
 Vibration    23          0.893              1.166              0.569
 Vibration    24          0.934              1.080              0.490
 Vibration    25          0.974              1.001              0.425

 Optimization completed.
    -- Stationary point found.
 Normal termination of Gaussian 16 at Sun Feb 11 17:36:43 2024.
