 Gaussian 16, Revision A.03,
 Gaussian 16:  ES64L-G16RevA.03 25-Dec-2016

 ----------------------------------------------------------------
 #P UB3LYP/6-311++G(d,p) SCRF=(PCM,Solvent=n,n-DiMethylFormamide)
 ----------------------------------------------------------------

 -------
 Reduced
 -------
 Symbolic Z-matrix:
 Charge = -2 Multiplicity = 1

                         Standard orientation:
 ---------------------------------------------------------------------
 Center     Atomic      Atomic             Coordinates (Angstroms)
 Number     Number       Type             X           Y           Z
 ---------------------------------------------------------------------
      1          8           0        3.183677    1.947307   -0.000481
      2          6           0        2.826272    0.692470   -0.000118
      3          6           0        3.760956   -0.360035   -0.000060
      4          6           0        3.354564   -1.711793    0.000130
      5          6           0        2.018062   -2.060507    0.000224
      6          6           0        1.015027   -1.055425    0.000165
      7          6           0       -0.394098   -1.477670    0.000068
      8          8           0       -0.694605   -2.708642    0.000003
      9          6           0       -1.376421   -0.400617    0.000032
     10          6           0       -2.781515   -0.627018   -0.000220
     11          8           0       -3.269602   -1.923034   -0.000371
     12          6           0       -3.710943    0.408164   -0.000212
     13          6           0       -3.272316    1.761309    0.000135
     14          6           0       -1.934210    2.046872    0.000337
     15          6           0       -0.948462    1.003736    0.000225
     16          6           0        0.407744    1.333491    0.000162
     17          8           0        0.777333    2.664219    0.000025
     18          6           0        1.402695    0.321935    0.000095
     19          1           0        1.792791    2.619894   -0.000238
     20          1           0        4.815342   -0.091498   -0.000198
     21          1           0        4.116021   -2.493212    0.000186
     22          1           0        1.689116   -3.092761    0.000265
     23          1           0       -4.229247   -1.834701    0.000639
     24          1           0       -4.775063    0.170125   -0.000492
     25          1           0       -4.008356    2.563433    0.000138
     26          1           0       -1.579160    3.070435    0.000510
 ---------------------------------------------------------------------

 SCF Done:  E(UB3LYP) =  -839.704545007     A.U. after   16 cycles

 The electronic state is 1-A.
 Alpha  occ. eigenvalues --  -19.13707 -19.09258 -19.04724 -19.02828 -10.22101
 Alpha  occ. eigenvalues --  -10.19637 -10.19294 -10.18331 -10.15650 -10.15118
 Alpha  occ. eigenvalues --  -10.14850 -10.14678 -10.14596 -10.14473 -10.14461
 Alpha  occ. eigenvalues --  -10.13830 -10.12874 -10.12706  -1.04624  -1.00820
 Alpha  occ. eigenvalues --   -0.95450  -0.95397  -0.83189  -0.80864  -0.76049
 Alpha  occ. eigenvalues --   -0.72671  -0.71102  -0.69537  -0.64822  -0.61410
 Alpha  occ. eigenvalues --   -0.59839  -0.56593  -0.54599  -0.51553  -0.50203
 Alpha  occ. eigenvalues --   -0.48601  -0.46631  -0.44723  -0.44010  -0.43552
 Alpha  occ. eigenvalues --   -0.41032  -0.40467  -0.39257  -0.38537  -0.38419
 Alpha  occ. eigenvalues --   -0.38270  -0.36266  -0.35586  -0.35071  -0.34499
 Alpha  occ. eigenvalues --   -0.33976  -0.33501  -0.32238  -0.31004  -0.30823
 Alpha  occ. eigenvalues --   -0.28485  -0.24811  -0.22386  -0.22003  -0.21634
 Alpha  occ. eigenvalues --   -0.19723  -0.18105  -0.11921
 Alpha virt. eigenvalues --   -0.01819   0.00017   0.00018   0.00743   0.01290
 Alpha virt. eigenvalues --    0.02385   0.02481   0.03413   0.04386   0.04735
 Alpha virt. eigenvalues --    0.04868   0.05023   0.06493   0.06926   0.06942

  Beta  occ. eigenvalues --  -19.13707 -19.09258 -19.04724 -19.02828 -10.22101
  Beta  occ. eigenvalues --  -10.19637 -10.19294 -10.18331 -10.15650 -10.15118
  Beta  occ. eigenvalues --  -10.14850 -10.14678 -10.14596 -10.14473 -10.14461
  Beta  occ. eigenvalues --  -10.13830 -10.12874 -10.12706  -1.04624  -1.00820
  Beta  occ. eigenvalues --   -0.95450  -0.95397  -0.83189  -0.80864  -0.76049
  Beta  occ. eigenvalues --   -0.72671  -0.71102  -0.69537  -0.64822  -0.61410
  Beta  occ. eigenvalues --   -0.59839  -0.56593  -0.54599  -0.51553  -0.50203
  Beta  occ. eigenvalues --   -0.48601  -0.46631  -0.44723  -0.44010  -0.43552
  Beta  occ. eigenvalues --   -0.41032  -0.40467  -0.39257  -0.38537  -0.38419
  Beta  occ. eigenvalues --   -0.38270  -0.36266  -0.35586  -0.35071  -0.34499
  Beta  occ. eigenvalues --   -0.33976  -0.33501  -0.32238  -0.31004  -0.30823
  Beta  occ. eigenvalues --   -0.28485  -0.24811  -0.22386  -0.22003  -0.21634
  Beta  occ. eigenvalues --   -0.19723  -0.18105  -0.11921
  Beta virt. eigenvalues --   -0.01819   0.00017   0.00018   0.00743   0.01290
  Beta virt. eigenvalues --    0.02385   0.02481   0.03413   0.04386   0.04735
  Beta virt. eigenvalues --    0.04868   0.05023   0.06493   0.06926   0.06942

 Mulliken charges and spin densities:
               1          2
     1  O   -0.648551  -0.000000
     2  C   -0.442797   0.000000
     3  C   -0.236791  -0.000000
     4  C   -0.410053   0.000000
     5  C   -0.242811   0.000000
     6  C    0.443620   0.000000
     7  C   -0.477704   0.000000
     8  O   -0.585713   0.000000
     9  C   -0.065213  -0.000000
    10  C   -0.065521  -0.000000
    11  O   -0.251177   0.000000
    12  C   -0.353732  -0.000000
    13  C   -0.359528  -0.000000
    14  C   -0.433094  -0.000000
    15  C    0.529428   0.000000
    16  C   -0.087823  -0.000000
    17  O   -0.524603   0.000000
    18  C    0.649558   0.000000
    19  H    0.413073   0.000000
    20  H    0.139205  -0.000000
    21  H    0.154113  -0.000000
    22  H    0.131382   0.000000
    23  H    0.284136   0.000000
    24  H    0.132452   0.000000
    25  H    0.171266  -0.000000
    26  H    0.136876  -0.000000
 Sum of Mulliken charges =  -2.00000   0.00000

 Dipole moment (field-independent basis, Debye):
    X=             -8.5617    Y=              1.1081    Z=              0.0023  Tot=              8.6331
 Quadrupole moment (field-independent basis, Debye-Ang):
   XX=           -146.2113   YY=           -160.8897   ZZ=           -116.4336
   XY=            -17.6035   XZ=             -0.0038   YZ=             -0.0017

 Normal termination of Gaussian 16 at Tue Jan 16 06:14:57 2024.
