 Q-Chem 5.4, Q-Chem, Inc., Pleasanton, CA (2021)
 Q-Chem 5.4.0 for Intel X86 EM64T Linux

User input:
--------------------------------------------------------------
$molecule
-2 1
O                  3.0741810000     -2.1850110000      0.2111200000
C                  2.8188940000     -0.9063680000      0.2586110000
C                  3.8286190000      0.0608470000      0.4209390000
C                  3.5323950000      1.4400610000      0.4701800000
C                  2.2348780000      1.9008650000      0.3608660000
C                  1.1611300000      0.9866470000      0.1949160000
C                 -0.2026050000      1.5267710000      0.0834770000
O                 -0.4034100000      2.7768000000      0.1354450000
C                 -1.2614960000      0.5392010000     -0.0852190000
C                 -2.6367030000      0.8841720000     -0.2090970000
O                 -3.0183570000      2.2148850000     -0.1713050000
C                 -3.6398440000     -0.0662570000     -0.3698200000
C                 -3.3117150000     -1.4495670000     -0.4164950000
C                 -2.0075940000     -1.8476760000     -0.3031260000
C                 -0.9479990000     -0.8941440000     -0.1361940000
C                  0.3705510000     -1.3377680000     -0.0237010000
O                  0.6319540000     -2.6929230000     -0.0752440000
C                  1.4367830000     -0.4164290000      0.1420030000
H                  1.6421750000     -2.7354210000      0.0285190000
H                  4.8527610000     -0.2961580000      0.5076780000
H                  4.3489880000      2.1524030000      0.5973710000
H                  1.9902090000      2.9556660000      0.3967290000
H                 -3.9766380000      2.2088950000     -0.2732020000
H                 -4.6760860000      0.2612180000     -0.4591310000
H                 -4.1047360000     -2.1846670000     -0.5426010000
H                 -1.7363370000     -2.8960450000     -0.3360390000
$end
$rem
MAX_SCF_CYCLES=200
BASIS  =  6-311++G(d,p)
GUI  =  2
JOB_TYPE  =  SP
METHOD  =  B3LYP
SOLVENT_METHOD = PCM
$end
$pcm
theory = CPCM
$end
$solvent
dielectric 37.219
opticaldielectric 1.43
$end

--------------------------------------------------------------

             Standard Nuclear Orientation (Angstroms)
    I     Atom           X                Y                Z
 ----------------------------------------------------------------
    1      O       3.0741810000    -2.1850110000     0.2111200000
    2      C       2.8188940000    -0.9063680000     0.2586110000
    3      C       3.8286190000     0.0608470000     0.4209390000
    4      C       3.5323950000     1.4400610000     0.4701800000
    5      C       2.2348780000     1.9008650000     0.3608660000
    6      C       1.1611300000     0.9866470000     0.1949160000
    7      C      -0.2026050000     1.5267710000     0.0834770000
    8      O      -0.4034100000     2.7768000000     0.1354450000
    9      C      -1.2614960000     0.5392010000    -0.0852190000
   10      C      -2.6367030000     0.8841720000    -0.2090970000
   11      O      -3.0183570000     2.2148850000    -0.1713050000
   12      C      -3.6398440000    -0.0662570000    -0.3698200000
   13      C      -3.3117150000    -1.4495670000    -0.4164950000
   14      C      -2.0075940000    -1.8476760000    -0.3031260000
   15      C      -0.9479990000    -0.8941440000    -0.1361940000
   16      C       0.3705510000    -1.3377680000    -0.0237010000
   17      O       0.6319540000    -2.6929230000    -0.0752440000
   18      C       1.4367830000    -0.4164290000     0.1420030000
   19      H       1.6421750000    -2.7354210000     0.0285190000
   20      H       4.8527610000    -0.2961580000     0.5076780000
   21      H       4.3489880000     2.1524030000     0.5973710000
   22      H       1.9902090000     2.9556660000     0.3967290000
   23      H      -3.9766380000     2.2088950000    -0.2732020000
   24      H      -4.6760860000     0.2612180000    -0.4591310000
   25      H      -4.1047360000    -2.1846670000    -0.5426010000
   26      H      -1.7363370000    -2.8960450000    -0.3360390000
 ----------------------------------------------------------------

    9    -839.7130275839      3.87e-06  Convergence criterion met
 Total energy in the final basis set =     -839.7130275839

                    Orbital Energies (a.u.)
 --------------------------------------------------------------

 Alpha MOs
 -- Occupied --
-19.1367 -19.0966 -19.0511 -19.0328 -10.2219 -10.1993 -10.1964 -10.1865
-10.1569 -10.1537 -10.1509 -10.1488 -10.1469 -10.1462 -10.1458 -10.1412
-10.1312 -10.1291  -1.0459  -1.0122  -0.9590  -0.9584  -0.8339  -0.8110
 -0.7625  -0.7283  -0.7130  -0.6981  -0.6503  -0.6156  -0.6003  -0.5671
 -0.5480  -0.5176  -0.5037  -0.4886  -0.4677  -0.4490  -0.4422  -0.4370
 -0.4124  -0.4069  -0.3948  -0.3883  -0.3877  -0.3851  -0.3653  -0.3584
 -0.3523  -0.3485  -0.3434  -0.3363  -0.3246  -0.3120  -0.3114  -0.2884
 -0.2512  -0.2282  -0.2223  -0.2181  -0.2021  -0.1845  -0.1223

          Ground-State Mulliken Net Atomic Charges

     Atom                 Charge (a.u.)
  ----------------------------------------
      1 O                    -0.664975
      2 C                    -0.409833
      3 C                    -0.266576
      4 C                    -0.422013
      5 C                    -0.251650
      6 C                     0.420140
      7 C                    -0.407449
      8 O                    -0.612546
      9 C                    -0.082560
     10 C                    -0.081547
     11 O                    -0.275174
     12 C                    -0.349598
     13 C                    -0.362268
     14 C                    -0.443925
     15 C                     0.503100
     16 C                    -0.075868
     17 O                    -0.533651
     18 C                     0.645355
     19 H                     0.415653
     20 H                     0.152294
     21 H                     0.170744
     22 H                     0.133409
     23 H                     0.305073
     24 H                     0.160595
     25 H                     0.187852
     26 H                     0.145419
  ----------------------------------------
  Sum of atomic charges =    -2.000000

                    Cartesian Multipole Moments
 -----------------------------------------------------------------
    Charge (ESU x 10^10)
                -9.6064
    Dipole Moment (Debye)
         X      -9.5868      Y      -0.6544      Z      -1.1964
       Tot       9.6833
    Quadrupole Moments (Debye-Ang)
        XX    -141.3903     XY      16.6854     YY    -163.9754
        XZ      -1.8148     YZ      -1.0380     ZZ    -116.5864

 Total job time:  55.38s(wall), 349.69s(cpu)
        *  Thank you very much for using Q-Chem.  Have a nice day.  *
