 Q-Chem 5.4, Q-Chem, Inc., Pleasanton, CA (2021)
 Q-Chem 5.4.0 for Intel X86 EM64T Linux

User input:
--------------------------------------------------------------
$molecule
-2 1
C                 -0.5688350000      2.1128880000     -0.0763840000
C                 -1.7734310000      1.3135780000     -0.0613500000
C                 -1.7165630000     -0.0949990000     -0.0068860000
C                 -0.4638410000     -0.7998920000      0.0280940000
C                  0.7348180000     -0.0058480000      0.0159180000
C                  0.6900990000      1.4031890000     -0.0373120000
O                 -0.6156800000      3.4179160000     -0.1306380000
O                 -0.4164140000     -2.1115990000      0.0714850000
C                  1.9097490000      2.3286060000     -0.0725070000
C                  2.7527970000      2.3506880000      1.2221940000
C                  2.7940310000      2.2048320000     -1.3321040000
C                  2.0631030000     -0.7662830000      0.0743070000
C                  2.2119300000     -1.5826770000      1.3772270000
C                  2.2751340000     -1.6712390000     -1.1591380000
C                 -3.0562820000      2.1477640000     -0.1236370000
C                 -3.9209550000      2.1140330000      1.1565880000
C                 -3.9071600000      1.9543920000     -1.3973310000
C                 -2.9870800000     -0.9496850000      0.0294470000
C                 -3.1125220000     -1.8667150000     -1.2068730000
C                 -3.0985020000     -1.7757360000      1.3300880000
H                  1.4413630000      3.3164480000     -0.1353370000
H                  3.5038750000      3.1572610000      1.1863520000
H                  3.2874730000      1.4137260000      1.4110000000
H                  2.1022640000      2.5375700000      2.0820090000
H                  3.3353970000      1.2554300000     -1.3961700000
H                  3.5408290000      3.0132170000     -1.3630840000
H                  2.1717860000      2.2898700000     -2.2284960000
H                  2.8769210000     -0.0407950000      0.0705090000
H                  2.1731060000     -0.9197780000      2.2493390000
H                  3.1735110000     -2.1197350000      1.4003070000
H                  1.3906180000     -2.2998070000      1.4424780000
H                  1.4615150000     -2.3981800000     -1.2096120000
H                  3.2407290000     -2.1999610000     -1.1003950000
H                  2.2713570000     -1.0733970000     -2.0776330000
H                 -2.6600320000      3.1668050000     -0.1837640000
H                 -4.7306960000      2.8607140000      1.1024750000
H                 -3.3013370000      2.3552310000      2.0256850000
H                 -4.3859210000      1.1402010000      1.3434190000
H                 -4.7078630000      2.7081900000     -1.4470510000
H                 -4.3798440000      0.9692020000     -1.4637670000
H                 -3.2767390000      2.0771730000     -2.2836230000
H                 -3.8509660000     -0.2848990000      0.0119650000
H                 -4.0393890000     -2.4621950000     -1.1650420000
H                 -2.2489180000     -2.5344760000     -1.2422740000
H                 -3.1344350000     -1.2696800000     -2.1256170000
H                 -4.0183850000     -2.3817470000      1.3364430000
H                 -3.1240870000     -1.1124300000      2.2024130000
H                 -2.2281880000     -2.4308830000      1.4102820000
$end
$rem
MAX_SCF_CYCLES=200
BASIS  =  6-311++G(d,p)
GUI  =  2
JOB_TYPE  =  SP
METHOD  =  B3LYP
SOLVENT_METHOD = PCM
$end
$pcm
theory = CPCM
$end
$solvent
dielectric 37.219
opticaldielectric 1.43
$end

--------------------------------------------------------------

             Standard Nuclear Orientation (Angstroms)
    I     Atom           X                Y                Z
 ----------------------------------------------------------------
    1      C      -0.5688350000     2.1128880000    -0.0763840000
    2      C      -1.7734310000     1.3135780000    -0.0613500000
    3      C      -1.7165630000    -0.0949990000    -0.0068860000
    4      C      -0.4638410000    -0.7998920000     0.0280940000
    5      C       0.7348180000    -0.0058480000     0.0159180000
    6      C       0.6900990000     1.4031890000    -0.0373120000
    7      O      -0.6156800000     3.4179160000    -0.1306380000
    8      O      -0.4164140000    -2.1115990000     0.0714850000
    9      C       1.9097490000     2.3286060000    -0.0725070000
   10      C       2.7527970000     2.3506880000     1.2221940000
   11      C       2.7940310000     2.2048320000    -1.3321040000
   12      C       2.0631030000    -0.7662830000     0.0743070000
   13      C       2.2119300000    -1.5826770000     1.3772270000
   14      C       2.2751340000    -1.6712390000    -1.1591380000
   15      C      -3.0562820000     2.1477640000    -0.1236370000
   16      C      -3.9209550000     2.1140330000     1.1565880000
   17      C      -3.9071600000     1.9543920000    -1.3973310000
   18      C      -2.9870800000    -0.9496850000     0.0294470000
   19      C      -3.1125220000    -1.8667150000    -1.2068730000
   20      C      -3.0985020000    -1.7757360000     1.3300880000
   21      H       1.4413630000     3.3164480000    -0.1353370000
   22      H       3.5038750000     3.1572610000     1.1863520000
   23      H       3.2874730000     1.4137260000     1.4110000000
   24      H       2.1022640000     2.5375700000     2.0820090000
   25      H       3.3353970000     1.2554300000    -1.3961700000
   26      H       3.5408290000     3.0132170000    -1.3630840000
   27      H       2.1717860000     2.2898700000    -2.2284960000
   28      H       2.8769210000    -0.0407950000     0.0705090000
   29      H       2.1731060000    -0.9197780000     2.2493390000
   30      H       3.1735110000    -2.1197350000     1.4003070000
   31      H       1.3906180000    -2.2998070000     1.4424780000
   32      H       1.4615150000    -2.3981800000    -1.2096120000
   33      H       3.2407290000    -2.1999610000    -1.1003950000
   34      H       2.2713570000    -1.0733970000    -2.0776330000
   35      H      -2.6600320000     3.1668050000    -0.1837640000
   36      H      -4.7306960000     2.8607140000     1.1024750000
   37      H      -3.3013370000     2.3552310000     2.0256850000
   38      H      -4.3859210000     1.1402010000     1.3434190000
   39      H      -4.7078630000     2.7081900000    -1.4470510000
   40      H      -4.3798440000     0.9692020000    -1.4637670000
   41      H      -3.2767390000     2.0771730000    -2.2836230000
   42      H      -3.8509660000    -0.2848990000     0.0119650000
   43      H      -4.0393890000    -2.4621950000    -1.1650420000
   44      H      -2.2489180000    -2.5344760000    -1.2422740000
   45      H      -3.1344350000    -1.2696800000    -2.1256170000
   46      H      -4.0183850000    -2.3817470000     1.3364430000
   47      H      -3.1240870000    -1.1124300000     2.2024130000
   48      H      -2.2281880000    -2.4308830000     1.4102820000
 ----------------------------------------------------------------

    9    -853.6828242789      8.47e-06  Convergence criterion met
 Total energy in the final basis set =     -853.6828242789

                    Orbital Energies (a.u.)
 --------------------------------------------------------------

 Alpha MOs
 -- Occupied --
-19.0031 -18.9907 -10.1515 -10.1470 -10.1401 -10.1401 -10.1372 -10.1372
-10.1369 -10.1369 -10.1367 -10.1367 -10.1281 -10.1280 -10.1277 -10.1277
-10.1132 -10.1132 -10.1120 -10.1120  -0.9176  -0.9053  -0.7882  -0.7813
 -0.7563  -0.7530  -0.7248  -0.6675  -0.6627  -0.6626  -0.6537  -0.6533
 -0.6283  -0.5968  -0.5673  -0.5449  -0.5267  -0.4992  -0.4819  -0.4500
 -0.4359  -0.4208  -0.4128  -0.4123  -0.4068  -0.4048  -0.3945  -0.3924
 -0.3870  -0.3838  -0.3814  -0.3757  -0.3694  -0.3628  -0.3594  -0.3572
 -0.3557  -0.3448  -0.3314  -0.3194  -0.3192  -0.3143  -0.3119  -0.3115
 -0.3067  -0.3032  -0.3018  -0.2966  -0.2858  -0.2818  -0.2710  -0.2690
 -0.2040  -0.1834  -0.1825  -0.1659  -0.1028

          Ground-State Mulliken Net Atomic Charges

     Atom                 Charge (a.u.)
  ----------------------------------------
      1 C                    -1.147979
      2 C                     0.436590
      3 C                     0.182678
      4 C                    -0.531176
      5 C                     0.183691
      6 C                     0.440638
      7 O                    -0.684852
      8 O                    -0.664469
      9 C                     0.217679
     10 C                    -0.738071
     11 C                    -0.739754
     12 C                     0.672948
     13 C                    -0.750749
     14 C                    -0.759526
     15 C                     0.216860
     16 C                    -0.737282
     17 C                    -0.740941
     18 C                     0.677999
     19 C                    -0.759132
     20 C                    -0.750876
     21 H                     0.176585
     22 H                     0.141448
     23 H                     0.146754
     24 H                     0.148505
     25 H                     0.147790
     26 H                     0.141654
     27 H                     0.147112
     28 H                     0.110871
     29 H                     0.112748
     30 H                     0.138600
     31 H                     0.161422
     32 H                     0.162098
     33 H                     0.138970
     34 H                     0.113298
     35 H                     0.176533
     36 H                     0.141475
     37 H                     0.148595
     38 H                     0.146929
     39 H                     0.141699
     40 H                     0.147672
     41 H                     0.147252
     42 H                     0.111068
     43 H                     0.139088
     44 H                     0.161541
     45 H                     0.113535
     46 H                     0.138492
     47 H                     0.112759
     48 H                     0.161232
  ----------------------------------------
  Sum of atomic charges =    -2.000000

                    Cartesian Multipole Moments
 -----------------------------------------------------------------
    Charge (ESU x 10^10)
                -9.6064
    Dipole Moment (Debye)
         X       4.9397      Y      -5.7596      Z       0.2146
       Tot       7.5907
    Quadrupole Moments (Debye-Ang)
        XX    -155.6527     XY       4.7211     YY    -205.4247
        XZ      -0.2672     YZ       2.1644     ZZ    -144.3247

 Total job time:  139.13s(wall), 970.56s(cpu)
        *  Thank you very much for using Q-Chem.  Have a nice day.  *
