 Gaussian 16, Revision A.03,
 Gaussian 16:  ES64L-G16RevA.03 25-Dec-2016

 ----------------------------------------------------------------
 #P UB3LYP/6-311++G(d,p) SCRF=(PCM,Solvent=n,n-DiMethylFormamide)
 ----------------------------------------------------------------

 -------
 Reduced
 -------
 Symbolic Z-matrix:
 Charge = -2 Multiplicity = 1

                         Standard orientation:
 ---------------------------------------------------------------------
 Center     Atomic      Atomic             Coordinates (Angstroms)
 Number     Number       Type             X           Y           Z
 ---------------------------------------------------------------------
      1          6           0       -2.470031   -1.009274   -0.284354
      2          6           0       -3.659457   -0.324738   -0.201479
      3          6           0       -3.671919    1.086301   -0.054283
      4          6           0       -1.222837   -0.337047   -0.217365
      5          6           0       -1.223110    1.098494   -0.050733
      6          6           0       -2.471364    1.762849    0.015898
      7          6           0       -0.000174   -1.113828   -0.311641
      8          6           0        1.222611   -0.337257   -0.217293
      9          6           0        1.223002    1.098273   -0.050570
     10          6           0        0.000012    1.876179    0.039341
     11          6           0        2.469753   -1.009582   -0.284340
     12          6           0        3.659238   -0.325153   -0.201398
     13          6           0        3.671815    1.085875   -0.054000
     14          6           0        2.471320    1.762503    0.016239
     15          8           0       -0.000324   -2.383303   -0.453633
     16          8           0        0.000142    3.145593    0.181389
     17          1           0       -2.441603    2.842398    0.123839
     18          1           0        2.441605    2.842038    0.124297
     19          1           0       -2.452345   -2.086364   -0.412619
     20          1           0        2.452054   -2.086653   -0.412754
     21          8           0        4.883914   -1.004126   -0.306917
     22          6           0        5.411201   -1.439587    0.937495
     23          8           0       -4.884269   -1.003549   -0.306586
     24          1           0        4.623269    1.609051   -0.010984
     25          1           0        6.371256   -1.927477    0.734372
     26          1           0        4.739668   -2.157517    1.426754
     27          1           0        5.580167   -0.596270    1.622841
     28          6           0       -5.410059   -1.440666    0.937879
     29          1           0       -4.623347    1.609525   -0.011322
     30          1           0       -6.370414   -1.928195    0.735287
     31          1           0       -5.578047   -0.598226    1.624545
     32          1           0       -4.737989   -2.159296    1.425347
 ---------------------------------------------------------------------

 SCF Done:  E(UB3LYP) =  -918.296432871     A.U. after   18 cycles

 The electronic state is 1-A.
 Alpha  occ. eigenvalues --  -19.12757 -19.12757 -19.02106 -19.01673 -10.20813
 Alpha  occ. eigenvalues --  -10.20813 -10.20167 -10.20167 -10.17485 -10.16996
 Alpha  occ. eigenvalues --  -10.14986 -10.14986 -10.14918 -10.14918 -10.14415
 Alpha  occ. eigenvalues --  -10.14414 -10.13646 -10.13645 -10.13447 -10.13446
 Alpha  occ. eigenvalues --   -1.03692  -1.03691  -0.94305  -0.93821  -0.82806
 Alpha  occ. eigenvalues --   -0.82166  -0.75295  -0.72823  -0.72806  -0.71616
 Alpha  occ. eigenvalues --   -0.68238  -0.66736  -0.63188  -0.60315  -0.58403
 Alpha  occ. eigenvalues --   -0.56507  -0.52951  -0.51666  -0.50978  -0.47197
 Alpha  occ. eigenvalues --   -0.46734  -0.45521  -0.44905  -0.44885  -0.44629
 Alpha  occ. eigenvalues --   -0.42182  -0.42165  -0.40724  -0.40310  -0.39855
 Alpha  occ. eigenvalues --   -0.38033  -0.37946  -0.37244  -0.36098  -0.35797
 Alpha  occ. eigenvalues --   -0.34216  -0.33632  -0.32660  -0.32605  -0.31939
 Alpha  occ. eigenvalues --   -0.30602  -0.29470  -0.26700  -0.26576  -0.23497
 Alpha  occ. eigenvalues --   -0.22585  -0.22130  -0.21171  -0.20233  -0.19418
 Alpha  occ. eigenvalues --   -0.10183
 Alpha virt. eigenvalues --   -0.02676  -0.00088   0.00209   0.00730   0.01317
 Alpha virt. eigenvalues --    0.01887   0.01962   0.02191   0.02765   0.03145
 Alpha virt. eigenvalues --    0.04009   0.04061   0.04705   0.05406   0.05632

  Beta  occ. eigenvalues --  -19.12757 -19.12757 -19.02106 -19.01673 -10.20813
  Beta  occ. eigenvalues --  -10.20813 -10.20167 -10.20167 -10.17485 -10.16996
  Beta  occ. eigenvalues --  -10.14986 -10.14986 -10.14918 -10.14918 -10.14415
  Beta  occ. eigenvalues --  -10.14414 -10.13646 -10.13645 -10.13447 -10.13446
  Beta  occ. eigenvalues --   -1.03692  -1.03691  -0.94305  -0.93821  -0.82806
  Beta  occ. eigenvalues --   -0.82166  -0.75295  -0.72823  -0.72806  -0.71616
  Beta  occ. eigenvalues --   -0.68238  -0.66736  -0.63188  -0.60315  -0.58403
  Beta  occ. eigenvalues --   -0.56507  -0.52951  -0.51666  -0.50978  -0.47197
  Beta  occ. eigenvalues --   -0.46734  -0.45521  -0.44905  -0.44885  -0.44629
  Beta  occ. eigenvalues --   -0.42182  -0.42165  -0.40724  -0.40310  -0.39855
  Beta  occ. eigenvalues --   -0.38033  -0.37946  -0.37244  -0.36098  -0.35797
  Beta  occ. eigenvalues --   -0.34216  -0.33632  -0.32660  -0.32605  -0.31939
  Beta  occ. eigenvalues --   -0.30602  -0.29470  -0.26700  -0.26576  -0.23497
  Beta  occ. eigenvalues --   -0.22585  -0.22130  -0.21171  -0.20233  -0.19418
  Beta  occ. eigenvalues --   -0.10183
  Beta virt. eigenvalues --   -0.02676  -0.00088   0.00209   0.00730   0.01317
  Beta virt. eigenvalues --    0.01887   0.01962   0.02191   0.02765   0.03145
  Beta virt. eigenvalues --    0.04009   0.04061   0.04705   0.05406   0.05632

 Mulliken charges and spin densities:
               1          2
     1  C   -0.113513  -0.000000
     2  C   -0.692398   0.000000
     3  C    0.020719  -0.000000
     4  C    0.391253  -0.000000
     5  C    0.185873   0.000000
     6  C    0.014214   0.000000
     7  C   -0.672089  -0.000000
     8  C    0.391496  -0.000000
     9  C    0.185675  -0.000000
    10  C   -0.488461  -0.000000
    11  C   -0.113439   0.000000
    12  C   -0.692738  -0.000000
    13  C    0.020457  -0.000000
    14  C    0.013928   0.000000
    15  O   -0.654686   0.000000
    16  O   -0.639616   0.000000
    17  H    0.151283  -0.000000
    18  H    0.151279   0.000000
    19  H    0.159157   0.000000
    20  H    0.159157  -0.000000
    21  O   -0.217472   0.000000
    22  C   -0.288687  -0.000000
    23  O   -0.217511  -0.000000
    24  H    0.186433   0.000000
    25  H    0.160795   0.000000
    26  H    0.136814  -0.000000
    27  H    0.133358   0.000000
    28  C   -0.288683  -0.000000
    29  H    0.186442  -0.000000
    30  H    0.160773  -0.000000
    31  H    0.133364   0.000000
    32  H    0.136822   0.000000
 Sum of Mulliken charges =  -2.00000   0.00000

 Dipole moment (field-independent basis, Debye):
    X=              0.0028    Y=             -2.7827    Z=              4.6483  Tot=              5.4176
 Quadrupole moment (field-independent basis, Debye-Ang):
   XX=           -152.5811   YY=           -177.1513   ZZ=           -129.0723
   XY=              0.0072   XZ=             -0.0001   YZ=             -9.6563

 Normal termination of Gaussian 16 at Sun Jan 14 01:28:34 2024.
