 Gaussian 16, Revision A.03,
 Gaussian 16:  ES64L-G16RevA.03 25-Dec-2016

 --------------------------------------
 #P UB3LYP/6-311++G(d,p) nosym opt freq
 --------------------------------------

 -------
 Reduced
 -------
 Symbolic Z-matrix:
 Charge = -2 Multiplicity = 1

 SCF Done:  E(UB3LYP) =  -918.040573410     A.U. after   30 cycles
 Optimization completed.
    -- Stationary point found.
 Normal termination of Gaussian 16 at Wed Dec 27 20:38:32 2023.

 ----------------------------------------------------------------------
 #P Geom=AllCheck Guess=TCheck SCRF=Check GenChk UB3LYP/6-311++G(d,p) F
 req
 ----------------------------------------------------------------------

 Structure from the checkpoint file:  "142-an.chk"
 -------
 Reduced
 -------
 Charge = -2 Multiplicity = 1

                          Input orientation:
 ---------------------------------------------------------------------
 Center     Atomic      Atomic             Coordinates (Angstroms)
 Number     Number       Type             X           Y           Z
 ---------------------------------------------------------------------
      1          6           0       -3.259526    3.423723    0.398216
      2          6           0       -4.478665    2.789196    0.433809
      3          6           0       -4.554642    1.373913    0.497490
      4          6           0       -2.043936    2.693011    0.414672
      5          6           0       -2.109180    1.250101    0.462598
      6          6           0       -3.385888    0.640579    0.512061
      7          6           0       -0.787409    3.418850    0.376235
      8          6           0        0.398770    2.582118    0.381427
      9          6           0        0.334188    1.139175    0.429252
     10          6           0       -0.922627    0.412883    0.472177
     11          6           0        1.674717    3.199626    0.331209
     12          6           0        2.831818    2.457127    0.334479
     13          6           0        2.780849    1.040688    0.397619
     14          6           0        1.551247    0.416340    0.444686
     15          8           0       -0.730211    4.694069    0.328554
     16          8           0       -0.979843   -0.862283    0.519793
     17          1           0       -3.404671   -0.443312    0.564872
     18          1           0        1.473054   -0.664854    0.498185
     19          1           0       -3.193047    4.506026    0.365225
     20          1           0        1.705854    4.283539    0.298847
     21          8           0        4.086384    3.087895    0.321624
     22          6           0        4.606731    3.310741   -0.980604
     23          8           0       -5.670848    3.531016    0.453769
     24          1           0        3.707911    0.474211    0.419704
     25          1           0        5.590735    3.779123   -0.865042
     26          1           0        3.956924    3.978458   -1.561689
     27          1           0        4.725518    2.368810   -1.535660
     28          6           0       -6.202325    3.803329   -0.834485
     29          1           0       -5.528323    0.893839    0.545426
     30          1           0       -7.136597    4.358514   -0.693368
     31          1           0       -6.420101    2.877376   -1.386410
     32          1           0       -5.509973    4.410965   -1.432113
 ---------------------------------------------------------------------

 SCF Done:  E(UB3LYP) =  -918.040573410     A.U. after    6 cycles

 Alpha  occ. eigenvalues --  -18.93683 -18.93682 -18.81047 -18.80942 -10.03151
 Alpha  occ. eigenvalues --  -10.03151 -10.00034 -10.00034  -9.96920  -9.96734
 Alpha  occ. eigenvalues --   -9.94930  -9.94929  -9.94540  -9.94539  -9.94109
 Alpha  occ. eigenvalues --   -9.94109  -9.93227  -9.93226  -9.92900  -9.92899
 Alpha  occ. eigenvalues --   -0.84554  -0.84554  -0.73045  -0.72666  -0.62337
 Alpha  occ. eigenvalues --   -0.61818  -0.55207  -0.53056  -0.52589  -0.51632
 Alpha  occ. eigenvalues --   -0.49428  -0.47585  -0.42826  -0.40317  -0.38307
 Alpha  occ. eigenvalues --   -0.36356  -0.32901  -0.31788  -0.31401  -0.27687
 Alpha  occ. eigenvalues --   -0.27048  -0.26512  -0.26444  -0.25853  -0.25728
 Alpha  occ. eigenvalues --   -0.22827  -0.22564  -0.20220  -0.20180  -0.19336
 Alpha  occ. eigenvalues --   -0.18031  -0.17158  -0.16727  -0.16494  -0.15262
 Alpha  occ. eigenvalues --   -0.14480  -0.13146  -0.12423  -0.11862  -0.11174
 Alpha  occ. eigenvalues --   -0.09879  -0.08839  -0.07514  -0.07382  -0.02827
 Alpha  occ. eigenvalues --   -0.01696  -0.00896  -0.00651   0.01239   0.01908
 Alpha  occ. eigenvalues --    0.11314
 Alpha virt. eigenvalues --    0.12933   0.13156   0.16364   0.16382   0.16813
 Alpha virt. eigenvalues --    0.16855   0.18072   0.18546   0.18971   0.19532
 Alpha virt. eigenvalues --    0.20556   0.20675   0.20768   0.21748   0.22375

  Beta  occ. eigenvalues --  -18.93683 -18.93682 -18.81047 -18.80942 -10.03151
  Beta  occ. eigenvalues --  -10.03151 -10.00034 -10.00034  -9.96920  -9.96734
  Beta  occ. eigenvalues --   -9.94930  -9.94929  -9.94540  -9.94539  -9.94109
  Beta  occ. eigenvalues --   -9.94109  -9.93227  -9.93226  -9.92900  -9.92899
  Beta  occ. eigenvalues --   -0.84554  -0.84554  -0.73045  -0.72666  -0.62337
  Beta  occ. eigenvalues --   -0.61818  -0.55207  -0.53056  -0.52589  -0.51632
  Beta  occ. eigenvalues --   -0.49428  -0.47585  -0.42826  -0.40317  -0.38307
  Beta  occ. eigenvalues --   -0.36356  -0.32901  -0.31788  -0.31401  -0.27687
  Beta  occ. eigenvalues --   -0.27048  -0.26512  -0.26444  -0.25853  -0.25728
  Beta  occ. eigenvalues --   -0.22827  -0.22564  -0.20220  -0.20180  -0.19336
  Beta  occ. eigenvalues --   -0.18031  -0.17158  -0.16727  -0.16494  -0.15262
  Beta  occ. eigenvalues --   -0.14480  -0.13146  -0.12423  -0.11862  -0.11174
  Beta  occ. eigenvalues --   -0.09879  -0.08839  -0.07514  -0.07382  -0.02827
  Beta  occ. eigenvalues --   -0.01696  -0.00896  -0.00651   0.01239   0.01908
  Beta  occ. eigenvalues --    0.11314
  Beta virt. eigenvalues --    0.12933   0.13156   0.16364   0.16382   0.16813
  Beta virt. eigenvalues --    0.16855   0.18072   0.18546   0.18971   0.19532
  Beta virt. eigenvalues --    0.20556   0.20675   0.20768   0.21748   0.22375

 Mulliken charges and spin densities:
               1          2
     1  C   -0.132937  -0.000000
     2  C   -0.674244   0.000000
     3  C    0.142344   0.000000
     4  C    0.467028   0.000000
     5  C    0.255306  -0.000000
     6  C    0.052537   0.000000
     7  C   -0.889544   0.000000
     8  C    0.467331  -0.000000
     9  C    0.255107   0.000000
    10  C   -0.775449   0.000000
    11  C   -0.133083   0.000000
    12  C   -0.674949  -0.000000
    13  C    0.142462  -0.000000
    14  C    0.052148   0.000000
    15  O   -0.463487  -0.000000
    16  O   -0.469706  -0.000000
    17  H    0.148394   0.000000
    18  H    0.148420  -0.000000
    19  H    0.169188   0.000000
    20  H    0.169261  -0.000000
    21  O   -0.211677   0.000000
    22  C    0.423724  -0.000000
    23  O   -0.211698  -0.000000
    24  H    0.078946   0.000000
    25  H   -0.400604   0.000000
    26  H   -0.012340   0.000000
    27  H   -0.006182   0.000000
    28  C    0.423007   0.000000
    29  H    0.079178  -0.000000
    30  H   -0.400540  -0.000000
    31  H   -0.005860  -0.000000
    32  H   -0.012079  -0.000000
 Sum of Mulliken charges =  -2.00000   0.00000

 Dipole moment (field-independent basis, Debye):
    X=              7.9886    Y=            -23.5736    Z=             -2.9901  Tot=             25.0694
 Quadrupole moment (field-independent basis, Debye-Ang):
   XX=           -276.6029   YY=           -240.4217   ZZ=           -138.7350
   XY=             23.6553   XZ=              4.5313   YZ=             -1.9840

  Exact polarizability:6165.228-255.395 622.188 -84.468-151.388 451.252
 Approx polarizability:9961.827-404.1511242.595-148.411-491.917 728.530

                      1                      2                      3
                      A                      A                      A
 Frequencies --     10.1888                12.7938                38.0900
 Red. masses --      2.7611                 2.7671                 6.4857
 Frc consts  --      0.0002                 0.0003                 0.0055
 IR Inten    --      5.2477                 5.8864                 0.3195

                      4                      5                      6
                      A                      A                      A
 Frequencies --     73.4838               101.6065               147.4324
 Red. masses --      4.2432                 5.7889                 1.7187
 Frc consts  --      0.0135                 0.0352                 0.0220
 IR Inten    --      8.3548                 4.0488                 1.8511

                      7                      8                      9
                      A                      A                      A
 Frequencies --    149.6105               160.6911               165.1502
 Red. masses --      3.8926                 5.7184                 1.0925
 Frc consts  --      0.0513                 0.0870                 0.0176
 IR Inten    --     26.3908                 0.9427                16.7911

                     10                     11                     12
                      A                      A                      A
 Frequencies --    192.1985               193.8078               245.0329
 Red. masses --      2.0128                 4.7936                 4.9106
 Frc consts  --      0.0438                 0.1061                 0.1737
 IR Inten    --      4.1496                 6.6731                63.6610

                     13                     14                     15
                      A                      A                      A
 Frequencies --    256.1213               296.3368               338.8338
 Red. masses --      7.3193                 7.6689                 9.7090
 Frc consts  --      0.2829                 0.3968                 0.6567
 IR Inten    --      9.1594                 2.9170                10.9981

                     16                     17                     18
                      A                      A                      A
 Frequencies --    373.1562               380.2991               399.0505
 Red. masses --      5.2343                 8.8911                 5.0401
 Frc consts  --      0.4294                 0.7576                 0.4729
 IR Inten    --      3.8144                13.4420                16.3817

                     19                     20                     21
                      A                      A                      A
 Frequencies --    410.6955               423.1960               459.4989
 Red. masses --      6.0842                 4.0908                 4.9040
 Frc consts  --      0.6046                 0.4317                 0.6101
 IR Inten    --     29.0079                 0.5640                 0.0539

                     22                     23                     24
                      A                      A                      A
 Frequencies --    469.6678               476.9564               502.7951
 Red. masses --     10.8262                 3.1817                 5.3843
 Frc consts  --      1.4070                 0.4264                 0.8020
 IR Inten    --    143.2140                 5.1118                18.0483

                     25                     26                     27
                      A                      A                      A
 Frequencies --    573.7465               582.6503               621.0924
 Red. masses --      6.2972                 5.4468                 4.3780
 Frc consts  --      1.2213                 1.0894                 0.9950
 IR Inten    --      0.0382                 3.0455                21.7935

                     28                     29                     30
                      A                      A                      A
 Frequencies --    654.0374               656.7950               703.3111
 Red. masses --      7.0412                 2.7566                 6.8633
 Frc consts  --      1.7746                 0.7006                 2.0002
 IR Inten    --      2.1748                 7.3517                 2.9612

                     31                     32                     33
                      A                      A                      A
 Frequencies --    718.6904               720.4743               737.2421
 Red. masses --      5.2195                 4.4314                 6.4469
 Frc consts  --      1.5884                 1.3553                 2.0645
 IR Inten    --      1.4001                22.8303                35.1043

                     34                     35                     36
                      A                      A                      A
 Frequencies --    768.7363               771.2823               785.1379
 Red. masses --      4.7294                 1.8994                 1.6468
 Frc consts  --      1.6467                 0.6657                 0.5981
 IR Inten    --     92.0644                13.6157                72.3494

                     37                     38                     39
                      A                      A                      A
 Frequencies --    822.1462               898.3757               924.2279
 Red. masses --      4.1188                 5.1088                 1.4204
 Frc consts  --      1.6403                 2.4293                 0.7148
 IR Inten    --      4.6488                63.0012                 5.7161

                     40                     41                     42
                      A                      A                      A
 Frequencies --    928.6211               930.8608               967.0028
 Red. masses --      1.4780                 5.7728                 1.2938
 Frc consts  --      0.7509                 2.9472                 0.7128
 IR Inten    --     30.5869               167.6356                 9.1400

                     43                     44                     45
                      A                      A                      A
 Frequencies --    971.1332               993.9082              1023.0820
 Red. masses --      1.3318                 2.9997                 4.2458
 Frc consts  --      0.7400                 1.7459                 2.6184
 IR Inten    --      9.6681                 5.7208                69.9180

                     46                     47                     48
                      A                      A                      A
 Frequencies --   1025.9574              1087.2776              1096.8293
 Red. masses --      3.9876                 2.4567                 1.5110
 Frc consts  --      2.4730                 1.7111                 1.0710
 IR Inten    --   1162.9591                59.5742                98.7097

                     49                     50                     51
                      A                      A                      A
 Frequencies --   1118.8941              1141.0735              1162.0428
 Red. masses --      1.5868                 3.1228                 1.2843
 Frc consts  --      1.1704                 2.3956                 1.0218
 IR Inten    --     26.2883               580.4736                 1.2872

                     52                     53                     54
                      A                      A                      A
 Frequencies --   1162.4790              1176.7478              1192.0297
 Red. masses --      1.2724                 2.2457                 1.7143
 Frc consts  --      1.0131                 1.8322                 1.4352
 IR Inten    --      8.2974                20.6554               114.6418

                     55                     56                     57
                      A                      A                      A
 Frequencies --   1193.5611              1201.4165              1212.8778
 Red. masses --      2.0740                 1.9747                 2.6773
 Frc consts  --      1.7408                 1.6794                 2.3205
 IR Inten    --     10.6994                70.9412              1687.8538

                     58                     59                     60
                      A                      A                      A
 Frequencies --   1218.2869              1238.5500              1304.8968
 Red. masses --      3.0619                 2.0463                 2.3027
 Frc consts  --      2.6776                 1.8495                 2.3102
 IR Inten    --    117.4085                16.7595                42.3112

                     61                     62                     63
                      A                      A                      A
 Frequencies --   1333.2396              1351.3902              1367.7695
 Red. masses --      8.5788                 7.2660                 4.4621
 Frc consts  --      8.9845                 7.8183                 4.9183
 IR Inten    --    387.6713                13.9269               263.0786

                     64                     65                     66
                      A                      A                      A
 Frequencies --   1440.9343              1450.4845              1455.3783
 Red. masses --      2.1211                 1.5300                 1.7032
 Frc consts  --      2.5948                 1.8966                 2.1255
 IR Inten    --      8.9904                74.6656              1309.9092

                     67                     68                     69
                      A                      A                      A
 Frequencies --   1461.8636              1466.2906              1466.4126
 Red. masses --      2.6908                 1.1099                 1.0750
 Frc consts  --      3.3880                 1.4060                 1.3620
 IR Inten    --    944.5572                92.9065               353.8659

                     70                     71                     72
                      A                      A                      A
 Frequencies --   1471.3066              1483.3114              1491.2087
 Red. masses --      4.8885                 3.3891                 3.7004
 Frc consts  --      6.2350                 4.3933                 4.8481
 IR Inten    --    220.2804               483.5958               141.8418

                     73                     74                     75
                      A                      A                      A
 Frequencies --   1500.5904              1501.5116              1528.4579
 Red. masses --      1.0569                 1.0662                 6.1510
 Frc consts  --      1.4022                 1.4162                 8.4665
 IR Inten    --    599.0839                19.2816                36.9798

                     76                     77                     78
                      A                      A                      A
 Frequencies --   1562.6400              1592.3729              1594.0113
 Red. masses --      8.0316                 6.0899                 6.5258
 Frc consts  --     11.5551                 9.0981                 9.7694
 IR Inten    --   1055.5081              1247.2070                40.0343

                     79                     80                     81
                      A                      A                      A
 Frequencies --   2955.5157              2955.5734              3012.5551
 Red. masses --      1.0306                 1.0305                 1.1025
 Frc consts  --      5.3039                 5.3039                 5.8950
 IR Inten    --     68.2046                45.6958                22.0763

                     82                     83                     84
                      A                      A                      A
 Frequencies --   3012.6407              3042.9847              3043.0191
 Red. masses --      1.1024                 1.1023                 1.1023
 Frc consts  --      5.8952                 6.0140                 6.0141
 IR Inten    --     23.2469                30.6045                32.6488

                     85                     86                     87
                      A                      A                      A
 Frequencies --   3135.1568              3135.2945              3165.1011
 Red. masses --      1.0866                 1.0868                 1.0918
 Frc consts  --      6.2929                 6.2943                 6.4441
 IR Inten    --     49.5929                 0.5989                 8.5118

                     88                     89                     90
                      A                      A                      A
 Frequencies --   3165.6194              3172.5105              3172.9900
 Red. masses --      1.0920                 1.0892                 1.0894
 Frc consts  --      6.4474                 6.4591                 6.4621
 IR Inten    --     73.4622                44.3300                15.8114

 - Thermochemistry -
 -------------------
 Temperature   298.150 Kelvin.  Pressure   1.00000 Atm.
 Atom     1 has atomic number  6 and mass  12.00000

 Molecular mass:   268.07356 amu.
 Principal axes and moments of inertia in atomic units:
                           1         2         3
     Eigenvalues --  2291.215679914.45379**********
           X            0.99888   0.04322   0.01945
           Y           -0.04542   0.99020   0.13210
           Z           -0.01355  -0.13283   0.99105
 This molecule is an asymmetric top.
 Rotational symmetry number  1.
 Warning -- assumption of classical behavior for rotation
           may cause significant error
 Rotational temperatures (Kelvin)      0.03780     0.00874     0.00728
 Rotational constants (GHZ):           0.78768     0.18203     0.15176
 Zero-point vibrational energy     622359.0 (Joules/Mol)
                                  148.74738 (Kcal/Mol)
 Warning -- explicit consideration of  26 degrees of freedom as
           vibrations may cause significant error
 Vibrational temperatures:     14.66    18.41    54.80   105.73   146.19
          (Kelvin)            212.12   215.26   231.20   237.61   276.53
                              278.85   352.55   368.50   426.36   487.51
                              536.89   547.17   574.14   590.90   608.88
                              661.12   675.75   686.23   723.41   825.49
                              838.30   893.61   941.01   944.98  1011.91
                             1034.04  1036.60  1060.73  1106.04  1109.70
                             1129.64  1182.89  1292.56  1329.76  1336.08
                             1339.30  1391.30  1397.24  1430.01  1471.99
                             1476.12  1564.35  1578.09  1609.84  1641.75
                             1671.92  1672.55  1693.08  1715.06  1717.27
                             1728.57  1745.06  1752.84  1782.00  1877.46
                             1918.23  1944.35  1967.92  2073.18  2086.92
                             2093.96  2103.30  2109.67  2109.84  2116.88
                             2134.15  2145.52  2159.01  2160.34  2199.11
                             2248.29  2291.07  2293.43  4252.33  4252.41
                             4334.39  4334.52  4378.18  4378.23  4510.79
                             4510.99  4553.87  4554.62  4564.54  4565.22

 Zero-point correction=                           0.237044 (Hartree/Particle)
 Thermal correction to Energy=                    0.254328
 Thermal correction to Enthalpy=                  0.255272
 Thermal correction to Gibbs Free Energy=         0.188926
 Sum of electronic and zero-point Energies=           -917.803529
 Sum of electronic and thermal Energies=              -917.786246
 Sum of electronic and thermal Enthalpies=            -917.785301
 Sum of electronic and thermal Free Energies=         -917.851647

                     E (Thermal)             CV                S
                      KCal/Mol        Cal/Mol-Kelvin    Cal/Mol-Kelvin
 Total                  159.593             65.768            139.637
 Electronic               0.000              0.000              0.000
 Translational            0.889              2.981             42.657
 Rotational               0.889              2.981             33.957
 Vibrational            157.816             59.807             63.023
 Vibration     1          0.593              1.987              7.974
 Vibration     2          0.593              1.987              7.522
 Vibration     3          0.594              1.982              5.356
 Vibration     4          0.599              1.967              4.058
 Vibration     5          0.604              1.948              3.423
 Vibration     6          0.617              1.905              2.705
 Vibration     7          0.618              1.903              2.677
 Vibration     8          0.622              1.891              2.542
 Vibration     9          0.624              1.885              2.490
 Vibration    10          0.634              1.851              2.207
 Vibration    11          0.635              1.848              2.191
 Vibration    12          0.660              1.771              1.766
 Vibration    13          0.666              1.752              1.688
 Vibration    14          0.690              1.681              1.438
 Vibration    15          0.719              1.598              1.218
 Vibration    16          0.745              1.527              1.067
 Vibration    17          0.750              1.512              1.038
 Vibration    18          0.765              1.472              0.966
 Vibration    19          0.775              1.447              0.924
 Vibration    20          0.785              1.420              0.881
 Vibration    21          0.817              1.340              0.768
 Vibration    22          0.827              1.317              0.738
 Vibration    23          0.834              1.301              0.718
 Vibration    24          0.858              1.244              0.651
 Vibration    25          0.930              1.088              0.497
 Vibration    26          0.939              1.069              0.480

                           ! Non-Optimized Parameters !
 Normal termination of Gaussian 16 at Wed Dec 27 21:29:37 2023.
