 Q-Chem 5.4, Q-Chem, Inc., Pleasanton, CA (2021)
 Q-Chem 5.4.0 for Intel X86 EM64T Linux

User input:
--------------------------------------------------------------
$molecule
0 1
C                  1.1678960000      1.3293780000     -1.3886150000
C                 -0.1499540000      0.6653620000     -1.5043060000
C                 -0.5121960000     -0.3681750000     -0.7315990000
C                  0.4564230000     -0.8839070000      0.2898290000
C                  1.7697750000     -0.1823750000      0.4596480000
C                  2.1168380000      0.8516260000     -0.3420000000
C                  3.4346140000      1.5653010000     -0.2332240000
C                  2.6787890000     -0.7097210000      1.5346390000
O                  1.4496260000      2.2532950000     -2.1375600000
O                  0.1883060000     -1.8638630000      0.9649160000
H                 -0.8087500000      1.0780160000     -2.2618140000
H                  4.2694690000      0.8600880000     -0.2771110000
H                  3.5127480000      2.0958800000      0.7218510000
H                  3.5410600000      2.2916180000     -1.0372380000
H                  2.1597710000     -1.4399200000      2.1526130000
H                  3.0478170000      0.1012430000      2.1682470000
H                  3.5557360000     -1.1990150000      1.0963170000
C                 -1.8686190000     -1.0186830000     -0.8920650000
C                 -1.8350590000     -2.4961810000     -1.2778480000
O                 -2.5650960000     -0.8413220000      0.3747000000
C                 -3.9081820000     -0.6711140000      0.3258880000
C                 -4.4718550000     -0.5013200000      1.7129430000
O                 -4.5465650000     -0.6573530000     -0.6981860000
H                 -2.4243940000     -0.4632050000     -1.6490020000
H                 -2.8530900000     -2.8474140000     -1.4553490000
H                 -1.3729290000     -3.0907880000     -0.4916230000
H                 -1.2666980000     -2.6241880000     -2.2032630000
H                 -4.0477300000      0.3919220000      2.1776120000
H                 -4.1961840000     -1.3554740000      2.3348420000
H                 -5.5545150000     -0.4108110000      1.6562090000
$end
$rem
MAX_SCF_CYCLES=200
BASIS  =  6-311++G(d,p)
GUI  =  2
JOB_TYPE  =  SP
METHOD  =  B3LYP
SOLVENT_METHOD = PCM
$end
$pcm
theory = CPCM
$end
$solvent
dielectric 37.219
opticaldielectric 1.43
$end

--------------------------------------------------------------

             Standard Nuclear Orientation (Angstroms)
    I     Atom           X                Y                Z
 ----------------------------------------------------------------
    1      C       1.1678960000     1.3293780000    -1.3886150000
    2      C      -0.1499540000     0.6653620000    -1.5043060000
    3      C      -0.5121960000    -0.3681750000    -0.7315990000
    4      C       0.4564230000    -0.8839070000     0.2898290000
    5      C       1.7697750000    -0.1823750000     0.4596480000
    6      C       2.1168380000     0.8516260000    -0.3420000000
    7      C       3.4346140000     1.5653010000    -0.2332240000
    8      C       2.6787890000    -0.7097210000     1.5346390000
    9      O       1.4496260000     2.2532950000    -2.1375600000
   10      O       0.1883060000    -1.8638630000     0.9649160000
   11      H      -0.8087500000     1.0780160000    -2.2618140000
   12      H       4.2694690000     0.8600880000    -0.2771110000
   13      H       3.5127480000     2.0958800000     0.7218510000
   14      H       3.5410600000     2.2916180000    -1.0372380000
   15      H       2.1597710000    -1.4399200000     2.1526130000
   16      H       3.0478170000     0.1012430000     2.1682470000
   17      H       3.5557360000    -1.1990150000     1.0963170000
   18      C      -1.8686190000    -1.0186830000    -0.8920650000
   19      C      -1.8350590000    -2.4961810000    -1.2778480000
   20      O      -2.5650960000    -0.8413220000     0.3747000000
   21      C      -3.9081820000    -0.6711140000     0.3258880000
   22      C      -4.4718550000    -0.5013200000     1.7129430000
   23      O      -4.5465650000    -0.6573530000    -0.6981860000
   24      H      -2.4243940000    -0.4632050000    -1.6490020000
   25      H      -2.8530900000    -2.8474140000    -1.4553490000
   26      H      -1.3729290000    -3.0907880000    -0.4916230000
   27      H      -1.2666980000    -2.6241880000    -2.2032630000
   28      H      -4.0477300000     0.3919220000     2.1776120000
   29      H      -4.1961840000    -1.3554740000     2.3348420000
   30      H      -5.5545150000    -0.4108110000     1.6562090000
 ----------------------------------------------------------------

    9    -766.8375010417      5.04e-06  Convergence criterion met
 Total energy in the final basis set =     -766.8375010417

                    Orbital Energies (a.u.)
 --------------------------------------------------------------

 Alpha MOs
 -- Occupied --
-19.1761 -19.1409 -19.1408 -19.1264 -10.3163 -10.2873 -10.2842 -10.2510
-10.2201 -10.2116 -10.2101 -10.2086 -10.1779 -10.1704 -10.1702 -10.1665
 -1.1189  -1.0744  -1.0712  -1.0363  -0.8708  -0.8327  -0.7830  -0.7483
 -0.7428  -0.6958  -0.6910  -0.6510  -0.6018  -0.5968  -0.5654  -0.5313
 -0.5105  -0.5036  -0.4864  -0.4846  -0.4698  -0.4641  -0.4510  -0.4392
 -0.4317  -0.4272  -0.4212  -0.4178  -0.4115  -0.4095  -0.4051  -0.3986
 -0.3896  -0.3816  -0.3782  -0.3738  -0.3585  -0.3210  -0.3090  -0.2967
 -0.2909  -0.2760  -0.2752

          Ground-State Mulliken Net Atomic Charges

     Atom                 Charge (a.u.)
  ----------------------------------------
      1 C                    -0.770627
      2 C                    -0.404557
      3 C                     1.263480
      4 C                    -0.720316
      5 C                     0.435494
      6 C                     0.763385
      7 C                    -0.454214
      8 C                    -0.607103
      9 O                    -0.297648
     10 O                    -0.262373
     11 H                     0.254958
     12 H                     0.181543
     13 H                     0.194937
     14 H                     0.192493
     15 H                     0.194221
     16 H                     0.178599
     17 H                     0.201310
     18 C                    -0.611278
     19 C                    -0.600234
     20 O                     0.106657
     21 C                     0.332577
     22 C                    -0.595419
     23 O                    -0.346731
     24 H                     0.245045
     25 H                     0.182707
     26 H                     0.202192
     27 H                     0.164617
     28 H                     0.199017
     29 H                     0.194875
     30 H                     0.182394
  ----------------------------------------
  Sum of atomic charges =     0.000000

                    Cartesian Multipole Moments
 -----------------------------------------------------------------
    Charge (ESU x 10^10)
                 0.0000
    Dipole Moment (Debye)
         X       2.6798      Y      -0.3791      Z       2.3887
       Tot       3.6099
    Quadrupole Moments (Debye-Ang)
        XX     -95.5322     XY      -3.4444     YY    -103.4272
        XZ      -3.8577     YZ      10.4054     ZZ     -96.6063

 Total job time:  63.42s(wall), 323.98s(cpu)
        *  Thank you very much for using Q-Chem.  Have a nice day.  *
