 Gaussian 16, Revision A.03,
 Gaussian 16:  ES64L-G16RevA.03 25-Dec-2016

 ----------------------------------------------------------------
 #P UB3LYP/6-311++G(d,p) SCRF=(PCM,Solvent=n,n-DiMethylFormamide)
 ----------------------------------------------------------------

 ------------------
 Quinone PCM in DMF
 ------------------
 Symbolic Z-matrix:
 Charge =  0 Multiplicity = 1

                         Standard orientation:
 ---------------------------------------------------------------------
 Center     Atomic      Atomic             Coordinates (Angstroms)
 Number     Number       Type             X           Y           Z
 ---------------------------------------------------------------------
      1          8           0        1.420132   -2.339576   -0.000211
      2          6           0        0.816564   -1.163677   -0.000111
      3          6           0        1.472234    0.020790    0.000138
      4         17           0        3.198585    0.123164   -0.000076
      5          6           0        0.700779    1.253298    0.000680
      6          8           0        1.169142    2.379902   -0.000289
      7          6           0       -0.816553    1.163652    0.000263
      8          6           0       -1.472239   -0.020810    0.000117
      9         17           0       -3.198575   -0.123172   -0.000176
     10          6           0       -0.700793   -1.253329    0.000153
     11          8           0       -1.169266   -2.379897    0.000194
     12          8           0       -1.420029    2.339626   -0.000082
     13          1           0        0.707474   -3.012200   -0.000020
     14          1           0       -0.707428    3.012345   -0.000019
 ---------------------------------------------------------------------

 SCF Done:  E(UB3LYP) =  -1451.32537957     A.U. after   16 cycles

 The electronic state is 1-A.
 Alpha  occ. eigenvalues -- -101.58216-101.58216 -19.20693 -19.20692 -19.16865
 Alpha  occ. eigenvalues --  -19.16864 -10.31873 -10.31871 -10.30371 -10.30370
 Alpha  occ. eigenvalues --  -10.26871 -10.26869  -9.49646  -9.49645  -7.26145
 Alpha  occ. eigenvalues --   -7.26145  -7.25120  -7.25120  -7.25062  -7.25062
 Alpha  occ. eigenvalues --   -1.14039  -1.13772  -1.09271  -1.09135  -0.92259
 Alpha  occ. eigenvalues --   -0.90616  -0.84454  -0.77597  -0.72786  -0.67339
 Alpha  occ. eigenvalues --   -0.63840  -0.62316  -0.57359  -0.56494  -0.50642
 Alpha  occ. eigenvalues --   -0.49979  -0.49857  -0.48286  -0.48218  -0.46832
 Alpha  occ. eigenvalues --   -0.44458  -0.43187  -0.41607  -0.41493  -0.37624
 Alpha  occ. eigenvalues --   -0.37158  -0.34990  -0.34398  -0.32761  -0.32220
 Alpha  occ. eigenvalues --   -0.29636  -0.26386
 Alpha virt. eigenvalues --   -0.14955  -0.02954  -0.02435  -0.01817  -0.00521
 Alpha virt. eigenvalues --    0.00685   0.01059   0.02730   0.03453   0.04550
 Alpha virt. eigenvalues --    0.05207   0.05360   0.06756   0.07774   0.08214

  Beta  occ. eigenvalues -- -101.58216-101.58216 -19.20693 -19.20692 -19.16865
  Beta  occ. eigenvalues --  -19.16864 -10.31873 -10.31871 -10.30371 -10.30370
  Beta  occ. eigenvalues --  -10.26871 -10.26869  -9.49646  -9.49645  -7.26145
  Beta  occ. eigenvalues --   -7.26145  -7.25120  -7.25120  -7.25062  -7.25062
  Beta  occ. eigenvalues --   -1.14039  -1.13772  -1.09271  -1.09135  -0.92259
  Beta  occ. eigenvalues --   -0.90616  -0.84454  -0.77597  -0.72786  -0.67339
  Beta  occ. eigenvalues --   -0.63840  -0.62316  -0.57359  -0.56494  -0.50642
  Beta  occ. eigenvalues --   -0.49979  -0.49857  -0.48286  -0.48218  -0.46832
  Beta  occ. eigenvalues --   -0.44458  -0.43187  -0.41607  -0.41493  -0.37624
  Beta  occ. eigenvalues --   -0.37158  -0.34990  -0.34398  -0.32761  -0.32220
  Beta  occ. eigenvalues --   -0.29636  -0.26386
  Beta virt. eigenvalues --   -0.14955  -0.02954  -0.02435  -0.01817  -0.00521
  Beta virt. eigenvalues --    0.00685   0.01059   0.02730   0.03453   0.04550
  Beta virt. eigenvalues --    0.05207   0.05360   0.06756   0.07774   0.08214

 Mulliken charges and spin densities:
               1          2
     1  O   -0.155278   0.000000
     2  C   -1.276400  -0.000000
     3  C    2.028274   0.000000
     4  Cl   0.261392   0.000000
     5  C   -0.902517   0.000000
     6  O   -0.272700  -0.000000
     7  C   -1.276522  -0.000000
     8  C    2.028245   0.000000
     9  Cl   0.261388  -0.000000
    10  C   -0.902421  -0.000000
    11  O   -0.272675   0.000000
    12  O   -0.155334   0.000000
    13  H    0.317265  -0.000000
    14  H    0.317284  -0.000000
 Sum of Mulliken charges =  -0.00000  -0.00000

 Dipole moment (field-independent basis, Debye):
    X=              0.0002    Y=             -0.0001    Z=              0.0020  Tot=              0.0020
 Quadrupole moment (field-independent basis, Debye-Ang):
   XX=            -93.6003   YY=            -81.7486   ZZ=            -79.6653
   XY=             -5.1942   XZ=              0.0016   YZ=              0.0037

 Normal termination of Gaussian 16 at Wed Jan 24 22:48:44 2024.
