 Q-Chem 5.4, Q-Chem, Inc., Pleasanton, CA (2021)
 Q-Chem 5.4.0 for Intel X86 EM64T Linux

User input:
--------------------------------------------------------------
$molecule
-1 2
C                  0.4910750000      1.7038820000     -2.0313420000
C                 -0.8688580000      2.0133190000     -2.4762580000
C                 -1.8160840000      1.0636980000     -2.6804860000
C                 -1.5477590000     -0.3557040000     -2.4691550000
C                 -0.2177680000     -0.6709090000     -2.0315000000
C                  0.7745180000      0.2828990000     -1.8129320000
O                  1.3214130000      2.6256750000     -1.8638870000
O                 -2.4362670000     -1.2316910000     -2.6625120000
C                  3.2431310000      0.7550670000     -1.0801460000
C                  4.1706580000      1.0368820000     -2.0952660000
C                  3.4436150000      1.2283100000      0.2260060000
C                  4.5812920000      1.9910410000      0.5013120000
C                  5.2982380000      1.8018000000     -1.7871340000
C                  5.5077800000      2.2792000000     -0.4965600000
H                 -1.0767490000      3.0674970000     -2.6364180000
H                 -2.8177880000      1.3247720000     -3.0116680000
H                  0.0187610000     -1.7154580000     -1.8630920000
H                  4.7372070000      2.3645220000      1.5093800000
H                  6.0154250000      2.0274420000     -2.5711760000
H                  6.3875710000      2.8733270000     -0.2700350000
C                  2.0924720000     -0.1978490000     -1.3609980000
O                  2.3270080000     -1.3959420000     -1.1857460000
C                  2.4332870000      0.9460370000      1.3126820000
H                  2.2483430000     -0.1264880000      1.4181690000
H                  1.4744430000      1.4206260000      1.0816490000
H                  2.7790220000      1.3312500000      2.2753760000
C                  3.9405620000      0.5512470000     -3.5066560000
H                  3.0463960000      1.0168090000     -3.9329550000
H                  3.7909540000     -0.5314450000     -3.5383700000
H                  4.7905720000      0.7994050000     -4.1474600000
$end
$rem
MAX_SCF_CYCLES=200
BASIS  =  6-311++G(d,p)
GUI  =  2
JOB_TYPE  =  SP
METHOD  =  B3LYP
SOLVENT_METHOD = PCM
$end
$pcm
theory = CPCM
$end
$solvent
dielectric 37.219
opticaldielectric 1.43
$end

--------------------------------------------------------------

             Standard Nuclear Orientation (Angstroms)
    I     Atom           X                Y                Z
 ----------------------------------------------------------------
    1      C       0.4910750000     1.7038820000    -2.0313420000
    2      C      -0.8688580000     2.0133190000    -2.4762580000
    3      C      -1.8160840000     1.0636980000    -2.6804860000
    4      C      -1.5477590000    -0.3557040000    -2.4691550000
    5      C      -0.2177680000    -0.6709090000    -2.0315000000
    6      C       0.7745180000     0.2828990000    -1.8129320000
    7      O       1.3214130000     2.6256750000    -1.8638870000
    8      O      -2.4362670000    -1.2316910000    -2.6625120000
    9      C       3.2431310000     0.7550670000    -1.0801460000
   10      C       4.1706580000     1.0368820000    -2.0952660000
   11      C       3.4436150000     1.2283100000     0.2260060000
   12      C       4.5812920000     1.9910410000     0.5013120000
   13      C       5.2982380000     1.8018000000    -1.7871340000
   14      C       5.5077800000     2.2792000000    -0.4965600000
   15      H      -1.0767490000     3.0674970000    -2.6364180000
   16      H      -2.8177880000     1.3247720000    -3.0116680000
   17      H       0.0187610000    -1.7154580000    -1.8630920000
   18      H       4.7372070000     2.3645220000     1.5093800000
   19      H       6.0154250000     2.0274420000    -2.5711760000
   20      H       6.3875710000     2.8733270000    -0.2700350000
   21      C       2.0924720000    -0.1978490000    -1.3609980000
   22      O       2.3270080000    -1.3959420000    -1.1857460000
   23      C       2.4332870000     0.9460370000     1.3126820000
   24      H       2.2483430000    -0.1264880000     1.4181690000
   25      H       1.4744430000     1.4206260000     1.0816490000
   26      H       2.7790220000     1.3312500000     2.2753760000
   27      C       3.9405620000     0.5512470000    -3.5066560000
   28      H       3.0463960000     1.0168090000    -3.9329550000
   29      H       3.7909540000    -0.5314450000    -3.5383700000
   30      H       4.7905720000     0.7994050000    -4.1474600000
 ----------------------------------------------------------------

    9    -804.8532650990      4.52e-06  Convergence criterion met
 Total energy in the final basis set =     -804.8532650990

                    Orbital Energies (a.u.)
 --------------------------------------------------------------

 Alpha MOs
 -- Occupied --
-19.1108 -19.0908 -19.0900 -10.2618 -10.2403 -10.2310 -10.1816 -10.1815
-10.1787 -10.1770 -10.1768 -10.1767 -10.1749 -10.1689 -10.1660 -10.1659
-10.1597 -10.1596  -1.0415  -1.0167  -1.0109  -0.8623  -0.8336  -0.7815
 -0.7725  -0.7581  -0.7045  -0.6910  -0.6774  -0.6437  -0.6021  -0.5889
 -0.5728  -0.5402  -0.4977  -0.4829  -0.4797  -0.4768  -0.4599  -0.4409
 -0.4329  -0.4230  -0.4201  -0.4163  -0.4138  -0.4122  -0.4017  -0.3984
 -0.3906  -0.3889  -0.3791  -0.3698  -0.3696  -0.3498  -0.3440  -0.3362
 -0.2919  -0.2743  -0.2712  -0.2554  -0.2473  -0.2418  -0.2314  -0.1781

 Beta MOs
 -- Occupied --
-19.1099 -19.0846 -19.0834 -10.2614 -10.2396 -10.2300 -10.1815 -10.1815
-10.1778 -10.1769 -10.1768 -10.1739 -10.1737 -10.1689 -10.1660 -10.1659
-10.1596 -10.1596  -1.0398  -1.0073  -0.9977  -0.8622  -0.8274  -0.7815
 -0.7711  -0.7562  -0.7006  -0.6845  -0.6773  -0.6410  -0.6004  -0.5852
 -0.5727  -0.5385  -0.4956  -0.4809  -0.4791  -0.4738  -0.4583  -0.4394
 -0.4311  -0.4199  -0.4144  -0.4126  -0.4094  -0.4076  -0.4013  -0.3983
 -0.3854  -0.3771  -0.3691  -0.3675  -0.3583  -0.3496  -0.3438  -0.3357
 -0.2723  -0.2646  -0.2580  -0.2501  -0.2439  -0.2417  -0.2291

          Ground-State Mulliken Net Atomic Charges

     Atom                 Charge (a.u.)    Spin (a.u.)
  --------------------------------------------------------
      1 C                    -0.929758       0.010045
      2 C                    -0.210557       0.100784
      3 C                    -0.028784       0.000345
      4 C                    -0.523977       0.129508
      5 C                    -0.198693       0.126104
      6 C                     1.055322       0.119200
      7 O                    -0.313682       0.202130
      8 O                    -0.490416       0.265124
      9 C                     0.836593      -0.018871
     10 C                     0.247878       0.003508
     11 C                     0.258500       0.003383
     12 C                    -0.335740       0.001081
     13 C                    -0.323907       0.001298
     14 C                    -0.320952      -0.001467
     15 H                     0.218617      -0.006552
     16 H                     0.218771      -0.001948
     17 H                     0.227670      -0.016182
     18 H                     0.175928       0.000044
     19 H                     0.175775       0.000062
     20 H                     0.202942       0.000022
     21 C                    -0.500774       0.045751
     22 O                    -0.328211       0.034135
     23 C                    -0.589444       0.001135
     24 H                     0.182826      -0.000182
     25 H                     0.180023       0.000277
     26 H                     0.168968       0.000066
     27 C                    -0.587394       0.001215
     28 H                     0.181378       0.000121
     29 H                     0.181830      -0.000219
     30 H                     0.169266       0.000081
  --------------------------------------------------------
  Sum of atomic charges =    -1.000000

                    Cartesian Multipole Moments
 -----------------------------------------------------------------
    Charge (ESU x 10^10)
                -4.8032
    Dipole Moment (Debye)
         X      -1.1079      Y       1.2524      Z       9.2947
       Tot       9.4439
    Quadrupole Moments (Debye-Ang)
        XX    -133.9554     XY      -9.3606     YY    -131.7799
        XZ      -6.8422     YZ      -2.7156     ZZ    -122.2678

 Total job time:  68.91s(wall), 519.19s(cpu)
        *  Thank you very much for using Q-Chem.  Have a nice day.  *
