 Q-Chem 5.4, Q-Chem, Inc., Pleasanton, CA (2021)
 Q-Chem 5.4.0 for Intel X86 EM64T Linux

User input:
--------------------------------------------------------------
$molecule
-2 1
O                  5.0749340000     -0.2739330000     -0.4306260000
C                  3.7328030000      0.1079810000     -0.2537830000
C                  3.4832510000      1.4745540000      0.0207910000
C                  2.1761600000      1.8845290000      0.2022550000
C                  1.0770560000      0.9967920000      0.1291410000
C                 -0.2677590000      1.5124390000      0.3275050000
O                 -0.5000760000      2.7485850000      0.5688280000
C                 -1.3157210000      0.5183380000      0.2271560000
C                 -2.6681220000      0.9153690000      0.4182040000
C                 -3.7008370000      0.0185570000      0.3112290000
O                 -5.0193880000      0.4569320000      0.4751080000
C                 -3.4377010000     -1.3501980000      0.0387620000
C                 -2.1313030000     -1.7677130000     -0.1172160000
C                 -1.0361350000     -0.8740180000     -0.0519190000
C                  0.3056200000     -1.3868330000     -0.2571890000
O                  0.5521640000     -2.6229720000     -0.5067060000
C                  1.3488090000     -0.3950380000     -0.1519810000
C                  2.7023770000     -0.7923190000     -0.3371100000
H                  5.0627080000     -1.2213630000     -0.5995030000
H                  4.3156100000      2.1695070000      0.0827550000
H                  1.9432740000      2.9237190000      0.4128710000
H                 -2.8590180000      1.9575770000      0.6481100000
H                 -5.5500820000     -0.2944200000      0.7807580000
H                 -4.2651760000     -2.0513410000     -0.0561170000
H                 -1.8984410000     -2.8078480000     -0.3217530000
H                  2.8749940000     -1.8468800000     -0.5468160000
$end
$rem
MAX_SCF_CYCLES=200
BASIS  =  6-311++G(d,p)
GUI  =  2
JOB_TYPE  =  SP
METHOD  =  B3LYP
SOLVENT_METHOD = COSMO
$end
$solvent
dielectric 37.219
opticaldielectric 1.43
$end

--------------------------------------------------------------

             Standard Nuclear Orientation (Angstroms)
    I     Atom           X                Y                Z
 ----------------------------------------------------------------
    1      O       5.0555149324    -0.5901098534     0.0003122752
    2      C       3.7250960932    -0.1335666935    -0.0008821841
    3      C       3.5256373537     1.2683605956     0.0013390154
    4      C       2.2312080896     1.7520417175     0.0023482940
    5      C       1.0968708436     0.9066281100     0.0050101396
    6      C      -0.2310340004     1.4985874379     0.0004969713
    7      O      -0.4175167598     2.7656548287    -0.0049178163
    8      C      -1.3178333854     0.5418233186    -0.0002712218
    9      C      -2.6587280279     1.0162056019     0.0089170850
   10      C      -3.7249910068     0.1532233230    -0.0147584611
   11      O      -5.0281719637     0.6619758330    -0.0370291567
   12      C      -3.5122573961    -1.2509532239    -0.0134520181
   13      C      -2.2206952717    -1.7373188724     0.0118339666
   14      C      -1.0894287879    -0.8873504300     0.0001211958
   15      C       0.2360569443    -1.4776893077    -0.0028888466
   16      O       0.4372919063    -2.7467773816    -0.0043906023
   17      C       1.3176426933    -0.5221211353     0.0026852549
   18      C       2.6592696978    -0.9957007978    -0.0005634900
   19      H       5.0077393095    -1.5513514093     0.0052803840
   20      H       4.3853499420     1.9320735304     0.0016856655
   21      H       2.0364481958     2.8200208470     0.0024346695
   22      H      -2.8128655768     2.0891753788     0.0306665870
   23      H      -5.6161240948    -0.0003732747     0.3569173156
   24      H      -4.3650918571    -1.9269886713    -0.0445625078
   25      H      -2.0264356898    -2.8051051897     0.0178762414
   26      H       2.7931518131    -2.0764164876    -0.0017101597
 ----------------------------------------------------------------

   13    -839.4237790522      8.00e-06  Convergence criterion met
 Total energy in the final basis set =     -839.4237790522
    6    -839.7053444757      3.56e-06  Convergence criterion met
 Total energy in the final basis set =     -839.7053444757

                    Orbital Energies (a.u.)
 --------------------------------------------------------------

 Alpha MOs
 -- Occupied --
-19.1403 -19.1391 -19.0270 -19.0261 -10.2127 -10.2111 -10.1781 -10.1765
-10.1548 -10.1539 -10.1535 -10.1531 -10.1456 -10.1445 -10.1409 -10.1406
-10.1392 -10.1389  -1.0409  -1.0397  -0.9479  -0.9439  -0.8314  -0.8242
 -0.7538  -0.7302  -0.7273  -0.7077  -0.6411  -0.6234  -0.5976  -0.5758
 -0.5471  -0.5300  -0.5139  -0.4983  -0.4675  -0.4457  -0.4434  -0.4200
 -0.4129  -0.4061  -0.4041  -0.3977  -0.3883  -0.3838  -0.3721  -0.3694
 -0.3655  -0.3537  -0.3332  -0.3302  -0.3272  -0.3149  -0.3068  -0.2884
 -0.2374  -0.2298  -0.2206  -0.2104  -0.2053  -0.2026  -0.1081

          Ground-State Mulliken Net Atomic Charges

     Atom                 Charge (a.u.)
  ----------------------------------------
      1 O                    -0.352678
      2 C                    -0.636653
      3 C                    -0.263535
      4 C                     0.029985
      5 C                     0.146870
      6 C                    -0.462675
      7 O                    -0.696333
      8 C                     0.346657
      9 C                    -0.220573
     10 C                    -0.614510
     11 O                    -0.359643
     12 C                     0.002890
     13 C                    -0.122514
     14 C                     0.123706
     15 C                    -0.354466
     16 O                    -0.708745
     17 C                     0.392945
     18 C                     0.077848
     19 H                     0.315848
     20 H                     0.207545
     21 H                     0.163121
     22 H                     0.171245
     23 H                     0.309045
     24 H                     0.200104
     25 H                     0.160773
     26 H                     0.143745
  ----------------------------------------
  Sum of atomic charges =    -2.000000

                    Cartesian Multipole Moments
 -----------------------------------------------------------------
    Charge (ESU x 10^10)
                -9.6064
    Dipole Moment (Debye)
         X      -1.2991      Y      -3.3087      Z       0.8472
       Tot       3.6542
    Quadrupole Moments (Debye-Ang)
        XX    -136.9155     XY      10.9132     YY    -161.8184
        XZ      -4.6672     YZ       0.0247     ZZ    -115.7333

 Total job time:  92.37s(wall), 519.01s(cpu)
        *  Thank you very much for using Q-Chem.  Have a nice day.  *
