 Gaussian 16, Revision A.03,
 Gaussian 16:  ES64L-G16RevA.03 25-Dec-2016

 ----------------------------------------------------------------------
 #P UB3LYP/6-311++G(d,p) nosym opt freq SCRF=(PCM,Solvent=n,n-DiMethylF
 ormamide)
 ----------------------------------------------------------------------

 -------
 Reduced
 -------
 Symbolic Z-matrix:
 Charge = -2 Multiplicity = 1

 SCF Done:  E(UB3LYP) =  -1314.28894628     A.U. after   18 cycles
 SCF Done:  E(UB3LYP) =  -1314.28981814     A.U. after   16 cycles
 SCF Done:  E(UB3LYP) =  -1314.28934219     A.U. after   16 cycles
 SCF Done:  E(UB3LYP) =  -1314.29047144     A.U. after   16 cycles
 SCF Done:  E(UB3LYP) =  -1314.29065057     A.U. after   17 cycles
 SCF Done:  E(UB3LYP) =  -1314.29083867     A.U. after   17 cycles
 SCF Done:  E(UB3LYP) =  -1314.29101838     A.U. after   17 cycles
 SCF Done:  E(UB3LYP) =  -1314.29109789     A.U. after   14 cycles
 SCF Done:  E(UB3LYP) =  -1314.29110212     A.U. after   13 cycles
 SCF Done:  E(UB3LYP) =  -1314.29110770     A.U. after   13 cycles
 SCF Done:  E(UB3LYP) =  -1314.29110818     A.U. after   11 cycles
 SCF Done:  E(UB3LYP) =  -1314.29110864     A.U. after   11 cycles
 SCF Done:  E(UB3LYP) =  -1314.29110878     A.U. after   11 cycles
 SCF Done:  E(UB3LYP) =  -1314.29110891     A.U. after   12 cycles
 SCF Done:  E(UB3LYP) =  -1314.29110903     A.U. after   12 cycles
 SCF Done:  E(UB3LYP) =  -1314.29110917     A.U. after   12 cycles
 SCF Done:  E(UB3LYP) =  -1314.29110929     A.U. after   12 cycles
 SCF Done:  E(UB3LYP) =  -1314.29110937     A.U. after   12 cycles
 SCF Done:  E(UB3LYP) =  -1314.29110939     A.U. after   11 cycles
 Optimization completed.
    -- Stationary point found.
 Normal termination of Gaussian 16 at Sat Feb 10 13:22:46 2024.

 ----------------------------------------------------------------------
 #P Geom=AllCheck Guess=TCheck SCRF=Check GenChk UB3LYP/6-311++G(d,p) F
 req
 ----------------------------------------------------------------------

 Structure from the checkpoint file:  "067-an.chk"
 -------
 Reduced
 -------
 Charge = -2 Multiplicity = 1

                          Input orientation:
 ---------------------------------------------------------------------
 Center     Atomic      Atomic             Coordinates (Angstroms)
 Number     Number       Type             X           Y           Z
 ---------------------------------------------------------------------
      1          6           0       -0.824440   -1.221827    2.498591
      2          6           0       -1.027183   -1.762622    1.157967
      3          6           0       -0.687786   -1.099881    0.024089
      4          6           0       -0.013434    0.194494    0.013893
      5          6           0        0.290101    0.734971    1.310973
      6          6           0       -0.270853    0.088699    2.501804
      7          8           0       -1.164393   -1.921226    3.513487
      8          8           0        0.320781    0.695551   -1.116280
      9         16           0       -0.572858    1.077757    3.945555
     10          6           0        0.676337    0.742045    5.220957
     11          6           0        0.845330   -0.568339    5.669278
     12          6           0        1.407577    1.794448    5.762984
     13          6           0        2.324069    1.530775    6.781850
     14          6           0        1.768507   -0.820675    6.682999
     15          6           0        2.506235    0.226143    7.241159
     16          8           0       -0.481122    2.521233    3.610531
     17          8           0       -1.866698    0.694237    4.575041
     18          1           0       -1.502686   -2.739330    1.107487
     19          1           0       -0.883669   -1.540415   -0.950422
     20          1           0        0.258338   -1.363058    5.218587
     21          1           0        1.262855    2.798001    5.385512
     22          1           0        2.897522    2.344349    7.212040
     23          1           0        1.911417   -1.835069    7.038822
     24          1           0        3.221239    0.024799    8.031057
     25          6           0        1.380678    1.687677    1.457628
     26          6           0        1.773681    2.600885    0.310898
     27          8           0        2.054808    1.753436    2.505592
     28          1           0        0.910497    3.121124   -0.109441
     29          1           0        2.196240    2.017898   -0.511058
     30          1           0        2.507501    3.320839    0.679241
 ---------------------------------------------------------------------

 SCF Done:  E(UB3LYP) =  -1314.29110939     A.U. after    1 cycles

 Alpha  occ. eigenvalues --  -89.02560 -19.08973 -19.08766 -19.06723 -19.04053
 Alpha  occ. eigenvalues --  -19.03947 -10.22287 -10.20612 -10.20290 -10.19760
 Alpha  occ. eigenvalues --  -10.18054 -10.17940 -10.17883 -10.17837 -10.17712
 Alpha  occ. eigenvalues --  -10.16041 -10.15499 -10.15289 -10.14353 -10.14118
 Alpha  occ. eigenvalues --   -8.08885  -6.05200  -6.05059  -6.04955  -1.07857
 Alpha  occ. eigenvalues --   -0.99464  -0.97059  -0.96069  -0.95792  -0.86451
 Alpha  occ. eigenvalues --   -0.80481  -0.76805  -0.75288  -0.74321  -0.71837
 Alpha  occ. eigenvalues --   -0.68033  -0.65059  -0.61333  -0.60706  -0.58625
 Alpha  occ. eigenvalues --   -0.55177  -0.52112  -0.50448  -0.47868  -0.46610
 Alpha  occ. eigenvalues --   -0.46077  -0.45470  -0.44468  -0.44220  -0.43020
 Alpha  occ. eigenvalues --   -0.42695  -0.42295  -0.41147  -0.39309  -0.38449
 Alpha  occ. eigenvalues --   -0.38039  -0.37375  -0.37106  -0.36775  -0.35490
 Alpha  occ. eigenvalues --   -0.35270  -0.34957  -0.33231  -0.33066  -0.31405
 Alpha  occ. eigenvalues --   -0.30199  -0.28039  -0.27725  -0.26149  -0.25972
 Alpha  occ. eigenvalues --   -0.24702  -0.23334  -0.22366  -0.21429  -0.20721
 Alpha  occ. eigenvalues --   -0.14816
 Alpha virt. eigenvalues --   -0.04237  -0.02635  -0.01560  -0.00049   0.00755
 Alpha virt. eigenvalues --    0.01258   0.02116   0.02342   0.02778   0.03102
 Alpha virt. eigenvalues --    0.03773   0.04076   0.04517   0.04855   0.05327

  Beta  occ. eigenvalues --  -89.02560 -19.08973 -19.08766 -19.06723 -19.04053
  Beta  occ. eigenvalues --  -19.03947 -10.22287 -10.20612 -10.20290 -10.19760
  Beta  occ. eigenvalues --  -10.18054 -10.17940 -10.17883 -10.17837 -10.17712
  Beta  occ. eigenvalues --  -10.16041 -10.15499 -10.15289 -10.14353 -10.14118
  Beta  occ. eigenvalues --   -8.08885  -6.05200  -6.05059  -6.04955  -1.07857
  Beta  occ. eigenvalues --   -0.99464  -0.97059  -0.96069  -0.95792  -0.86451
  Beta  occ. eigenvalues --   -0.80481  -0.76805  -0.75288  -0.74321  -0.71837
  Beta  occ. eigenvalues --   -0.68033  -0.65059  -0.61333  -0.60706  -0.58625
  Beta  occ. eigenvalues --   -0.55177  -0.52112  -0.50448  -0.47868  -0.46610
  Beta  occ. eigenvalues --   -0.46077  -0.45470  -0.44468  -0.44220  -0.43020
  Beta  occ. eigenvalues --   -0.42695  -0.42295  -0.41147  -0.39309  -0.38449
  Beta  occ. eigenvalues --   -0.38039  -0.37375  -0.37106  -0.36775  -0.35490
  Beta  occ. eigenvalues --   -0.35270  -0.34957  -0.33231  -0.33066  -0.31405
  Beta  occ. eigenvalues --   -0.30199  -0.28039  -0.27725  -0.26149  -0.25972
  Beta  occ. eigenvalues --   -0.24702  -0.23334  -0.22366  -0.21429  -0.20721
  Beta  occ. eigenvalues --   -0.14816
  Beta virt. eigenvalues --   -0.04237  -0.02635  -0.01560  -0.00049   0.00755
  Beta virt. eigenvalues --    0.01258   0.02116   0.02342   0.02778   0.03102
  Beta virt. eigenvalues --    0.03773   0.04076   0.04517   0.04855   0.05327

 Mulliken charges and spin densities:
               1          2
     1  C   -0.137789   0.000000
     2  C   -0.311416  -0.000000
     3  C   -0.116239  -0.000000
     4  C   -0.646815   0.000000
     5  C    0.989169  -0.000000
     6  C   -0.119022  -0.000000
     7  O   -0.521278   0.000000
     8  O   -0.560474  -0.000000
     9  S    0.587317  -0.000000
    10  C   -0.053371   0.000000
    11  C   -0.145301  -0.000000
    12  C    0.060692   0.000000
    13  C   -0.366806   0.000000
    14  C   -0.351881  -0.000000
    15  C   -0.374956   0.000000
    16  O   -0.342757  -0.000000
    17  O   -0.206374  -0.000000
    18  H    0.180405  -0.000000
    19  H    0.174486  -0.000000
    20  H    0.260599  -0.000000
    21  H    0.228956  -0.000000
    22  H    0.206106   0.000000
    23  H    0.209769   0.000000
    24  H    0.179537  -0.000000
    25  C   -0.305914   0.000000
    26  C   -0.608291  -0.000000
    27  O   -0.388836  -0.000000
    28  H    0.167254   0.000000
    29  H    0.177340  -0.000000
    30  H    0.135891  -0.000000
 Sum of Mulliken charges =  -2.00000  -0.00000

 Dipole moment (field-independent basis, Debye):
    X=              3.9104    Y=             -4.7787    Z=            -21.1627  Tot=             22.0451
 Quadrupole moment (field-independent basis, Debye-Ang):
   XX=           -150.9821   YY=           -154.0304   ZZ=           -218.5057
   XY=             -6.9099   XZ=             30.9186   YZ=             -5.9411

  Exact polarizability: 270.402  69.827 338.191  55.904  13.316 382.505
 Approx polarizability: 305.339  83.234 403.297  60.129  12.763 414.115

                      1                      2                      3
                      A                      A                      A
 Frequencies --     22.9517                42.8895                58.2455
 Red. masses --      2.8048                 4.6100                 4.4888
 Frc consts  --      0.0009                 0.0050                 0.0090
 IR Inten    --      3.8255                 0.8897                 9.2556

                      4                      5                      6
                      A                      A                      A
 Frequencies --     67.8701                91.2131               128.9841
 Red. masses --      4.7007                 4.2675                 6.7508
 Frc consts  --      0.0128                 0.0209                 0.0662
 IR Inten    --      9.5151                 9.7419                10.0453

                      7                      8                      9
                      A                      A                      A
 Frequencies --    144.2967               154.1114               166.3848
 Red. masses --      2.2576                 3.2853                10.8544
 Frc consts  --      0.0277                 0.0460                 0.1770
 IR Inten    --      8.8639                 3.2844                 2.0980

                     10                     11                     12
                      A                      A                      A
 Frequencies --    186.7161               218.9573               241.6558
 Red. masses --      9.0141                 5.7445                 7.1034
 Frc consts  --      0.1852                 0.1623                 0.2444
 IR Inten    --      5.2972                10.2050                10.4470

                     13                     14                     15
                      A                      A                      A
 Frequencies --    275.8131               298.6312               315.2245
 Red. masses --      9.6142                 7.6346                 6.3696
 Frc consts  --      0.4309                 0.4011                 0.3729
 IR Inten    --      2.4411                 6.0647                 0.7806

                     16                     17                     18
                      A                      A                      A
 Frequencies --    321.2598               351.7517               382.6962
 Red. masses --      6.9381                 4.2710                 7.8960
 Frc consts  --      0.4219                 0.3114                 0.6813
 IR Inten    --      1.3529                10.4195                 3.7383

                     19                     20                     21
                      A                      A                      A
 Frequencies --    386.9745               412.2817               429.1280
 Red. masses --      7.9055                 2.9653                 7.0261
 Frc consts  --      0.6975                 0.2970                 0.7623
 IR Inten    --      4.1217                 0.4880                53.8943

                     22                     23                     24
                      A                      A                      A
 Frequencies --    467.9632               477.0954               520.5518
 Red. masses --     10.9698                 6.1011                 5.3358
 Frc consts  --      1.4154                 0.8182                 0.8519
 IR Inten    --     16.7835                 7.7848                26.6906

                     25                     26                     27
                      A                      A                      A
 Frequencies --    541.8659               555.7489               597.3269
 Red. masses --      5.7121                 6.3189                 3.3887
 Frc consts  --      0.9882                 1.1499                 0.7124
 IR Inten    --    109.2795               295.3783                42.3815

                     28                     29                     30
                      A                      A                      A
 Frequencies --    606.3150               627.3574               635.9190
 Red. masses --      5.5859                 6.4449                 4.3847
 Frc consts  --      1.2099                 1.4945                 1.0447
 IR Inten    --    200.3749                 8.8529                 1.8497

                     31                     32                     33
                      A                      A                      A
 Frequencies --    649.5594               705.2062               709.1284
 Red. masses --      2.8440                 3.3201                 3.4438
 Frc consts  --      0.7070                 0.9728                 1.0203
 IR Inten    --      9.4993                69.1283                36.0077

                     34                     35                     36
                      A                      A                      A
 Frequencies --    744.0250               764.2372               770.5468
 Red. masses --      6.8420                 1.5961                 6.4107
 Frc consts  --      2.2315                 0.5492                 2.2426
 IR Inten    --    145.1371                46.8944                12.4458

                     37                     38                     39
                      A                      A                      A
 Frequencies --    844.1234               862.3038               868.7622
 Red. masses --      2.6290                 4.2236                 1.2507
 Frc consts  --      1.1037                 1.8503                 0.5562
 IR Inten    --    135.5795               123.0989                 1.7227

                     40                     41                     42
                      A                      A                      A
 Frequencies --    905.3678               952.8761               981.4053
 Red. masses --      6.2276                 1.3607                 1.9160
 Frc consts  --      3.0076                 0.7279                 1.0873
 IR Inten    --     87.6768                 4.2426               184.7651

                     43                     44                     45
                      A                      A                      A
 Frequencies --    987.3318              1002.8417              1008.6487
 Red. masses --      1.3381                 1.3651                 5.5186
 Frc consts  --      0.7685                 0.8089                 3.3079
 IR Inten    --      4.2077                 2.0789                42.2264

                     46                     47                     48
                      A                      A                      A
 Frequencies --   1020.9669              1026.2882              1026.6511
 Red. masses --      7.7970                 1.6613                 1.4399
 Frc consts  --      4.7885                 1.0309                 0.8942
 IR Inten    --    257.9436                42.6919                37.3261

                     49                     50                     51
                      A                      A                      A
 Frequencies --   1045.7372              1079.5653              1092.3551
 Red. masses --      2.8701                 3.5391                 1.6413
 Frc consts  --      1.8492                 2.4302                 1.1539
 IR Inten    --     55.0920                59.3430                16.8567

                     52                     53                     54
                      A                      A                      A
 Frequencies --   1098.6275              1123.8949              1154.9832
 Red. masses --      3.1431                 1.6424                15.7642
 Frc consts  --      2.2351                 1.2223                12.3900
 IR Inten    --     85.6727                93.1378               353.8570

                     55                     56                     57
                      A                      A                      A
 Frequencies --   1175.2834              1193.1824              1199.4608
 Red. masses --      1.1154                 1.1625                 2.2763
 Frc consts  --      0.9078                 0.9751                 1.9296
 IR Inten    --      0.3922                 6.7552               298.1019

                     58                     59                     60
                      A                      A                      A
 Frequencies --   1246.6897              1294.4756              1324.6520
 Red. masses --      8.5538                 3.4126                 3.9073
 Frc consts  --      7.8329                 3.3692                 4.0395
 IR Inten    --    185.1126               379.7092                 2.8053

                     61                     62                     63
                      A                      A                      A
 Frequencies --   1345.4302              1351.1849              1379.5388
 Red. masses --      1.7749                 1.9149                 1.5249
 Frc consts  --      1.8929                 2.0598                 1.7098
 IR Inten    --    112.8039               207.9227               135.0347

                     64                     65                     66
                      A                      A                      A
 Frequencies --   1422.2326              1427.8519              1449.1068
 Red. masses --      2.6010                 1.4245                 1.0713
 Frc consts  --      3.0998                 1.7112                 1.3254
 IR Inten    --    211.1033               154.9669                28.7250

                     67                     68                     69
                      A                      A                      A
 Frequencies --   1470.6381              1473.1481              1481.8503
 Red. masses --      2.1416                10.3384                 4.4878
 Frc consts  --      2.7290                13.2189                 5.8062
 IR Inten    --     57.0249               106.7468              1530.4601

                     70                     71                     72
                      A                      A                      A
 Frequencies --   1506.7296              1569.8818              1617.4283
 Red. masses --      2.0483                 7.3150                 5.7428
 Frc consts  --      2.7397                10.6217                 8.8516
 IR Inten    --     28.1835               921.9114                 4.7092

                     73                     74                     75
                      A                      A                      A
 Frequencies --   1618.4400              1632.6138              3029.7591
 Red. masses --      5.3430                 6.8317                 1.0341
 Frc consts  --      8.2458                10.7287                 5.5929
 IR Inten    --     10.3615                66.8102                49.3860

                     76                     77                     78
                      A                      A                      A
 Frequencies --   3094.8035              3111.4427              3128.6282
 Red. masses --      1.0983                 1.1047                 1.0848
 Frc consts  --      6.1978                 6.3011                 6.2563
 IR Inten    --     21.0568                42.4580                30.1312

                     79                     80                     81
                      A                      A                      A
 Frequencies --   3149.7141              3150.8177              3164.5646
 Red. masses --      1.0927                 1.0951                 1.0871
 Frc consts  --      6.3868                 6.4057                 6.4140
 IR Inten    --     72.8370                63.1656                 3.4125

                     82                     83                     84
                      A                      A                      A
 Frequencies --   3173.8694              3185.9932              3209.6193
 Red. masses --      1.0915                 1.0965                 1.0922
 Frc consts  --      6.4780                 6.5575                 6.6294
 IR Inten    --     24.4906                43.3261                 5.2175

 - Thermochemistry -
 -------------------
 Temperature   298.150 Kelvin.  Pressure   1.00000 Atm.
 Atom     1 has atomic number  6 and mass  12.00000

 Molecular mass:   290.02490 amu.
 Principal axes and moments of inertia in atomic units:
                           1         2         3
     Eigenvalues --  3319.207447053.681688505.48936
           X            0.21455   0.59348   0.77572
           Y            0.04966   0.78656  -0.61551
           Z            0.97545  -0.17058  -0.13929
 This molecule is an asymmetric top.
 Rotational symmetry number  1.
 Warning -- assumption of classical behavior for rotation
           may cause significant error
 Rotational temperatures (Kelvin)      0.02609     0.01228     0.01018
 Rotational constants (GHZ):           0.54373     0.25586     0.21219
 Zero-point vibrational energy     548683.1 (Joules/Mol)
                                  131.13840 (Kcal/Mol)
 Warning -- explicit consideration of  28 degrees of freedom as
           vibrations may cause significant error
 Vibrational temperatures:     33.02    61.71    83.80    97.65   131.24
          (Kelvin)            185.58   207.61   221.73   239.39   268.64
                              315.03   347.69   396.83   429.66   453.54
                              462.22   506.09   550.61   556.77   593.18
                              617.42   673.29   686.43   748.96   779.62
                              799.60   859.42   872.35   902.63   914.95
                              934.57  1014.63  1020.28  1070.49  1099.57
                             1108.64  1214.51  1240.66  1249.96  1302.62
                             1370.98  1412.02  1420.55  1442.87  1451.22
                             1468.94  1476.60  1477.12  1504.58  1553.25
                             1571.66  1580.68  1617.03  1661.76  1690.97
                             1716.72  1725.76  1793.71  1862.46  1905.88
                             1935.77  1944.05  1984.85  2046.28  2054.36
                             2084.94  2115.92  2119.53  2132.05  2167.85
                             2258.71  2327.12  2328.57  2348.97  4359.15
                             4452.73  4476.67  4501.40  4531.74  4533.32
                             4553.10  4566.49  4583.93  4617.93

 Zero-point correction=                           0.208982 (Hartree/Particle)
 Thermal correction to Energy=                    0.226548
 Thermal correction to Enthalpy=                  0.227492
 Thermal correction to Gibbs Free Energy=         0.162621
 Sum of electronic and zero-point Energies=          -1314.082127
 Sum of electronic and thermal Energies=             -1314.064562
 Sum of electronic and thermal Enthalpies=           -1314.063617
 Sum of electronic and thermal Free Energies=        -1314.128488

                     E (Thermal)             CV                S
                      KCal/Mol        Cal/Mol-Kelvin    Cal/Mol-Kelvin
 Total                  142.161             66.955            136.532
 Electronic               0.000              0.000              0.000
 Translational            0.889              2.981             42.892
 Rotational               0.889              2.981             33.654
 Vibrational            140.383             60.993             59.986
 Vibration     1          0.593              1.985              6.361
 Vibration     2          0.595              1.980              5.121
 Vibration     3          0.596              1.974              4.516
 Vibration     4          0.598              1.970              4.214
 Vibration     5          0.602              1.955              3.634
 Vibration     6          0.611              1.924              2.961
 Vibration     7          0.616              1.909              2.746
 Vibration     8          0.620              1.898              2.621
 Vibration     9          0.624              1.884              2.476
 Vibration    10          0.632              1.858              2.260
 Vibration    11          0.647              1.812              1.968
 Vibration    12          0.658              1.777              1.791
 Vibration    13          0.677              1.718              1.559
 Vibration    14          0.692              1.676              1.425
 Vibration    15          0.703              1.645              1.335
 Vibration    16          0.707              1.633              1.304
 Vibration    17          0.728              1.572              1.158
 Vibration    18          0.752              1.507              1.028
 Vibration    19          0.755              1.498              1.012
 Vibration    20          0.776              1.444              0.919
 Vibration    21          0.790              1.407              0.862
 Vibration    22          0.825              1.321              0.743
 Vibration    23          0.834              1.301              0.718
 Vibration    24          0.876              1.204              0.609
 Vibration    25          0.897              1.158              0.561
 Vibration    26          0.911              1.127              0.532
 Vibration    27          0.955              1.037              0.454
 Vibration    28          0.965              1.018              0.439

 Optimization completed.
    -- Stationary point found.
 Normal termination of Gaussian 16 at Sat Feb 10 14:18:51 2024.
