 Q-Chem 5.4, Q-Chem, Inc., Pleasanton, CA (2021)
 Q-Chem 5.4.0 for Intel X86 EM64T Linux

User input:
--------------------------------------------------------------
$molecule
-1 2
C                 -3.3667910000      3.6844270000      0.0365830000
C                 -4.5752810000      3.0176410000      0.0577410000
C                 -4.5999090000      1.6056520000      0.0817270000
C                 -2.1421270000      2.9808910000      0.0383840000
C                 -2.1667060000      1.5556330000      0.0626140000
C                 -3.4157320000      0.8963450000      0.0839670000
C                 -0.8867690000      3.7356340000      0.0153540000
C                  0.3371190000      2.9336950000      0.0189100000
C                  0.3145350000      1.5110480000      0.0430850000
C                 -0.9386070000      0.7572050000      0.0659940000
C                  1.5859230000      3.5908670000     -0.0023550000
C                  2.7501920000      2.8624830000      0.0004510000
C                  2.7729080000      1.4443810000      0.0242290000
C                  1.5400810000      0.8134090000      0.0449140000
O                 -0.8603650000      4.9903300000     -0.0059080000
O                 -0.9591050000     -0.4988660000      0.0874840000
Br                 4.4333740000      3.8406280000     -0.0301770000
C                  4.0514280000      0.6473870000      0.0270470000
H                 -3.3175340000      4.7671310000      0.0179350000
H                 -5.5063820000      3.5765600000      0.0559650000
H                 -5.5500780000      1.0799900000      0.0983730000
H                 -3.4047620000     -0.1874340000      0.1021170000
H                  1.5865210000      4.6730260000     -0.0206230000
H                  1.4872120000     -0.2699940000      0.0636870000
H                  4.6749440000      0.8863800000      0.8949550000
H                  4.6577470000      0.8527320000     -0.8614900000
H                  3.8272040000     -0.4209310000      0.0495970000
$end

$rem
BASIS  =  6-311++G(d,p)
GUI  =  2
JOB_TYPE  =  SP
METHOD  =  B3LYP
SCF_CONVERGENCE  = 8
SOLVENT_METHOD = sm12
$end

$smx
solvent dimethylformamide
charges CM5
$end

--------------------------------------------------------------

             Standard Nuclear Orientation (Angstroms)
    I     Atom           X                Y                Z
 ----------------------------------------------------------------
    1      C      -3.3667910000     3.6844270000     0.0365830000
    2      C      -4.5752810000     3.0176410000     0.0577410000
    3      C      -4.5999090000     1.6056520000     0.0817270000
    4      C      -2.1421270000     2.9808910000     0.0383840000
    5      C      -2.1667060000     1.5556330000     0.0626140000
    6      C      -3.4157320000     0.8963450000     0.0839670000
    7      C      -0.8867690000     3.7356340000     0.0153540000
    8      C       0.3371190000     2.9336950000     0.0189100000
    9      C       0.3145350000     1.5110480000     0.0430850000
   10      C      -0.9386070000     0.7572050000     0.0659940000
   11      C       1.5859230000     3.5908670000    -0.0023550000
   12      C       2.7501920000     2.8624830000     0.0004510000
   13      C       2.7729080000     1.4443810000     0.0242290000
   14      C       1.5400810000     0.8134090000     0.0449140000
   15      O      -0.8603650000     4.9903300000    -0.0059080000
   16      O      -0.9591050000    -0.4988660000     0.0874840000
   17      Br      4.4333740000     3.8406280000    -0.0301770000
   18      C       4.0514280000     0.6473870000     0.0270470000
   19      H      -3.3175340000     4.7671310000     0.0179350000
   20      H      -5.5063820000     3.5765600000     0.0559650000
   21      H      -5.5500780000     1.0799900000     0.0983730000
   22      H      -3.4047620000    -0.1874340000     0.1021170000
   23      H       1.5865210000     4.6730260000    -0.0206230000
   24      H       1.4872120000    -0.2699940000     0.0636870000
   25      H       4.6749440000     0.8863800000     0.8949550000
   26      H       4.6577470000     0.8527320000    -0.8614900000
   27      H       3.8272040000    -0.4209310000     0.0495970000
 ----------------------------------------------------------------

   18   -3301.8886017494      5.78e-09  Convergence criterion met
 Total energy in the final basis set =    -3301.9746378538

                    Orbital Energies (a.u.)
 --------------------------------------------------------------

 Alpha MOs
 -- Occupied --
******** -62.4842 -56.3046 -56.3009 -56.3008 -19.0808 -19.0802 -10.2344
-10.2304 -10.2295 -10.2010 -10.1875 -10.1844 -10.1841 -10.1836 -10.1827
-10.1824 -10.1820 -10.1818 -10.1805 -10.1805 -10.1752  -8.6927  -6.5237
 -6.5115  -6.5110  -2.6346  -2.6313  -2.6309  -2.6212  -2.6211  -1.0078
 -1.0053  -0.8832  -0.8652  -0.8175  -0.7923  -0.7703  -0.7601  -0.7399
 -0.7066  -0.6679  -0.6395  -0.6151  -0.6026  -0.5670  -0.5328  -0.5292
 -0.4878  -0.4746  -0.4611  -0.4536  -0.4385  -0.4378  -0.4337  -0.4243
 -0.4227  -0.4144  -0.4065  -0.3920  -0.3852  -0.3805  -0.3755  -0.3602
 -0.3536  -0.3513  -0.3433  -0.3118  -0.2934  -0.2717  -0.2671  -0.2622
 -0.2505  -0.2499  -0.2414  -0.1480

 Beta MOs
 -- Occupied --
******** -62.4842 -56.3046 -56.3009 -56.3008 -19.0749 -19.0743 -10.2339
-10.2290 -10.2280 -10.2005 -10.1875 -10.1836 -10.1836 -10.1831 -10.1820
-10.1816 -10.1815 -10.1812 -10.1805 -10.1804 -10.1752  -8.6927  -6.5237
 -6.5114  -6.5110  -2.6345  -2.6312  -2.6309  -2.6212  -2.6210  -0.9977
 -0.9949  -0.8816  -0.8633  -0.8151  -0.7907  -0.7682  -0.7581  -0.7381
 -0.7047  -0.6614  -0.6384  -0.6125  -0.6021  -0.5646  -0.5304  -0.5278
 -0.4866  -0.4720  -0.4596  -0.4528  -0.4379  -0.4334  -0.4333  -0.4227
 -0.4134  -0.4082  -0.4039  -0.3915  -0.3794  -0.3733  -0.3616  -0.3596
 -0.3526  -0.3423  -0.3415  -0.3051  -0.2933  -0.2635  -0.2532  -0.2528
 -0.2450  -0.2432  -0.2359

          Ground-State Mulliken Net Atomic Charges

     Atom                 Charge (a.u.)    Spin (a.u.)
  --------------------------------------------------------
      1 C                    -0.026730       0.026675
      2 C                     1.043518       0.039726
      3 C                     0.940693       0.037675
      4 C                    -1.227933       0.037547
      5 C                    -0.720151       0.038789
      6 C                    -0.048036       0.026210
      7 C                    -2.650321       0.066796
      8 C                    -1.601583       0.048840
      9 C                    -1.388104       0.060612
     10 C                    -1.796761       0.073258
     11 C                     0.045117       0.019686
     12 C                     1.585087       0.034037
     13 C                     1.891486       0.039413
     14 C                    -0.353600       0.017806
     15 O                    -0.297998       0.219986
     16 O                    -0.306292       0.223339
     17 Br                    0.056742       0.001439
     18 C                     1.831683      -0.003806
     19 H                     0.159742      -0.001376
     20 H                     0.361473      -0.003095
     21 H                     0.357894      -0.003000
     22 H                     0.157976      -0.001524
     23 H                     0.179297      -0.001797
     24 H                     0.021721      -0.001883
     25 H                     0.219730       0.002215
     26 H                     0.219934       0.002231
     27 H                     0.345416       0.000199
  --------------------------------------------------------
  Sum of atomic charges =    -1.000000

                    Cartesian Multipole Moments
 -----------------------------------------------------------------
    Charge (ESU x 10^10)
                -4.8032
    Dipole Moment (Debye)
         X       2.8103      Y     -12.0743      Z      -0.1618
       Tot      12.3981
    Quadrupole Moments (Debye-Ang)
        XX    -133.0078     XY      -0.3881     YY    -181.0258
        XZ       0.2793     YZ       0.1002     ZZ    -124.1426

 Total job time:  761.60s(wall), 5895.68s(cpu)
        *  Thank you very much for using Q-Chem.  Have a nice day.  *
