 Gaussian 16, Revision A.03,
 Gaussian 16:  ES64L-G16RevA.03 25-Dec-2016

 ----------------------------------------------------------------
 #P UB3LYP/6-311++G(d,p) SCRF=(PCM,Solvent=n,n-DiMethylFormamide)
 ----------------------------------------------------------------

 -------
 Reduced
 -------
 Symbolic Z-matrix:
 Charge = -2 Multiplicity = 1

                         Standard orientation:
 ---------------------------------------------------------------------
 Center     Atomic      Atomic             Coordinates (Angstroms)
 Number     Number       Type             X           Y           Z
 ---------------------------------------------------------------------
      1          6           0        2.454981   -0.650975   -0.215491
      2          6           0        3.656919    0.047904   -0.158250
      3          6           0        3.667465    1.474367   -0.037657
      4          6           0        1.226599    0.019158   -0.172325
      5          6           0        1.212205    1.465997   -0.058247
      6          6           0        2.468400    2.136816   -0.000460
      7          6           0       -0.000096   -0.773916   -0.230394
      8          6           0       -1.226693    0.019337   -0.172000
      9          6           0       -1.212171    1.466122   -0.057591
     10          6           0        0.000098    2.245001    0.003369
     11          6           0       -2.455116   -0.650681   -0.215491
     12          6           0       -2.468265    2.136999    0.001076
     13          6           0       -3.667408    1.474628   -0.036046
     14          8           0       -0.000248   -2.034115   -0.310128
     15          8           0        0.000186    3.523664    0.108083
     16          1           0        2.435185   -1.731143   -0.303788
     17          1           0       -4.611843    2.003628    0.003176
     18          1           0        2.428979    3.218225    0.075426
     19          1           0       -2.435356   -1.730776   -0.304659
     20          1           0       -2.428789    3.218366    0.077476
     21          6           0       -3.656993    0.048299   -0.157640
     22         16           0        5.159538   -0.834078   -0.059389
     23         16           0       -5.159664   -0.833742   -0.059687
     24          8           0       -5.009088   -2.205478   -0.581967
     25          8           0       -6.307611   -0.038703   -0.531772
     26          7           0       -5.447526   -0.941552    1.655361
     27          1           0       -4.720700   -1.534229    2.051868
     28          1           0       -6.346641   -1.408663    1.772429
     29          8           0        5.008493   -2.206645   -0.579339
     30          8           0        6.307366   -0.039914   -0.533316
     31          7           0        5.448319   -0.938827    1.655532
     32          1           0        4.611938    2.003354    0.000831
     33          1           0        6.348499   -1.403727    1.772972
     34          1           0        4.722864   -1.532081    2.053625
 ---------------------------------------------------------------------

 SCF Done:  E(UB3LYP) =  -1897.26453326     A.U. after   19 cycles

 The electronic state is 1-A.
 Alpha  occ. eigenvalues --  -89.06611 -89.06611 -19.11976 -19.11976 -19.11974
 Alpha  occ. eigenvalues --  -19.11972 -19.05108 -19.02722 -14.33629 -14.33629
 Alpha  occ. eigenvalues --  -10.20940 -10.19895 -10.19894 -10.18713 -10.18368
 Alpha  occ. eigenvalues --  -10.18368 -10.17560 -10.17559 -10.16384 -10.16383
 Alpha  occ. eigenvalues --  -10.16161 -10.16160 -10.15729 -10.15728  -8.12795
 Alpha  occ. eigenvalues --   -8.12794  -6.09072  -6.09072  -6.09052  -6.09051
 Alpha  occ. eigenvalues --   -6.08867  -6.08867  -1.11804  -1.11803  -1.00785
 Alpha  occ. eigenvalues --   -1.00784  -0.97707  -0.94855  -0.89920  -0.89918
 Alpha  occ. eigenvalues --   -0.85761  -0.85371  -0.78907  -0.76196  -0.75398
 Alpha  occ. eigenvalues --   -0.74610  -0.69475  -0.66639  -0.65301  -0.61034
 Alpha  occ. eigenvalues --   -0.60165  -0.58082  -0.55465  -0.54220  -0.54137
 Alpha  occ. eigenvalues --   -0.51441  -0.51326  -0.50658  -0.50327  -0.48899
 Alpha  occ. eigenvalues --   -0.47148  -0.46851  -0.46413  -0.44933  -0.44749
 Alpha  occ. eigenvalues --   -0.42716  -0.42387  -0.41429  -0.40631  -0.40253
 Alpha  occ. eigenvalues --   -0.39584  -0.37484  -0.36750  -0.36670  -0.36275
 Alpha  occ. eigenvalues --   -0.36032  -0.34719  -0.34448  -0.34087  -0.33899
 Alpha  occ. eigenvalues --   -0.33253  -0.32532  -0.32060  -0.31923  -0.31143
 Alpha  occ. eigenvalues --   -0.31128  -0.28559  -0.28427  -0.26010  -0.25109
 Alpha  occ. eigenvalues --   -0.24443  -0.24304  -0.22568  -0.20803  -0.12628
 Alpha virt. eigenvalues --   -0.05535  -0.04586  -0.00822  -0.00472  -0.00070
 Alpha virt. eigenvalues --    0.01012   0.01481   0.01941   0.02010   0.02985
 Alpha virt. eigenvalues --    0.03442   0.03815   0.04050   0.04512   0.05292

  Beta  occ. eigenvalues --  -89.06611 -89.06611 -19.11976 -19.11976 -19.11974
  Beta  occ. eigenvalues --  -19.11972 -19.05108 -19.02722 -14.33629 -14.33629
  Beta  occ. eigenvalues --  -10.20940 -10.19895 -10.19894 -10.18713 -10.18368
  Beta  occ. eigenvalues --  -10.18368 -10.17560 -10.17559 -10.16384 -10.16383
  Beta  occ. eigenvalues --  -10.16161 -10.16160 -10.15729 -10.15728  -8.12795
  Beta  occ. eigenvalues --   -8.12794  -6.09072  -6.09072  -6.09052  -6.09051
  Beta  occ. eigenvalues --   -6.08867  -6.08867  -1.11804  -1.11803  -1.00785
  Beta  occ. eigenvalues --   -1.00784  -0.97707  -0.94855  -0.89920  -0.89918
  Beta  occ. eigenvalues --   -0.85761  -0.85371  -0.78907  -0.76196  -0.75398
  Beta  occ. eigenvalues --   -0.74610  -0.69475  -0.66639  -0.65301  -0.61034
  Beta  occ. eigenvalues --   -0.60165  -0.58082  -0.55465  -0.54220  -0.54137
  Beta  occ. eigenvalues --   -0.51441  -0.51326  -0.50658  -0.50327  -0.48899
  Beta  occ. eigenvalues --   -0.47148  -0.46851  -0.46413  -0.44933  -0.44749
  Beta  occ. eigenvalues --   -0.42716  -0.42387  -0.41429  -0.40631  -0.40253
  Beta  occ. eigenvalues --   -0.39584  -0.37484  -0.36750  -0.36670  -0.36275
  Beta  occ. eigenvalues --   -0.36032  -0.34719  -0.34448  -0.34087  -0.33899
  Beta  occ. eigenvalues --   -0.33253  -0.32532  -0.32060  -0.31923  -0.31143
  Beta  occ. eigenvalues --   -0.31128  -0.28559  -0.28427  -0.26010  -0.25109
  Beta  occ. eigenvalues --   -0.24443  -0.24304  -0.22568  -0.20803  -0.12628
  Beta virt. eigenvalues --   -0.05535  -0.04586  -0.00822  -0.00472  -0.00070
  Beta virt. eigenvalues --    0.01012   0.01481   0.01941   0.02010   0.02985
  Beta virt. eigenvalues --    0.03442   0.03815   0.04050   0.04512   0.05292

 Mulliken charges and spin densities:
               1          2
     1  C   -0.121116   0.000000
     2  C   -0.189673  -0.000000
     3  C   -0.436888   0.000000
     4  C    0.097084   0.000000
     5  C    0.619124   0.000000
     6  C   -0.245472  -0.000000
     7  C   -0.847391  -0.000000
     8  C    0.096090   0.000000
     9  C    0.618468   0.000000
    10  C   -0.207462   0.000000
    11  C   -0.121208  -0.000000
    12  C   -0.244942  -0.000000
    13  C   -0.437925  -0.000000
    14  O   -0.523322   0.000000
    15  O   -0.627522  -0.000000
    16  H    0.218993  -0.000000
    17  H    0.233105   0.000000
    18  H    0.154836   0.000000
    19  H    0.218957  -0.000000
    20  H    0.154844  -0.000000
    21  C   -0.188919   0.000000
    22  S    0.245858  -0.000000
    23  S    0.246318  -0.000000
    24  O   -0.276617   0.000000
    25  O   -0.338474   0.000000
    26  N   -0.470805   0.000000
    27  H    0.293424   0.000000
    28  H    0.320049   0.000000
    29  O   -0.276641  -0.000000
    30  O   -0.338702  -0.000000
    31  N   -0.470686   0.000000
    32  H    0.233123   0.000000
    33  H    0.320029   0.000000
    34  H    0.293462  -0.000000
 Sum of Mulliken charges =  -2.00000  -0.00000

 Dipole moment (field-independent basis, Debye):
    X=              0.0053    Y=             -4.9237    Z=              7.2669  Tot=              8.7779
 Quadrupole moment (field-independent basis, Debye-Ang):
   XX=           -290.3345   YY=           -220.3050   ZZ=           -161.2764
   XY=              0.0305   XZ=              0.0282   YZ=            -18.3871

 Normal termination of Gaussian 16 at Tue Jan 16 06:36:25 2024.
