 Gaussian 16, Revision A.03,
 Gaussian 16:  ES64L-G16RevA.03 25-Dec-2016

 --------------------------------------
 #P UB3LYP/6-311++G(d,p) nosym opt freq
 --------------------------------------

 -------
 Radical
 -------
 Symbolic Z-matrix:
 Charge = -1 Multiplicity = 2

 SCF Done:  E(UB3LYP) =  -992.211957784     A.U. after   22 cycles
 SCF Done:  E(UB3LYP) =  -992.225769938     A.U. after   20 cycles
 SCF Done:  E(UB3LYP) =  -992.227259432     A.U. after   18 cycles
 SCF Done:  E(UB3LYP) =  -992.228253743     A.U. after   17 cycles
 SCF Done:  E(UB3LYP) =  -992.228428908     A.U. after   16 cycles
 SCF Done:  E(UB3LYP) =  -992.228567648     A.U. after   16 cycles
 SCF Done:  E(UB3LYP) =  -992.228643428     A.U. after   15 cycles
 SCF Done:  E(UB3LYP) =  -992.228709718     A.U. after   15 cycles
 SCF Done:  E(UB3LYP) =  -992.228669779     A.U. after   14 cycles
 SCF Done:  E(UB3LYP) =  -992.228751005     A.U. after   16 cycles
 SCF Done:  E(UB3LYP) =  -992.228790481     A.U. after   14 cycles
 SCF Done:  E(UB3LYP) =  -992.228811524     A.U. after   14 cycles
 SCF Done:  E(UB3LYP) =  -992.228818747     A.U. after   13 cycles
 SCF Done:  E(UB3LYP) =  -992.228820540     A.U. after   14 cycles
 SCF Done:  E(UB3LYP) =  -992.228821010     A.U. after   12 cycles
 SCF Done:  E(UB3LYP) =  -992.228821091     A.U. after   10 cycles
 Optimization completed.
    -- Stationary point found.
 Normal termination of Gaussian 16 at Thu Dec 21 08:32:38 2023.

 ----------------------------------------------------------------------
 #P Geom=AllCheck Guess=TCheck SCRF=Check GenChk UB3LYP/6-311++G(d,p) F
 req
 ----------------------------------------------------------------------

 Structure from the checkpoint file:  "180-rad.chk"
 -------
 Radical
 -------
 Charge = -1 Multiplicity = 2

                          Input orientation:
 ---------------------------------------------------------------------
 Center     Atomic      Atomic             Coordinates (Angstroms)
 Number     Number       Type             X           Y           Z
 ---------------------------------------------------------------------
      1          6           0       -1.561212    1.903996   -4.741086
      2          6           0       -1.510165    0.544532   -4.970456
      3          6           0       -1.228975   -0.339553   -3.905906
      4          6           0       -1.337419    2.430484   -3.448660
      5          6           0       -1.056094    1.543418   -2.376847
      6          6           0       -1.005845    0.157162   -2.637135
      7          6           0       -1.396046    3.862795   -3.232854
      8          6           0       -0.808111    2.020229   -1.011570
      9          6           0       -1.177222    4.356431   -1.888417
     10          6           0       -0.896499    3.469444   -0.792998
     11          6           0       -1.261974    5.767406   -1.657780
     12          6           0       -1.083482    6.280255   -0.380496
     13          6           0       -0.818417    5.414458    0.686189
     14          6           0       -0.725796    4.053838    0.485105
     15          8           0       -1.642665    4.659321   -4.205538
     16          8           0       -0.534192    1.203901   -0.098637
     17          1           0       -1.772613    2.605326   -5.539346
     18          1           0       -1.684289    0.153617   -5.968360
     19          1           0       -1.186817   -1.409320   -4.086886
     20          1           0       -0.784077   -0.498252   -1.803423
     21          1           0       -0.684460    5.798981    1.690915
     22          8           0       -1.521461    6.615637   -2.670715
     23          8           0       -0.558998    3.261379    1.630235
     24          6           0        0.648312    2.674877    1.855834
     25          6           0        0.506224    1.586521    2.886255
     26          8           0        1.675595    3.008362    1.325177
     27          1           0       -1.154739    7.351296   -0.232443
     28          1           0       -1.619101    6.022161   -3.486265
     29          1           0        0.050390    0.731954    2.380932
     30          1           0       -0.155838    1.899450    3.696131
     31          1           0        1.486848    1.312794    3.273384
 ---------------------------------------------------------------------

 SCF Done:  E(UB3LYP) =  -992.228821091     A.U. after    1 cycles

 Alpha  occ. eigenvalues --  -19.05540 -19.01099 -19.00155 -18.97291 -18.96048
 Alpha  occ. eigenvalues --  -10.19644 -10.12170 -10.11799 -10.11701 -10.11501
 Alpha  occ. eigenvalues --  -10.07545 -10.07109 -10.07016 -10.06957 -10.06729
 Alpha  occ. eigenvalues --  -10.06623 -10.06438 -10.06372 -10.06313 -10.06265
 Alpha  occ. eigenvalues --  -10.05764  -0.99845  -0.93727  -0.91718  -0.88894
 Alpha  occ. eigenvalues --   -0.88689  -0.75338  -0.74061  -0.68076  -0.66213
 Alpha  occ. eigenvalues --   -0.64375  -0.63535  -0.62038  -0.56460  -0.53543
 Alpha  occ. eigenvalues --   -0.52132  -0.51307  -0.46672  -0.44677  -0.43293
 Alpha  occ. eigenvalues --   -0.41471  -0.39421  -0.38525  -0.37271  -0.36973
 Alpha  occ. eigenvalues --   -0.35818  -0.35089  -0.34998  -0.32289  -0.31865
 Alpha  occ. eigenvalues --   -0.31673  -0.31071  -0.30898  -0.30166  -0.29307
 Alpha  occ. eigenvalues --   -0.29063  -0.28315  -0.27508  -0.26926  -0.26131
 Alpha  occ. eigenvalues --   -0.24930  -0.24411  -0.24004  -0.22934  -0.21427
 Alpha  occ. eigenvalues --   -0.20348  -0.17251  -0.15873  -0.14824  -0.14180
 Alpha  occ. eigenvalues --   -0.13989  -0.12239  -0.11207  -0.03012
 Alpha virt. eigenvalues --    0.05959   0.07682   0.07895   0.08451   0.09039
 Alpha virt. eigenvalues --    0.09695   0.10425   0.11067   0.11293   0.11633
 Alpha virt. eigenvalues --    0.11890   0.12639   0.13880   0.14430   0.14789

  Beta  occ. eigenvalues --  -19.05534 -19.01074 -19.00153 -18.96774 -18.95469
  Beta  occ. eigenvalues --  -10.19640 -10.12160 -10.11777 -10.11477 -10.11386
  Beta  occ. eigenvalues --  -10.07546 -10.07010 -10.06981 -10.06895 -10.06663
  Beta  occ. eigenvalues --  -10.06615 -10.06423 -10.06317 -10.06308 -10.06188
  Beta  occ. eigenvalues --  -10.05667  -0.99829  -0.93580  -0.91702  -0.88011
  Beta  occ. eigenvalues --   -0.87744  -0.75086  -0.73926  -0.67692  -0.66131
  Beta  occ. eigenvalues --   -0.64182  -0.63347  -0.61873  -0.55779  -0.53398
  Beta  occ. eigenvalues --   -0.51880  -0.51198  -0.46536  -0.44544  -0.43037
  Beta  occ. eigenvalues --   -0.41370  -0.39317  -0.38476  -0.37202  -0.36749
  Beta  occ. eigenvalues --   -0.35719  -0.34991  -0.34871  -0.32184  -0.31633
  Beta  occ. eigenvalues --   -0.31348  -0.30825  -0.30542  -0.29946  -0.29118
  Beta  occ. eigenvalues --   -0.28680  -0.27639  -0.27250  -0.26859  -0.24966
  Beta  occ. eigenvalues --   -0.24302  -0.24209  -0.23062  -0.22737  -0.20784
  Beta  occ. eigenvalues --   -0.20123  -0.17227  -0.14220  -0.13751  -0.13647
  Beta  occ. eigenvalues --   -0.13548  -0.11711  -0.10385
  Beta virt. eigenvalues --    0.02708   0.06923   0.07678   0.07894   0.09039
  Beta virt. eigenvalues --    0.09488   0.09694   0.10476   0.11143   0.11327
  Beta virt. eigenvalues --    0.11821   0.11902   0.12661   0.13886   0.14438

 Mulliken charges and spin densities:
               1          2
     1  C   -0.059610   0.036690
     2  C   -0.478135   0.023228
     3  C   -0.378803   0.053766
     4  C    0.197645   0.003812
     5  C    0.009056   0.048650
     6  C    0.021328   0.012882
     7  C   -0.430233   0.123329
     8  C   -0.330658   0.047107
     9  C    0.744958  -0.007539
    10  C    0.611164   0.065937
    11  C   -0.468479   0.026083
    12  C   -0.087439   0.071148
    13  C    0.169477   0.049657
    14  C   -0.391771   0.048017
    15  O   -0.417078   0.189334
    16  O   -0.339714   0.220548
    17  H    0.159683  -0.001088
    18  H    0.127115  -0.002273
    19  H    0.132615  -0.004227
    20  H    0.148428  -0.000222
    21  H    0.151437  -0.004473
    22  O   -0.366380   0.009111
    23  O    0.002122  -0.000350
    24  C   -0.026349  -0.001838
    25  C   -0.467912   0.003259
    26  O   -0.221333  -0.000245
    27  H    0.156470  -0.005804
    28  H    0.356085  -0.003935
    29  H    0.201606  -0.000762
    30  H    0.139772   0.000457
    31  H    0.134931  -0.000259
 Sum of Mulliken charges =  -1.00000   1.00000

 Dipole moment (field-independent basis, Debye):
    X=              3.0708    Y=            -16.9330    Z=              8.7825  Tot=             19.3207
 Quadrupole moment (field-independent basis, Debye-Ang):
   XX=           -139.9500   YY=           -204.6801   ZZ=           -157.1936
   XY=             14.1650   XZ=            -15.0572   YZ=             38.3172

  Exact polarizability: 129.552  -9.590 302.857  37.336  37.630 294.338
 Approx polarizability: 209.556 -20.703 500.952  51.214  26.651 476.516

                      1                      2                      3
                      A                      A                      A
 Frequencies --     38.7530                55.7482                73.9356
 Red. masses --      8.2507                 5.9566                 6.3849
 Frc consts  --      0.0073                 0.0109                 0.0206
 IR Inten    --      2.3023                 0.3427                 2.5712

                      4                      5                      6
                      A                      A                      A
 Frequencies --     94.2644               101.3131               121.1467
 Red. masses --      3.7668                 4.9402                 1.0994
 Frc consts  --      0.0197                 0.0299                 0.0095
 IR Inten    --      3.6616                 1.6031                 0.1411

                      7                      8                      9
                      A                      A                      A
 Frequencies --    140.4978               160.8710               180.9626
 Red. masses --      5.9714                 7.0830                 8.0121
 Frc consts  --      0.0694                 0.1080                 0.1546
 IR Inten    --      0.3203                 0.5854                 2.2646

                     10                     11                     12
                      A                      A                      A
 Frequencies --    217.2214               254.1237               297.0238
 Red. masses --      5.9146                 6.6366                 4.1207
 Frc consts  --      0.1644                 0.2525                 0.2142
 IR Inten    --      3.1927                 0.6041                 5.0447

                     13                     14                     15
                      A                      A                      A
 Frequencies --    315.8483               349.0557               378.6462
 Red. masses --      8.1279                 6.9289                 6.4267
 Frc consts  --      0.4777                 0.4974                 0.5429
 IR Inten    --      0.8021                 1.5738                 0.9457

                     16                     17                     18
                      A                      A                      A
 Frequencies --    392.5819               417.1277               427.9745
 Red. masses --      8.8234                 6.2705                 7.3481
 Frc consts  --      0.8012                 0.6428                 0.7930
 IR Inten    --      1.8938                 0.1738                14.0179

                     19                     20                     21
                      A                      A                      A
 Frequencies --    437.2230               440.5406               484.2407
 Red. masses --      3.9382                 8.1495                 6.8384
 Frc consts  --      0.4436                 0.9319                 0.9448
 IR Inten    --      4.8613                 8.2284                 9.6058

                     22                     23                     24
                      A                      A                      A
 Frequencies --    499.3587               510.5965               529.8953
 Red. masses --      4.5294                 5.7679                 7.4204
 Frc consts  --      0.6654                 0.8860                 1.2276
 IR Inten    --      0.8753                 1.6026                16.0312

                     25                     26                     27
                      A                      A                      A
 Frequencies --    572.1514               582.8707               604.7066
 Red. masses --      3.2190                 4.0461                 5.2345
 Frc consts  --      0.6209                 0.8099                 1.1278
 IR Inten    --      6.1467                21.8806                 8.7462

                     28                     29                     30
                      A                      A                      A
 Frequencies --    639.0213               655.1286               672.3837
 Red. masses --      4.7086                 5.8301                 5.9366
 Frc consts  --      1.1329                 1.4743                 1.5813
 IR Inten    --      2.6158                 2.4566                10.4946

                     31                     32                     33
                      A                      A                      A
 Frequencies --    711.5610               718.1204               733.6567
 Red. masses --      4.8186                 2.5965                 6.0834
 Frc consts  --      1.4374                 0.7889                 1.9292
 IR Inten    --     15.7751                15.0116                 0.5074

                     34                     35                     36
                      A                      A                      A
 Frequencies --    769.5623               779.1840               792.1306
 Red. masses --      4.8303                 2.0194                 4.4156
 Frc consts  --      1.6854                 0.7224                 1.6324
 IR Inten    --     10.3153                34.9308                 9.8625

                     37                     38                     39
                      A                      A                      A
 Frequencies --    817.5556               865.2652               870.7236
 Red. masses --      1.9903                 5.1072                 1.4453
 Frc consts  --      0.7838                 2.2528                 0.6456
 IR Inten    --     23.2307                34.0704                 0.0291

                     40                     41                     42
                      A                      A                      A
 Frequencies --    893.8770               911.6533               931.8627
 Red. masses --      3.7350                 2.1650                 4.0695
 Frc consts  --      1.7583                 1.0602                 2.0821
 IR Inten    --     19.4651                 8.4831                12.8310

                     43                     44                     45
                      A                      A                      A
 Frequencies --    967.7283               968.7670               980.9823
 Red. masses --      5.3307                 1.0570                 1.3217
 Frc consts  --      2.9413                 0.5845                 0.7494
 IR Inten    --     35.7510                72.5814                 0.0444

                     46                     47                     48
                      A                      A                      A
 Frequencies --    986.6552              1020.0117              1035.8649
 Red. masses --      1.2940                 2.0270                 2.2500
 Frc consts  --      0.7422                 1.2426                 1.4224
 IR Inten    --      0.7199                71.3642                28.8112

                     49                     50                     51
                      A                      A                      A
 Frequencies --   1055.3771              1069.0371              1111.6557
 Red. masses --      1.7670                 2.1120                 2.1713
 Frc consts  --      1.1596                 1.4221                 1.5809
 IR Inten    --     15.3369                44.1144                17.7661

                     52                     53                     54
                      A                      A                      A
 Frequencies --   1146.8680              1166.1543              1196.4160
 Red. masses --      1.4580                 1.4803                 2.2343
 Frc consts  --      1.1299                 1.1861                 1.8844
 IR Inten    --     24.2489                27.7623                 4.6567

                     55                     56                     57
                      A                      A                      A
 Frequencies --   1219.9218              1234.7347              1237.4335
 Red. masses --      3.7211                 3.2719                 3.0724
 Frc consts  --      3.2627                 2.9390                 2.7718
 IR Inten    --    286.4045               230.8537                14.0501

                     58                     59                     60
                      A                      A                      A
 Frequencies --   1250.5604              1293.7291              1311.3800
 Red. masses --      2.1256                 4.0269                 3.4209
 Frc consts  --      1.9586                 3.9711                 3.4661
 IR Inten    --     11.2826                15.6989               189.8921

                     61                     62                     63
                      A                      A                      A
 Frequencies --   1346.5976              1365.4523              1379.7629
 Red. masses --      4.5501                 9.1494                 1.4983
 Frc consts  --      4.8613                10.0507                 1.6806
 IR Inten    --      2.1443                 2.7826               162.9217

                     64                     65                     66
                      A                      A                      A
 Frequencies --   1381.9016              1397.7021              1471.0829
 Red. masses --      4.1686                 3.2683                 1.0806
 Frc consts  --      4.6902                 3.7618                 1.3778
 IR Inten    --     34.5807               231.2105                 5.6232

                     67                     68                     69
                      A                      A                      A
 Frequencies --   1478.8995              1480.2839              1482.8095
 Red. masses --      2.1553                 1.1872                 3.3880
 Frc consts  --      2.7774                 1.5327                 4.3889
 IR Inten    --     27.1349                17.9207                23.9354

                     70                     71                     72
                      A                      A                      A
 Frequencies --   1499.1899              1539.2009              1561.6179
 Red. masses --      3.6828                 6.6388                 3.0195
 Frc consts  --      4.8769                 9.2668                 4.3384
 IR Inten    --    157.6610               698.3641                 4.8813

                     73                     74                     75
                      A                      A                      A
 Frequencies --   1571.3675              1620.3766              1629.8085
 Red. masses --      4.3713                 7.1425                 5.9231
 Frc consts  --      6.3594                11.0492                 9.2698
 IR Inten    --    162.1257                34.1506                 5.7003

                     76                     77                     78
                      A                      A                      A
 Frequencies --   1655.2848              1803.0454              2848.3905
 Red. masses --      2.5117                11.6023                 1.0759
 Frc consts  --      4.0548                22.2232                 5.1432
 IR Inten    --     51.7976               260.8854               424.3409

                     79                     80                     81
                      A                      A                      A
 Frequencies --   3045.5147              3114.8622              3138.8847
 Red. masses --      1.0338                 1.1004                 1.0850
 Frc consts  --      5.6496                 6.2907                 6.2986
 IR Inten    --     21.5012                 7.0234                16.6374

                     82                     83                     84
                      A                      A                      A
 Frequencies --   3139.5742              3157.5820              3169.3993
 Red. masses --      1.1042                 1.0915                 1.0871
 Frc consts  --      6.4127                 6.4117                 6.4342
 IR Inten    --     18.1615                47.7517                17.6155

                     85                     86                     87
                      A                      A                      A
 Frequencies --   3186.7711              3188.7570              3191.0762
 Red. masses --      1.0941                 1.0914                 1.0928
 Frc consts  --      6.5466                 6.5383                 6.5565
 IR Inten    --     23.8638                 7.7099                24.5796

 - Thermochemistry -
 -------------------
 Temperature   298.150 Kelvin.  Pressure   1.00000 Atm.
 Atom     1 has atomic number  6 and mass  12.00000

 Molecular mass:   282.05282 amu.
 Principal axes and moments of inertia in atomic units:
                           1         2         3
     Eigenvalues --  4108.547866201.063829899.01064
           X            0.26426  -0.17979   0.94755
           Y            0.23389   0.96509   0.11789
           Z            0.93566  -0.19047  -0.29708
 This molecule is an asymmetric top.
 Rotational symmetry number  1.
 Warning -- assumption of classical behavior for rotation
           may cause significant error
 Rotational temperatures (Kelvin)      0.02108     0.01397     0.00875
 Rotational constants (GHZ):           0.43926     0.29104     0.18232
 Zero-point vibrational energy     583411.8 (Joules/Mol)
                                  139.43877 (Kcal/Mol)
 Warning -- explicit consideration of  27 degrees of freedom as
           vibrations may cause significant error
 Vibrational temperatures:     55.76    80.21   106.38   135.63   145.77
          (Kelvin)            174.30   202.15   231.46   260.36   312.53
                              365.63   427.35   454.44   502.21   544.79
                              564.84   600.15   615.76   629.07   633.84
                              696.71   718.47   734.63   762.40   823.20
                              838.62   870.04   919.41   942.58   967.41
                             1023.78  1033.22  1055.57  1107.23  1121.07
                             1139.70  1176.28  1244.92  1252.78  1286.09
                             1311.67  1340.74  1392.35  1393.84  1411.41
                             1419.58  1467.57  1490.38  1518.45  1538.11
                             1599.42  1650.09  1677.84  1721.38  1755.20
                             1776.51  1780.39  1799.28  1861.39  1886.78
                             1937.45  1964.58  1985.17  1988.25  2010.98
                             2116.56  2127.81  2129.80  2133.43  2157.00
                             2214.57  2246.82  2260.85  2331.36  2344.93
                             2381.59  2594.18  4098.20  4381.82  4481.59
                             4516.15  4517.15  4543.06  4560.06  4585.05
                             4587.91  4591.25

 Zero-point correction=                           0.222210 (Hartree/Particle)
 Thermal correction to Energy=                    0.238762
 Thermal correction to Enthalpy=                  0.239706
 Thermal correction to Gibbs Free Energy=         0.177122
 Sum of electronic and zero-point Energies=           -992.006611
 Sum of electronic and thermal Energies=              -991.990059
 Sum of electronic and thermal Enthalpies=            -991.989115
 Sum of electronic and thermal Free Energies=         -992.051699

                     E (Thermal)             CV                S
                      KCal/Mol        Cal/Mol-Kelvin    Cal/Mol-Kelvin
 Total                  149.825             65.174            131.719
 Electronic               0.000              0.000              1.377
 Translational            0.889              2.981             42.809
 Rotational               0.889              2.981             33.888
 Vibrational            148.048             59.212             53.645
 Vibration     1          0.594              1.981              5.322
 Vibration     2          0.596              1.975              4.602
 Vibration     3          0.599              1.966              4.046
 Vibration     4          0.603              1.953              3.570
 Vibration     5          0.604              1.948              3.429
 Vibration     6          0.609              1.932              3.082
 Vibration     7          0.615              1.913              2.797
 Vibration     8          0.622              1.890              2.540
 Vibration     9          0.630              1.866              2.318
 Vibration    10          0.646              1.815              1.982
 Vibration    11          0.665              1.756              1.702
 Vibration    12          0.691              1.679              1.434
 Vibration    13          0.703              1.643              1.332
 Vibration    14          0.726              1.577              1.170
 Vibration    15          0.749              1.516              1.045
 Vibration    16          0.760              1.486              0.990
 Vibration    17          0.780              1.433              0.902
 Vibration    18          0.789              1.409              0.865
 Vibration    19          0.798              1.389              0.835
 Vibration    20          0.800              1.382              0.825
 Vibration    21          0.840              1.285              0.699
 Vibration    22          0.855              1.251              0.660
 Vibration    23          0.866              1.227              0.632
 Vibration    24          0.885              1.184              0.587
 Vibration    25          0.928              1.091              0.500
 Vibration    26          0.940              1.068              0.480
 Vibration    27          0.963              1.022              0.442

 Optimization completed.
    -- Stationary point found.
 Normal termination of Gaussian 16 at Thu Dec 21 10:14:07 2023.
