 Gaussian 16, Revision A.03,
 Gaussian 16:  ES64L-G16RevA.03 25-Dec-2016

 ----------------------------------------------------------------------
 #P UB3LYP/6-311++G(d,p) nosym opt freq SCRF=(PCM,Solvent=n,n-DiMethylF
 ormamide)
 ----------------------------------------------------------------------

 --------
 Oxidized
 --------
 Symbolic Z-matrix:
 Charge =  0 Multiplicity = 1

 SCF Done:  E(UB3LYP) =  -5891.41680018     A.U. after   16 cycles
 SCF Done:  E(UB3LYP) =  -5891.41691090     A.U. after   12 cycles
 SCF Done:  E(UB3LYP) =  -5891.41693060     A.U. after   13 cycles
 SCF Done:  E(UB3LYP) =  -5891.41695378     A.U. after   11 cycles
 SCF Done:  E(UB3LYP) =  -5891.41695819     A.U. after   11 cycles
 SCF Done:  E(UB3LYP) =  -5891.41697662     A.U. after   12 cycles
 SCF Done:  E(UB3LYP) =  -5891.41705531     A.U. after   14 cycles
 SCF Done:  E(UB3LYP) =  -5891.41706961     A.U. after   11 cycles
 SCF Done:  E(UB3LYP) =  -5891.41708544     A.U. after   13 cycles
 SCF Done:  E(UB3LYP) =  -5891.41708753     A.U. after   11 cycles
 SCF Done:  E(UB3LYP) =  -5891.41708841     A.U. after   11 cycles
 SCF Done:  E(UB3LYP) =  -5891.41708929     A.U. after   12 cycles
 SCF Done:  E(UB3LYP) =  -5891.41708936     A.U. after   11 cycles
 SCF Done:  E(UB3LYP) =  -5891.41708951     A.U. after   11 cycles
 SCF Done:  E(UB3LYP) =  -5891.41708967     A.U. after   10 cycles
 Optimization completed.
    -- Stationary point found.
 Normal termination of Gaussian 16 at Sat Feb 10 16:54:55 2024.

 ----------------------------------------------------------------------
 #P Geom=AllCheck Guess=TCheck SCRF=Check GenChk UB3LYP/6-311++G(d,p) F
 req
 ----------------------------------------------------------------------

 Structure from the checkpoint file:  "159.chk"
 --------
 Oxidized
 --------
 Charge =  0 Multiplicity = 1

                          Input orientation:
 ---------------------------------------------------------------------
 Center     Atomic      Atomic             Coordinates (Angstroms)
 Number     Number       Type             X           Y           Z
 ---------------------------------------------------------------------
      1          7           0       -2.854211    1.519353    1.175060
      2          6           0       -2.483436    0.534391    0.335406
      3          6           0       -3.456136   -0.141141   -0.453056
      4         35           0       -5.294769    0.377100   -0.328266
      5          6           0       -3.122806   -1.155335   -1.313815
      6          6           0       -1.794467   -1.588321   -1.421870
      7         35           0       -1.541319   -2.993885   -2.705535
      8          6           0       -0.785784   -0.978122   -0.677226
      9          6           0        0.633161   -1.463566   -0.720724
     10          8           0        0.923990   -2.567628   -1.155238
     11          6           0        1.691012   -0.564128   -0.199611
     12          6           0        3.034461   -0.856421   -0.459694
     13          6           0        4.034760   -0.030866    0.039233
     14          6           0        3.700867    1.081123    0.818934
     15          6           0        2.368700    1.366434    1.094326
     16          6           0        1.355588    0.550225    0.579023
     17          6           0       -0.063773    0.864220    0.882929
     18          8           0       -0.315832    1.769528    1.687848
     19          6           0       -1.122958    0.116413    0.180026
     20          1           0       -2.133457    2.004164    1.694287
     21          1           0       -3.813744    1.825483    1.201156
     22          1           0       -3.890057   -1.630960   -1.908341
     23          1           0        3.277080   -1.726543   -1.056104
     24          1           0        5.074074   -0.251188   -0.174045
     25          1           0        4.482056    1.721536    1.211235
     26          1           0        2.096998    2.218137    1.704059
 ---------------------------------------------------------------------

 SCF Done:  E(UB3LYP) =  -5891.41708967     A.U. after    2 cycles

 Alpha  occ. eigenvalues -- -482.85354-482.84122 -62.50634 -62.49396 -56.32672
 Alpha  occ. eigenvalues --  -56.32281 -56.32268 -56.31446 -56.31053 -56.31010
 Alpha  occ. eigenvalues --  -19.13354 -19.13238 -14.34557 -10.28864 -10.28671
 Alpha  occ. eigenvalues --  -10.26828 -10.25832 -10.25553 -10.22887 -10.22014
 Alpha  occ. eigenvalues --  -10.21942 -10.21015 -10.20937 -10.19971 -10.19946
 Alpha  occ. eigenvalues --  -10.19891 -10.19846  -8.71605  -8.70365  -6.54749
 Alpha  occ. eigenvalues --   -6.53545  -6.53448  -6.53428  -6.52239  -6.52118
 Alpha  occ. eigenvalues --   -2.65841  -2.65466  -2.65456  -2.64630  -2.64421
 Alpha  occ. eigenvalues --   -2.64419  -2.64280  -2.64189  -2.63150  -2.63148
 Alpha  occ. eigenvalues --   -1.06954  -1.06563  -0.96427  -0.90098  -0.88887
 Alpha  occ. eigenvalues --   -0.84595  -0.82681  -0.79380  -0.78029  -0.76661
 Alpha  occ. eigenvalues --   -0.74746  -0.69460  -0.67143  -0.65474  -0.61780
 Alpha  occ. eigenvalues --   -0.59512  -0.58621  -0.55768  -0.54620  -0.51974
 Alpha  occ. eigenvalues --   -0.50640  -0.48704  -0.48422  -0.47641  -0.46536
 Alpha  occ. eigenvalues --   -0.45885  -0.45301  -0.45166  -0.44073  -0.42740
 Alpha  occ. eigenvalues --   -0.42018  -0.40961  -0.39718  -0.38446  -0.37994
 Alpha  occ. eigenvalues --   -0.37092  -0.36751  -0.33936  -0.31806  -0.31356
 Alpha  occ. eigenvalues --   -0.30956  -0.28887  -0.28668  -0.28098  -0.27630
 Alpha  occ. eigenvalues --   -0.26787  -0.23390
 Alpha virt. eigenvalues --   -0.12173  -0.07388  -0.04622  -0.04187  -0.02700
 Alpha virt. eigenvalues --   -0.01450  -0.00750   0.00080   0.00932   0.01724
 Alpha virt. eigenvalues --    0.02065   0.02277   0.02921   0.03276   0.03675

  Beta  occ. eigenvalues -- -482.85354-482.84122 -62.50634 -62.49396 -56.32672
  Beta  occ. eigenvalues --  -56.32281 -56.32268 -56.31446 -56.31053 -56.31010
  Beta  occ. eigenvalues --  -19.13354 -19.13238 -14.34557 -10.28864 -10.28671
  Beta  occ. eigenvalues --  -10.26828 -10.25832 -10.25553 -10.22887 -10.22014
  Beta  occ. eigenvalues --  -10.21942 -10.21015 -10.20937 -10.19971 -10.19946
  Beta  occ. eigenvalues --  -10.19891 -10.19846  -8.71605  -8.70365  -6.54749
  Beta  occ. eigenvalues --   -6.53545  -6.53448  -6.53428  -6.52239  -6.52118
  Beta  occ. eigenvalues --   -2.65841  -2.65466  -2.65456  -2.64630  -2.64421
  Beta  occ. eigenvalues --   -2.64419  -2.64280  -2.64189  -2.63150  -2.63148
  Beta  occ. eigenvalues --   -1.06954  -1.06563  -0.96427  -0.90098  -0.88887
  Beta  occ. eigenvalues --   -0.84595  -0.82681  -0.79380  -0.78029  -0.76661
  Beta  occ. eigenvalues --   -0.74746  -0.69460  -0.67143  -0.65474  -0.61780
  Beta  occ. eigenvalues --   -0.59512  -0.58621  -0.55768  -0.54620  -0.51974
  Beta  occ. eigenvalues --   -0.50640  -0.48704  -0.48422  -0.47641  -0.46536
  Beta  occ. eigenvalues --   -0.45885  -0.45301  -0.45166  -0.44073  -0.42740
  Beta  occ. eigenvalues --   -0.42018  -0.40961  -0.39718  -0.38446  -0.37994
  Beta  occ. eigenvalues --   -0.37092  -0.36751  -0.33936  -0.31806  -0.31356
  Beta  occ. eigenvalues --   -0.30956  -0.28887  -0.28668  -0.28098  -0.27630
  Beta  occ. eigenvalues --   -0.26787  -0.23390
  Beta virt. eigenvalues --   -0.12173  -0.07388  -0.04622  -0.04187  -0.02700
  Beta virt. eigenvalues --   -0.01450  -0.00750   0.00080   0.00932   0.01724
  Beta virt. eigenvalues --    0.02065   0.02277   0.02921   0.03276   0.03675

 Mulliken charges and spin densities:
               1          2
     1  N   -0.310394  -0.000000
     2  C   -0.256898   0.000000
     3  C    0.094881  -0.000000
     4  Br  -0.137560  -0.000000
     5  C   -0.031493  -0.000000
     6  C   -0.084437   0.000000
     7  Br  -0.133070   0.000000
     8  C    0.811129   0.000000
     9  C   -1.690180  -0.000000
    10  O   -0.212129   0.000000
    11  C    0.553136   0.000000
    12  C   -0.065551  -0.000000
    13  C   -0.284634  -0.000000
    14  C   -0.488673  -0.000000
    15  C    0.263633  -0.000000
    16  C    0.321659  -0.000000
    17  C   -0.582992   0.000000
    18  O   -0.292954  -0.000000
    19  C    0.794138   0.000000
    20  H    0.348578   0.000000
    21  H    0.275536   0.000000
    22  H    0.307757   0.000000
    23  H    0.192095  -0.000000
    24  H    0.210678  -0.000000
    25  H    0.206856  -0.000000
    26  H    0.190889   0.000000
 Sum of Mulliken charges =  -0.00000   0.00000

 Dipole moment (field-independent basis, Debye):
    X=             -0.0482    Y=              3.6604    Z=              1.1433  Tot=              3.8351
 Quadrupole moment (field-independent basis, Debye-Ang):
   XX=           -105.6143   YY=           -143.1273   ZZ=           -138.4001
   XY=              0.0129   XZ=              0.2554   YZ=             -2.4139

  Exact polarizability: 472.902  -8.629 299.674  20.118 114.515 245.148
 Approx polarizability: 498.473 -20.445 367.591  12.374 142.364 294.148

                      1                      2                      3
                      A                      A                      A
 Frequencies --     27.7339                34.8491                82.8162
 Red. masses --      8.5706                11.9877                 8.1298
 Frc consts  --      0.0039                 0.0086                 0.0329
 IR Inten    --      4.3833                 1.1602                 0.3059

                      4                      5                      6
                      A                      A                      A
 Frequencies --    111.9734               119.5474               131.6289
 Red. masses --      5.5856                 8.4934                20.2329
 Frc consts  --      0.0413                 0.0715                 0.2065
 IR Inten    --      0.4046                 1.8605                 0.0519

                      7                      8                      9
                      A                      A                      A
 Frequencies --    141.8776               173.7737               218.7591
 Red. masses --     14.4169                 6.2470                13.9674
 Frc consts  --      0.1710                 0.1111                 0.3938
 IR Inten    --      0.8699                 1.6371                 1.0091

                     10                     11                     12
                      A                      A                      A
 Frequencies --    238.0649               255.2535               277.2755
 Red. masses --      6.0869                 2.4420                 1.9292
 Frc consts  --      0.2033                 0.0937                 0.0874
 IR Inten    --     11.9345                82.4189               182.7057

                     13                     14                     15
                      A                      A                      A
 Frequencies --    292.6207               338.6413               354.2400
 Red. masses --      7.3489                 6.5757                 5.8945
 Frc consts  --      0.3708                 0.4443                 0.4358
 IR Inten    --      9.2934                11.3267                11.1175

                     16                     17                     18
                      A                      A                      A
 Frequencies --    391.8256               412.0719               425.6496
 Red. masses --      7.4707                 5.9701                 4.5451
 Frc consts  --      0.6758                 0.5973                 0.4852
 IR Inten    --      2.3387                12.2978                17.8984

                     19                     20                     21
                      A                      A                      A
 Frequencies --    435.9824               452.9255               489.2534
 Red. masses --      5.7357                 7.7871                 8.0647
 Frc consts  --      0.6424                 0.9412                 1.1374
 IR Inten    --      6.1548                29.5510                 2.9192

                     22                     23                     24
                      A                      A                      A
 Frequencies --    492.7165               523.8662               585.4789
 Red. masses --      4.1103                 5.3812                 6.2862
 Frc consts  --      0.5879                 0.8701                 1.2696
 IR Inten    --     14.7098                 1.4510                13.2084

                     25                     26                     27
                      A                      A                      A
 Frequencies --    626.2414               650.1325               669.9112
 Red. masses --      6.1691                 1.2708                 4.8476
 Frc consts  --      1.4255                 0.3165                 1.2818
 IR Inten    --      4.2334                13.6275                22.4426

                     28                     29                     30
                      A                      A                      A
 Frequencies --    684.3568               701.5301               720.4778
 Red. masses --      3.7258                 8.4241                 6.3958
 Frc consts  --      1.0281                 2.4427                 1.9561
 IR Inten    --     18.3769                93.9368                11.5962

                     31                     32                     33
                      A                      A                      A
 Frequencies --    733.0650               746.2143               809.7259
 Red. masses --      4.3057                 2.5548                 6.7854
 Frc consts  --      1.3633                 0.8382                 2.6212
 IR Inten    --     26.0943                90.2135                61.8594

                     34                     35                     36
                      A                      A                      A
 Frequencies --    813.9603               821.2002               902.5825
 Red. masses --      2.5124                 5.0303                 6.5336
 Frc consts  --      0.9807                 1.9987                 3.1360
 IR Inten    --     10.6915                 7.6371                39.4322

                     37                     38                     39
                      A                      A                      A
 Frequencies --    908.9553               914.1205               946.4116
 Red. masses --      1.3795                 1.4814                 6.5743
 Frc consts  --      0.6715                 0.7293                 3.4694
 IR Inten    --     17.0145                 2.6011                 1.9138

                     40                     41                     42
                      A                      A                      A
 Frequencies --   1000.2807              1019.6720              1022.1751
 Red. masses --      1.3876                 3.5665                 1.3342
 Frc consts  --      0.8180                 2.1848                 0.8213
 IR Inten    --      2.2925               358.0752                 1.2096

                     43                     44                     45
                      A                      A                      A
 Frequencies --   1057.2409              1096.0483              1115.4828
 Red. masses --      1.9085                 2.7289                 2.3001
 Frc consts  --      1.2569                 1.9315                 1.6862
 IR Inten    --     13.5826                85.4325                 5.9616

                     46                     47                     48
                      A                      A                      A
 Frequencies --   1151.1817              1180.4030              1195.9996
 Red. masses --      3.3620                 1.1394                 2.2397
 Frc consts  --      2.6251                 0.9354                 1.8875
 IR Inten    --    340.9650                62.6497                19.9477

                     49                     50                     51
                      A                      A                      A
 Frequencies --   1257.7537              1264.7440              1305.9207
 Red. masses --      1.7489                 4.8368                 2.0021
 Frc consts  --      1.6301                 4.5584                 2.0117
 IR Inten    --     13.4879              1227.5975                79.2697

                     52                     53                     54
                      A                      A                      A
 Frequencies --   1344.9657              1355.0145              1361.4878
 Red. masses --      4.6242                 4.8057                 6.6549
 Frc consts  --      4.9284                 5.1986                 7.2681
 IR Inten    --     68.0120                 1.0975                 0.6964

                     55                     56                     57
                      A                      A                      A
 Frequencies --   1391.9796              1440.5490              1480.9700
 Red. masses --      5.4494                 3.5433                 2.4267
 Frc consts  --      6.2211                 4.3323                 3.1359
 IR Inten    --    307.3289                18.6838                17.0981

                     58                     59                     60
                      A                      A                      A
 Frequencies --   1508.7939              1537.1419              1558.2407
 Red. masses --      2.6101                 5.5317                 2.7805
 Frc consts  --      3.5008                 7.7007                 3.9778
 IR Inten    --      7.0517               361.1758               238.6544

                     61                     62                     63
                      A                      A                      A
 Frequencies --   1606.9060              1613.4902              1622.4803
 Red. masses --      3.3855                 3.9454                 5.7741
 Frc consts  --      5.1506                 6.0516                 8.9556
 IR Inten    --    574.8503                39.4804               133.0154

                     64                     65                     66
                      A                      A                      A
 Frequencies --   1656.0484              1703.3547              3178.6913
 Red. masses --      7.4408                12.3008                 1.0876
 Frc consts  --     12.0232                21.0278                 6.4748
 IR Inten    --    245.5975               416.4807                 3.4535

                     67                     68                     69
                      A                      A                      A
 Frequencies --   3191.2940              3205.1014              3209.1804
 Red. masses --      1.0919                 1.0933                 1.0943
 Frc consts  --      6.5518                 6.6171                 6.6402
 IR Inten    --     13.8360                 6.8395                16.1741

                     70                     71                     72
                      A                      A                      A
 Frequencies --   3216.6363              3508.0486              3669.6366
 Red. masses --      1.0927                 1.0513                 1.1003
 Frc consts  --      6.6614                 7.6230                 8.7297
 IR Inten    --      1.4519               170.3294               254.3791

 - Thermochemistry -
 -------------------
 Temperature   298.150 Kelvin.  Pressure   1.00000 Atm.
 Atom     1 has atomic number  7 and mass  14.00307

 Molecular mass:   378.88435 amu.
 Principal axes and moments of inertia in atomic units:
                           1         2         3
     Eigenvalues --  5617.92951********************
           X            0.99510  -0.05726  -0.08062
           Y           -0.00624   0.77731  -0.62909
           Z            0.09869   0.62651   0.77314
 This molecule is an asymmetric top.
 Rotational symmetry number  1.
 Warning -- assumption of classical behavior for rotation
           may cause significant error
 Rotational temperatures (Kelvin)      0.01542     0.00821     0.00539
 Rotational constants (GHZ):           0.32125     0.17115     0.11238
 Zero-point vibrational energy     458675.9 (Joules/Mol)
                                  109.62617 (Kcal/Mol)
 Warning -- explicit consideration of  24 degrees of freedom as
           vibrations may cause significant error
 Vibrational temperatures:     39.90    50.14   119.15   161.10   172.00
          (Kelvin)            189.38   204.13   250.02   314.75   342.52
                              367.25   398.94   421.02   487.23   509.67
                              563.75   592.88   612.41   627.28   651.66
                              703.93   708.91   753.73   842.37   901.02
                              935.40   963.85   984.64  1009.35  1036.61
                             1054.72  1073.64  1165.02  1171.11  1181.52
                             1298.61  1307.78  1315.22  1361.68  1439.18
                             1467.08  1470.68  1521.13  1576.97  1604.93
                             1656.29  1698.34  1720.78  1809.63  1819.68
                             1878.93  1935.11  1949.56  1958.88  2002.75
                             2072.63  2130.79  2170.82  2211.60  2241.96
                             2311.98  2321.45  2334.39  2382.68  2450.75
                             4573.43  4591.56  4611.43  4617.29  4628.02
                             5047.30  5279.79

 Zero-point correction=                           0.174700 (Hartree/Particle)
 Thermal correction to Energy=                    0.190506
 Thermal correction to Enthalpy=                  0.191450
 Thermal correction to Gibbs Free Energy=         0.129250
 Sum of electronic and zero-point Energies=          -5891.242389
 Sum of electronic and thermal Energies=             -5891.226584
 Sum of electronic and thermal Enthalpies=           -5891.225640
 Sum of electronic and thermal Free Energies=        -5891.287840

                     E (Thermal)             CV                S
                      KCal/Mol        Cal/Mol-Kelvin    Cal/Mol-Kelvin
 Total                  119.544             60.025            130.911
 Electronic               0.000              0.000              0.000
 Translational            0.889              2.981             43.689
 Rotational               0.889              2.981             35.208
 Vibrational            117.767             54.063             52.014
 Vibration     1          0.593              1.984              5.985
 Vibration     2          0.594              1.983              5.532
 Vibration     3          0.600              1.961              3.823
 Vibration     4          0.607              1.940              3.234
 Vibration     5          0.609              1.933              3.108
 Vibration     6          0.612              1.922              2.922
 Vibration     7          0.615              1.911              2.778
 Vibration     8          0.627              1.875              2.394
 Vibration     9          0.647              1.813              1.969
 Vibration    10          0.656              1.782              1.817
 Vibration    11          0.666              1.754              1.694
 Vibration    12          0.678              1.715              1.550
 Vibration    13          0.688              1.687              1.459
 Vibration    14          0.719              1.598              1.219
 Vibration    15          0.730              1.567              1.147
 Vibration    16          0.759              1.488              0.993
 Vibration    17          0.776              1.444              0.919
 Vibration    18          0.787              1.414              0.873
 Vibration    19          0.796              1.392              0.839
 Vibration    20          0.811              1.354              0.787
 Vibration    21          0.845              1.274              0.686
 Vibration    22          0.848              1.266              0.677
 Vibration    23          0.879              1.197              0.601
 Vibration    24          0.942              1.063              0.475

                           ! Non-Optimized Parameters !
 Normal termination of Gaussian 16 at Sat Feb 10 17:42:00 2024.
