 Q-Chem 5.4, Q-Chem, Inc., Pleasanton, CA (2021)
 Q-Chem 5.4.0 for Intel X86 EM64T Linux

User input:
--------------------------------------------------------------
$molecule
0 1
C                  7.2459180000      1.2040960000      0.2094050000
C                  8.3778690000      1.0668200000      1.1793160000
C                  8.9441830000     -0.1434890000      1.3749170000
C                  8.4346650000     -1.3415580000      0.6434010000
C                  7.2949290000     -1.2058560000     -0.3142040000
C                  6.7477290000      0.0086680000     -0.5344600000
O                  6.7244370000      2.2954920000      0.0238210000
O                  8.9571170000     -2.4313860000      0.8330500000
C                  5.6000030000      0.2458480000     -1.4930300000
C                  6.8318730000     -2.4633100000     -0.9972180000
C                  8.8181220000      2.3252790000      1.8811930000
C                 10.0889350000     -0.4020630000      2.3113680000
C                  4.2563530000      0.1010520000     -0.8125740000
H                  5.6885650000     -0.4303500000     -2.3435010000
H                  5.6880960000      1.2675490000     -1.8743540000
H                  7.2705350000     -3.3368130000     -0.5178160000
H                  7.1400750000     -2.4714850000     -2.0487110000
H                  5.7434440000     -2.5437090000     -0.9712460000
H                  8.1641020000      3.1523890000      1.6115590000
H                  9.8415240000      2.5942410000      1.6019560000
H                  8.7968680000      2.2017860000      2.9671070000
H                 10.4611210000      0.5145520000      2.7649900000
H                 10.9083760000     -0.8959420000      1.7828120000
H                  9.7851460000     -1.0903100000      3.1059430000
C                  3.1972930000     -0.6173580000     -1.2102880000
C                  3.1536960000     -1.4613580000     -2.4607990000
C                  1.9222580000     -0.6019250000     -0.3908150000
C                  0.7227820000      0.0698280000     -1.0878360000
C                 -0.5276880000      0.0977340000     -0.1997410000
C                 -1.8019200000      0.6547090000     -0.8660660000
C                 -3.0205260000      0.4209550000      0.0496630000
C                 -4.3882990000      0.7151470000     -0.5810920000
C                 -5.5560600000      0.3689700000      0.3525860000
C                 -6.9646560000      0.5435500000     -0.2504030000
C                 -8.0223340000     -0.0563760000      0.6980760000
C                 -9.4432130000     -0.1571370000      0.1271320000
C                 -1.6468900000      2.1345990000     -1.2485790000
C                -10.4179680000     -0.8550220000      1.0848510000
C                -11.8424950000     -1.0702650000      0.5387610000
C                -12.5779220000      0.2513550000      0.2726560000
C                -12.6568970000     -1.9545120000      1.4938140000
H                  4.1576120000      0.6815550000      0.1021390000
H                  4.1268790000     -1.5706650000     -2.9393260000
H                  2.4725810000     -1.0304200000     -3.2024390000
H                  2.7740990000     -2.4640080000     -2.2336200000
H                  2.1113550000     -0.0906190000      0.5585090000
H                  1.6461170000     -1.6355540000     -0.1391350000
H                  0.4870180000     -0.4606560000     -2.0179130000
H                  1.0127980000      1.0859990000     -1.3736900000
H                 -0.3159600000      0.6807830000      0.7070980000
H                 -0.7341030000     -0.9250590000      0.1404000000
H                 -1.9686620000      0.0810580000     -1.7897180000
H                 -2.9027610000      1.0257480000      0.9594760000
H                 -3.0092050000     -0.6253970000      0.3800660000
H                 -4.4873940000      0.1372610000     -1.5099640000
H                 -4.4440100000      1.7691350000     -0.8673890000
H                 -5.4824860000      0.9756100000      1.2658550000
H                 -5.4450490000     -0.6742100000      0.6743620000
C                 -7.2653160000      2.0119440000     -0.5880600000
H                 -8.0446240000      0.5337550000      1.6247630000
H                 -7.6941370000     -1.0620920000      0.9894920000
H                 -9.4112870000     -0.7119640000     -0.8203410000
H                 -9.8173620000      0.8419530000     -0.1142980000
H                 -0.8041150000      2.2921860000     -1.9255520000
H                 -1.4763390000      2.7476820000     -0.3560370000
H                 -2.5381950000      2.5184300000     -1.7501460000
H                -10.4804950000     -0.2829850000      2.0211350000
H                -10.0003290000     -1.8328140000      1.3566890000
H                -11.7533710000     -1.6047240000     -0.4174070000
H                -12.0612980000      0.8697330000     -0.4653140000
H                -12.6691430000      0.8366730000      1.1948400000
H                -13.5887780000      0.0671070000     -0.1032940000
H                -12.1687830000     -2.9198820000      1.6580170000
H                -13.6588660000     -2.1483580000      1.0993320000
H                -12.7731550000     -1.4703780000      2.4699500000
H                 -6.9964010000     -0.0330830000     -1.1866100000
H                 -7.2443110000      2.6279820000      0.3184630000
H                 -8.2500200000      2.1287420000     -1.0464790000
H                 -6.5346600000      2.4247910000     -1.2874640000
$end
$rem
MAX_SCF_CYCLES=200
BASIS  =  6-311++G(d,p)
GUI  =  2
JOB_TYPE  =  SP
METHOD  =  B3LYP
THRESH = 14
SCF_CONVERGENCE  = 6
SOLVENT_METHOD = COSMO
$end
$solvent
dielectric 37.219
opticaldielectric 1.43
$end

--------------------------------------------------------------

             Standard Nuclear Orientation (Angstroms)
    I     Atom           X                Y                Z
 ----------------------------------------------------------------
    1      C      -7.2459180520     1.2040959109    -0.2094049466
    2      C      -8.3778690581     1.0668199134    -1.1793159398
    3      C      -8.9441830591    -0.1434890861    -1.3749169396
    4      C      -8.4346650542    -1.3415580881    -0.6434009463
    5      C      -7.2949290482    -1.2058560906     0.3142040469
    6      C      -6.7477290470     0.0086679089     0.5344600469
    7      O      -6.7244370510     2.2954919105    -0.0238209467
    8      O      -8.9571170552    -2.4313860877    -0.8330499461
    9      C      -5.6000030410     0.2458479064     1.4930300403
   10      C      -6.8318730436    -2.4633100924     0.9972180404
   11      C      -8.8181220628     2.3252789153    -1.8811929334
   12      C     -10.0889350650    -0.4020630837    -2.3113679331
   13      C      -4.2563530453     0.1010519086     0.8125740314
   14      H      -5.6885650355    -0.4303500960     2.3435010390
   15      H      -5.6880960388     1.2675489053     1.8743540438
   16      H      -7.2705350465    -3.3368130912     0.5178160407
   17      H      -7.1400750370    -2.4714850955     2.0487110423
   18      H      -5.7434440438    -2.5437090921     0.9712460333
   19      H      -8.1641020612     3.1523889147    -1.6115589352
   20      H      -9.8415240611     2.5942409143    -1.6019559262
   21      H      -8.7968680696     2.2017859184    -2.9671069339
   22      H     -10.4611210680     0.5145519175    -2.7649899282
   23      H     -10.9083760615    -0.8959420854    -1.7828119294
   24      H      -9.7851460698    -1.0903100814    -3.1059429370
   25      C      -3.1972930426    -0.6173580923     1.2102880227
   26      C      -3.1536960346    -1.4613580959     2.4607990200
   27      C      -1.9222580478    -0.6019250897     0.3908150146
   28      C      -0.7227820436     0.0698279085     1.0878360090
   29      C       0.5276879508     0.0977339113     0.1997410011
   30      C       1.8019199549     0.6547089097     0.8660659947
   31      C       3.0205259492     0.4209549125    -0.0496630137
   32      C       4.3882989531     0.7151469110     0.5810919785
   33      C       5.5560599473     0.3689699139    -0.3525860299
   34      C       6.9646559511     0.5435499124     0.2504029617
   35      C       8.0223339452    -0.0563760846    -0.6980760467
   36      C       9.4432129488    -0.1571370860    -0.1271320560
   37      C       1.6468899570     2.1345989085     1.2485789999
   38      C      10.4179679429    -0.8550220831    -1.0848510641
   39      C      11.8424949464    -1.0702650843    -0.5387610737
   40      C      12.5779219478     0.2513549151    -0.2726560746
   41      C      12.6568969405    -1.9545120814    -1.4938140814
   42      H      -4.1576120512     0.6815549112    -0.1021389676
   43      H      -4.1268790315    -1.5706650974     2.9393260258
   44      H      -2.4725810300    -1.0304200978     3.2024390169
   45      H      -2.7740990358    -2.4640080951     2.2336200147
   46      H      -2.1113550539    -0.0906190871    -0.5585089827
   47      H      -1.6461170492    -1.6355540890     0.1391350100
   48      H      -0.4870180376    -0.4606560941     2.0179130060
   49      H      -1.0127980420     1.0859989077     1.3736900137
   50      H       0.3159599450     0.6807829138    -0.7070979959
   51      H       0.7341029489    -0.9250590877    -0.1404000031
   52      H       1.9686619609     0.0810579071     1.7897179920
   53      H       2.9027609433     1.0257479151    -0.9594760112
   54      H       3.0092049473    -0.6253970866    -0.3800660166
   55      H       4.4873939591     0.1372609084     1.5099639762
   56      H       4.4440099547     1.7691349102     0.8673889811
   57      H       5.4824859414     0.9756099165    -1.2658550277
   58      H       5.4450489455    -0.6742100852    -0.6743620321
   59      C       7.2653159529     2.0119439115     0.5880599640
   60      H       8.0446239392     0.5337549180    -1.6247630452
   61      H       7.6941369435    -1.0620920839    -0.9894920475
   62      H       9.4112869549    -0.7119640887     0.8203409427
   63      H       9.8173619501     0.8419529134     0.1142979445
   64      H       0.8041149613     2.2921859064     1.9255520056
   65      H       1.4763389513     2.7476819110     0.3560370027
   66      H       2.5381949601     2.5184299073     1.7501459953
   67      H      10.4804949369    -0.2829850804    -2.0211350629
   68      H      10.0003289414    -1.8328140824    -1.3566890643
   69      H      11.7533709525    -1.6047240871     0.4174069253
   70      H      12.0612979523     0.8697329129     0.4653139304
   71      H      12.6691429419     0.8366729177    -1.1948400735
   72      H      13.5887779502     0.0671069142     0.1032939185
   73      H      12.1687829397    -2.9198820811    -1.6580170811
   74      H      13.6588659431    -2.1483580824    -1.0993320883
   75      H      12.7731549343    -1.4703780786    -2.4699500808
   76      H       6.9964009571    -0.0330830902     1.1866099599
   77      H       7.2443109470     2.6279819141    -0.3184630341
   78      H       8.2500199558     2.1287419104     1.0464789581
   79      H       6.5346599572     2.4247909094     1.2874639698
 ----------------------------------------------------------------

   10   -1284.8064267757      8.74e-07  Convergence criterion met
 Total energy in the final basis set =    -1284.8064267757
    6   -1284.8203882993      6.05e-07  Convergence criterion met
 Total energy in the final basis set =    -1284.8203882993

                    Orbital Energies (a.u.)
 --------------------------------------------------------------

 Alpha MOs
 -- Occupied --
-19.1353 -19.1348 -10.2791 -10.2783 -10.2079 -10.2074 -10.2064 -10.2055
-10.1787 -10.1777 -10.1699 -10.1689 -10.1681 -10.1670 -10.1660 -10.1660
-10.1652 -10.1638 -10.1608 -10.1598 -10.1567 -10.1555 -10.1555 -10.1553
-10.1553 -10.1551 -10.1550 -10.1504 -10.1502 -10.1496 -10.1494  -1.0680
 -1.0661  -0.8654  -0.8334  -0.8220  -0.8170  -0.8082  -0.7977  -0.7690
 -0.7544  -0.7460  -0.7389  -0.7243  -0.7177  -0.6866  -0.6784  -0.6762
 -0.6733  -0.6658  -0.6574  -0.6430  -0.6162  -0.5914  -0.5765  -0.5733
 -0.5687  -0.5581  -0.5539  -0.5462  -0.5415  -0.5192  -0.4844  -0.4775
 -0.4739  -0.4729  -0.4677  -0.4631  -0.4618  -0.4481  -0.4401  -0.4393
 -0.4381  -0.4326  -0.4298  -0.4270  -0.4269  -0.4223  -0.4184  -0.4163
 -0.4153  -0.4119  -0.4100  -0.4058  -0.4027  -0.3938  -0.3911  -0.3890
 -0.3856  -0.3849  -0.3793  -0.3792  -0.3757  -0.3745  -0.3706  -0.3676
 -0.3646  -0.3577  -0.3550  -0.3514  -0.3485  -0.3413  -0.3388  -0.3327
 -0.3282  -0.3216  -0.3204  -0.3161  -0.3145  -0.3133  -0.3108  -0.3099
 -0.3046  -0.2910  -0.2901  -0.2856  -0.2722  -0.2639  -0.2399

          Ground-State Mulliken Net Atomic Charges

     Atom                 Charge (a.u.)
  ----------------------------------------
      1 C                    -1.311330
      2 C                     0.174300
      3 C                     0.489718
      4 C                    -0.949070
      5 C                     0.958079
      6 C                     1.094297
      7 O                    -0.273933
      8 O                    -0.290609
      9 C                    -0.084757
     10 C                    -0.663666
     11 C                    -0.541326
     12 C                    -0.561992
     13 C                    -0.618933
     14 H                     0.192217
     15 H                     0.253784
     16 H                     0.191624
     17 H                     0.221919
     18 H                     0.178879
     19 H                     0.196207
     20 H                     0.196931
     21 H                     0.186195
     22 H                     0.177050
     23 H                     0.189721
     24 H                     0.198378
     25 C                     1.383218
     26 C                    -0.797128
     27 C                    -1.243598
     28 C                    -0.171924
     29 C                    -0.861806
     30 C                     1.330900
     31 C                    -0.971029
     32 C                    -0.078753
     33 C                    -1.015506
     34 C                     1.300433
     35 C                    -0.752567
     36 C                     0.031787
     37 C                    -0.796684
     38 C                    -0.768385
     39 C                     0.524960
     40 C                    -0.705209
     41 C                    -0.680429
     42 H                     0.246288
     43 H                     0.111559
     44 H                     0.184197
     45 H                     0.182905
     46 H                     0.134680
     47 H                     0.188372
     48 H                     0.137706
     49 H                     0.151840
     50 H                     0.145381
     51 H                     0.128065
     52 H                     0.142148
     53 H                     0.155984
     54 H                     0.111774
     55 H                     0.161776
     56 H                     0.099912
     57 H                     0.152110
     58 H                     0.116381
     59 C                    -0.782000
     60 H                     0.147238
     61 H                     0.112148
     62 H                     0.152256
     63 H                     0.098919
     64 H                     0.145954
     65 H                     0.167747
     66 H                     0.147964
     67 H                     0.146461
     68 H                     0.132994
     69 H                     0.144630
     70 H                     0.146981
     71 H                     0.153016
     72 H                     0.152216
     73 H                     0.141549
     74 H                     0.162602
     75 H                     0.146044
     76 H                     0.136787
     77 H                     0.165686
     78 H                     0.149842
     79 H                     0.147921
  ----------------------------------------
  Sum of atomic charges =     0.000000

                    Cartesian Multipole Moments
 -----------------------------------------------------------------
    Charge (ESU x 10^10)
                 0.0000
    Dipole Moment (Debye)
         X       0.4338      Y      -0.4485      Z       0.5627
       Tot       0.8403
    Quadrupole Moments (Debye-Ang)
        XX    -200.0661     XY     -12.4173     YY    -212.5105
        XZ       6.3009     YZ      -9.2089     ZZ    -191.8145

 Total job time:  740.38s(wall), 5593.61s(cpu)
        *  Thank you very much for using Q-Chem.  Have a nice day.  *
