 Q-Chem 5.4, Q-Chem, Inc., Pleasanton, CA (2021)
 Q-Chem 5.4.0 for Intel X86 EM64T Linux

User input:
--------------------------------------------------------------
$molecule
-2 1
C                  4.9835460000     -2.5049780000      0.2006080000
C                  5.6807970000     -1.6654050000     -0.6486890000
C                  4.9619140000     -0.7990650000     -1.5116530000
C                  3.5719880000     -2.5289260000      0.2383430000
C                  2.8397560000     -1.6503950000     -0.6355910000
C                  3.5817190000     -0.8012100000     -1.4958280000
C                  2.9014290000     -3.4430900000      1.1627750000
C                  1.4417800000     -3.3878330000      1.1226390000
C                  0.7238390000     -2.4890570000      0.2268880000
C                  1.3810850000     -1.5949030000     -0.6754630000
C                  0.7118630000     -4.2236340000      1.9722870000
C                 -0.7029910000     -2.5278930000      0.2752120000
C                 -1.3981950000     -3.3558850000      1.1145350000
O                  3.5517800000     -4.2135330000      1.9303120000
O                  0.7638610000     -0.7964380000     -1.4706990000
H                  5.4988040000     -3.1818340000      0.8750460000
H                 -2.4817260000     -3.3522140000      1.1215060000
H                  3.0024890000     -0.1505780000     -2.1432220000
H                  1.2708940000     -4.8810080000      2.6284200000
H                 -1.2232910000     -1.8551070000     -0.3992720000
C                 -0.6900940000     -4.2430040000      2.0075890000
H                  5.4996510000     -0.1337200000     -2.1851840000
C                 -1.3587560000     -5.1443860000      2.9160920000
O                 -0.8671160000     -5.9241640000      3.7306060000
O                 -2.7569010000     -5.0847370000      2.7977330000
C                 -3.4766310000     -5.8790230000      3.7241440000
H                 -4.5317770000     -5.7764210000      3.4577420000
H                 -3.3264140000     -5.5374340000      4.7568160000
H                 -3.1801480000     -6.9305000000      3.6723810000
H                  6.7688060000     -1.6685680000     -0.6563120000
$end

$rem
BASIS  =  6-311++G(d,p)
GUI  =  2
JOB_TYPE  =  SP
METHOD  =  B3LYP
SCF_CONVERGENCE  = 8
SOLVENT_METHOD = sm12
$end

$smx
solvent dimethylformamide
charges CM5
$end

--------------------------------------------------------------

             Standard Nuclear Orientation (Angstroms)
    I     Atom           X                Y                Z
 ----------------------------------------------------------------
    1      C       4.9835460000    -2.5049780000     0.2006080000
    2      C       5.6807970000    -1.6654050000    -0.6486890000
    3      C       4.9619140000    -0.7990650000    -1.5116530000
    4      C       3.5719880000    -2.5289260000     0.2383430000
    5      C       2.8397560000    -1.6503950000    -0.6355910000
    6      C       3.5817190000    -0.8012100000    -1.4958280000
    7      C       2.9014290000    -3.4430900000     1.1627750000
    8      C       1.4417800000    -3.3878330000     1.1226390000
    9      C       0.7238390000    -2.4890570000     0.2268880000
   10      C       1.3810850000    -1.5949030000    -0.6754630000
   11      C       0.7118630000    -4.2236340000     1.9722870000
   12      C      -0.7029910000    -2.5278930000     0.2752120000
   13      C      -1.3981950000    -3.3558850000     1.1145350000
   14      O       3.5517800000    -4.2135330000     1.9303120000
   15      O       0.7638610000    -0.7964380000    -1.4706990000
   16      H       5.4988040000    -3.1818340000     0.8750460000
   17      H      -2.4817260000    -3.3522140000     1.1215060000
   18      H       3.0024890000    -0.1505780000    -2.1432220000
   19      H       1.2708940000    -4.8810080000     2.6284200000
   20      H      -1.2232910000    -1.8551070000    -0.3992720000
   21      C      -0.6900940000    -4.2430040000     2.0075890000
   22      H       5.4996510000    -0.1337200000    -2.1851840000
   23      C      -1.3587560000    -5.1443860000     2.9160920000
   24      O      -0.8671160000    -5.9241640000     3.7306060000
   25      O      -2.7569010000    -5.0847370000     2.7977330000
   26      C      -3.4766310000    -5.8790230000     3.7241440000
   27      H      -4.5317770000    -5.7764210000     3.4577420000
   28      H      -3.3264140000    -5.5374340000     4.7568160000
   29      H      -3.1801480000    -6.9305000000     3.6723810000
   30      H       6.7688060000    -1.6685680000    -0.6563120000
 ----------------------------------------------------------------

   19    -916.8853162406      3.90e-09  Convergence criterion met
 Total energy in the final basis set =     -917.1572442216

                    Orbital Energies (a.u.)
 --------------------------------------------------------------

 Alpha MOs
 -- Occupied --
-19.1513 -19.0974 -19.0466 -19.0269 -10.2871 -10.2153 -10.2052 -10.1878
-10.1788 -10.1765 -10.1740 -10.1738 -10.1719 -10.1707 -10.1675 -10.1636
-10.1629 -10.1624 -10.1578 -10.1495  -1.0843  -0.9995  -0.9696  -0.9453
 -0.8506  -0.8440  -0.7790  -0.7500  -0.7473  -0.7394  -0.7066  -0.6586
 -0.6372  -0.6162  -0.5855  -0.5655  -0.5490  -0.5310  -0.5207  -0.4832
 -0.4714  -0.4691  -0.4565  -0.4509  -0.4420  -0.4272  -0.4235  -0.4194
 -0.4037  -0.3940  -0.3906  -0.3899  -0.3881  -0.3696  -0.3556  -0.3524
 -0.3441  -0.3428  -0.3358  -0.3174  -0.3162  -0.2952  -0.2727  -0.2573
 -0.2474  -0.2416  -0.2358  -0.2189  -0.2041  -0.1223

          Ground-State Mulliken Net Atomic Charges

     Atom                 Charge (a.u.)
  ----------------------------------------
      1 C                     0.150375
      2 C                     1.823048
      3 C                     1.883780
      4 C                    -0.343974
      5 C                    -1.536145
      6 C                    -0.050609
      7 C                    -2.110504
      8 C                    -0.852830
      9 C                    -3.292109
     10 C                    -3.340105
     11 C                    -1.780256
     12 C                    -0.474642
     13 C                     1.114854
     14 O                    -0.281825
     15 O                    -0.347864
     16 H                     0.136544
     17 H                     0.229084
     18 H                     0.125238
     19 H                     0.096924
     20 H                     0.154624
     21 C                     0.973972
     22 H                     0.412019
     23 C                     4.048144
     24 O                    -0.307323
     25 O                    -0.040153
     26 C                     0.469259
     27 H                     0.307322
     28 H                     0.200981
     29 H                     0.208428
     30 H                     0.423741
  ----------------------------------------
  Sum of atomic charges =    -2.000000

                    Cartesian Multipole Moments
 -----------------------------------------------------------------
    Charge (ESU x 10^10)
                -9.6064
    Dipole Moment (Debye)
         X     -16.7160      Y      26.9871      Z      -5.1083
       Tot      32.1531
    Quadrupole Moments (Debye-Ang)
        XX    -187.4152     XY      47.9815     YY    -234.8238
        XZ     -10.1890     YZ      45.4355     ZZ    -161.7979

 Total job time:  995.71s(wall), 7760.84s(cpu)
        *  Thank you very much for using Q-Chem.  Have a nice day.  *
