 Gaussian 16, Revision A.03,
 Gaussian 16:  ES64L-G16RevA.03 25-Dec-2016

 ----------------------------------------------
 #P UB3LYP/6-311++G(d,p) nosym opt freq SCF=YQC
 ----------------------------------------------

 -------
 Reduced
 -------
 Symbolic Z-matrix:
 Charge = -2 Multiplicity = 1

 SCF Done:  E(UB3LYP) =  -916.897298090     a.u. after    9 cycles
 SCF Done:  E(UB3LYP) =  -916.897416774     A.U. after   33 cycles
 SCF Done:  E(UB3LYP) =  -916.897750505     a.u. after    5 cycles
 Optimization completed.
    -- Stationary point found.
 Normal termination of Gaussian 16 at Mon Jan  8 02:30:25 2024.

 ----------------------------------------------------------------------
 #P Geom=AllCheck Guess=TCheck SCRF=Check GenChk UB3LYP/6-311++G(d,p) F
 req
 ----------------------------------------------------------------------

 Structure from the checkpoint file:  "221-an.chk"
 -------
 Reduced
 -------
 Charge = -2 Multiplicity = 1

                          Input orientation:
 ---------------------------------------------------------------------
 Center     Atomic      Atomic             Coordinates (Angstroms)
 Number     Number       Type             X           Y           Z
 ---------------------------------------------------------------------
      1          6           0        4.983546   -2.504978    0.200608
      2          6           0        5.680797   -1.665405   -0.648689
      3          6           0        4.961914   -0.799065   -1.511653
      4          6           0        3.571988   -2.528926    0.238343
      5          6           0        2.839756   -1.650395   -0.635591
      6          6           0        3.581719   -0.801210   -1.495828
      7          6           0        2.901429   -3.443090    1.162775
      8          6           0        1.441780   -3.387833    1.122639
      9          6           0        0.723839   -2.489057    0.226888
     10          6           0        1.381085   -1.594903   -0.675463
     11          6           0        0.711863   -4.223634    1.972287
     12          6           0       -0.702991   -2.527893    0.275212
     13          6           0       -1.398195   -3.355885    1.114535
     14          8           0        3.551780   -4.213533    1.930312
     15          8           0        0.763861   -0.796438   -1.470699
     16          1           0        5.498804   -3.181834    0.875046
     17          1           0       -2.481726   -3.352214    1.121506
     18          1           0        3.002489   -0.150578   -2.143222
     19          1           0        1.270894   -4.881008    2.628420
     20          1           0       -1.223291   -1.855107   -0.399272
     21          6           0       -0.690094   -4.243004    2.007589
     22          1           0        5.499651   -0.133720   -2.185184
     23          6           0       -1.358756   -5.144386    2.916092
     24          8           0       -0.867116   -5.924164    3.730606
     25          8           0       -2.756901   -5.084737    2.797733
     26          6           0       -3.476631   -5.879023    3.724144
     27          1           0       -4.531777   -5.776421    3.457742
     28          1           0       -3.326414   -5.537434    4.756816
     29          1           0       -3.180148   -6.930500    3.672381
     30          1           0        6.768806   -1.668568   -0.656312
 ---------------------------------------------------------------------

 SCF Done:  E(UB3LYP) =  -916.897750505     a.u. after    1 cycles
 SCF Done:  E(UB3LYP) =  -916.897750505     A.U. after    2 cycles

 Alpha  occ. eigenvalues --  -18.94629 -18.87721 -18.81470 -18.79014 -10.06491
 Alpha  occ. eigenvalues --  -10.03460  -9.97327  -9.95222  -9.95191  -9.94935
 Alpha  occ. eigenvalues --   -9.94281  -9.93911  -9.93862  -9.93727  -9.93058
 Alpha  occ. eigenvalues --   -9.92907  -9.92867  -9.92445  -9.92175  -9.91119
 Alpha  occ. eigenvalues --   -0.87564  -0.78565  -0.73630  -0.70809  -0.61937
 Alpha  occ. eigenvalues --   -0.60908  -0.55051  -0.52755  -0.51609  -0.50730
 Alpha  occ. eigenvalues --   -0.49324  -0.42765  -0.41036  -0.38427  -0.36309
 Alpha  occ. eigenvalues --   -0.33975  -0.31832  -0.30732  -0.29224  -0.27675
 Alpha  occ. eigenvalues --   -0.26455  -0.25275  -0.22701  -0.22250  -0.21964
 Alpha  occ. eigenvalues --   -0.21001  -0.19249  -0.18758  -0.18062  -0.16566
 Alpha  occ. eigenvalues --   -0.16260  -0.16041  -0.15644  -0.14854  -0.13386
 Alpha  occ. eigenvalues --   -0.12358  -0.11191  -0.10632  -0.10349  -0.09223
 Alpha  occ. eigenvalues --   -0.08332  -0.08108  -0.05657  -0.02332  -0.01179
 Alpha  occ. eigenvalues --   -0.00666   0.00067   0.01411   0.03255   0.11462
 Alpha virt. eigenvalues --    0.12793   0.15096   0.16421   0.16956   0.17135
 Alpha virt. eigenvalues --    0.17583   0.18397   0.19543   0.19725   0.20333
 Alpha virt. eigenvalues --    0.21352   0.22327   0.22831   0.23890   0.24092

  Beta  occ. eigenvalues --  -18.94629 -18.87721 -18.81470 -18.79014 -10.06491
  Beta  occ. eigenvalues --  -10.03460  -9.97327  -9.95222  -9.95191  -9.94935
  Beta  occ. eigenvalues --   -9.94281  -9.93911  -9.93862  -9.93727  -9.93058
  Beta  occ. eigenvalues --   -9.92907  -9.92867  -9.92445  -9.92175  -9.91119
  Beta  occ. eigenvalues --   -0.87564  -0.78565  -0.73630  -0.70809  -0.61937
  Beta  occ. eigenvalues --   -0.60908  -0.55051  -0.52755  -0.51609  -0.50730
  Beta  occ. eigenvalues --   -0.49324  -0.42765  -0.41036  -0.38427  -0.36309
  Beta  occ. eigenvalues --   -0.33975  -0.31832  -0.30732  -0.29224  -0.27675
  Beta  occ. eigenvalues --   -0.26455  -0.25275  -0.22701  -0.22250  -0.21964
  Beta  occ. eigenvalues --   -0.21001  -0.19249  -0.18758  -0.18062  -0.16566
  Beta  occ. eigenvalues --   -0.16260  -0.16041  -0.15644  -0.14854  -0.13386
  Beta  occ. eigenvalues --   -0.12358  -0.11191  -0.10632  -0.10349  -0.09223
  Beta  occ. eigenvalues --   -0.08332  -0.08108  -0.05657  -0.02332  -0.01179
  Beta  occ. eigenvalues --   -0.00666   0.00067   0.01411   0.03255   0.11462
  Beta virt. eigenvalues --    0.12793   0.15096   0.16421   0.16956   0.17135
  Beta virt. eigenvalues --    0.17583   0.18397   0.19543   0.19725   0.20333
  Beta virt. eigenvalues --    0.21352   0.22327   0.22831   0.23890   0.24092

 Mulliken charges and spin densities:
               1          2
     1  C   -0.028791  -0.000000
     2  C   -0.429458   0.000000
     3  C   -0.406375  -0.000000
     4  C    0.615782  -0.000000
     5  C    0.595936   0.000000
     6  C   -0.091764  -0.000000
     7  C   -0.795224   0.000000
     8  C    0.362903  -0.000000
     9  C    0.364556   0.000000
    10  C   -1.113330   0.000000
    11  C   -0.044529  -0.000000
    12  C   -0.171930  -0.000000
    13  C   -0.561673  -0.000000
    14  O   -0.435978  -0.000000
    15  O   -0.494563  -0.000000
    16  H    0.129311   0.000000
    17  H    0.131782  -0.000000
    18  H    0.138884  -0.000000
    19  H    0.162083   0.000000
    20  H    0.139639  -0.000000
    21  C    0.171642   0.000000
    22  H    0.084849   0.000000
    23  C    0.026883  -0.000000
    24  O   -0.369835   0.000000
    25  O   -0.151398  -0.000000
    26  C    0.144633   0.000000
    27  H   -0.138191  -0.000000
    28  H    0.023410  -0.000000
    29  H    0.055504  -0.000000
    30  H    0.085245  -0.000000
 Sum of Mulliken charges =  -2.00000   0.00000

 Dipole moment (field-independent basis, Debye):
    X=            -11.9765    Y=             30.0246    Z=             -8.2761  Tot=             33.3677
 Quadrupole moment (field-independent basis, Debye-Ang):
   XX=           -210.1105   YY=           -262.3079   ZZ=           -177.2956
   XY=             18.5122   XZ=              9.1341   YZ=             66.4876

  Exact polarizability:2410.2041073.051 794.497********-636.979 854.403
 Approx polarizability:3507.4431610.1921236.217****************1324.071

                      1                      2                      3
                      A                      A                      A
 Frequencies --     33.9289                57.9075                73.5117
 Red. masses --      5.5583                 7.0463                 4.4788
 Frc consts  --      0.0038                 0.0139                 0.0143
 IR Inten    --      1.6473                 2.9085                 5.0089

                      4                      5                      6
                      A                      A                      A
 Frequencies --    101.5920               109.3105               130.6799
 Red. masses --      3.9621                 2.4248                 3.8711
 Frc consts  --      0.0241                 0.0171                 0.0389
 IR Inten    --      5.8189                17.9371                 0.8055

                      7                      8                      9
                      A                      A                      A
 Frequencies --    147.6976               166.5183               202.9304
 Red. masses --      1.6177                 6.8609                 5.4482
 Frc consts  --      0.0208                 0.1121                 0.1322
 IR Inten    --      1.9853                 4.7142                 1.8928

                     10                     11                     12
                      A                      A                      A
 Frequencies --    222.7980               245.6790               264.5276
 Red. masses --      5.2031                 8.0387                 6.1880
 Frc consts  --      0.1522                 0.2859                 0.2551
 IR Inten    --      0.4419                 7.0593                17.0737

                     13                     14                     15
                      A                      A                      A
 Frequencies --    290.5718               339.9166               369.8392
 Red. masses --      7.1903                 4.5612                10.8520
 Frc consts  --      0.3577                 0.3105                 0.8745
 IR Inten    --      1.7470               418.8637                96.1562

                     16                     17                     18
                      A                      A                      A
 Frequencies --    401.4890               412.8443               428.4749
 Red. masses --      5.8590                 7.1178                 3.7045
 Frc consts  --      0.5564                 0.7148                 0.4007
 IR Inten    --     28.0673                43.3032                 9.1373

                     19                     20                     21
                      A                      A                      A
 Frequencies --    461.5243               471.6110               492.1751
 Red. masses --      8.9810                 3.2154                 7.2159
 Frc consts  --      1.1271                 0.4214                 1.0299
 IR Inten    --   1073.2188                 0.2060               554.3077

                     22                     23                     24
                      A                      A                      A
 Frequencies --    498.4826               512.2786               625.4748
 Red. masses --      4.7524                 7.8152                 4.9261
 Frc consts  --      0.6958                 1.2084                 1.1355
 IR Inten    --     11.0499                53.6238                11.0312

                     25                     26                     27
                      A                      A                      A
 Frequencies --    631.3225               643.6453               688.2681
 Red. masses --      6.8308                 6.6638                 2.4808
 Frc consts  --      1.6041                 1.6265                 0.6924
 IR Inten    --     26.5625                 6.3945                98.6225

                     28                     29                     30
                      A                      A                      A
 Frequencies --    688.9335               691.6538               713.9658
 Red. masses --      3.7956                 6.6121                 4.1591
 Frc consts  --      1.0614                 1.8637                 1.2491
 IR Inten    --     34.2594                 4.6036                44.1381

                     31                     32                     33
                      A                      A                      A
 Frequencies --    736.0521               748.4563               759.7406
 Red. masses --      3.4763                 5.0808                 2.9156
 Frc consts  --      1.1097                 1.6769                 0.9916
 IR Inten    --    470.0001               873.3320                 3.6790

                     34                     35                     36
                      A                      A                      A
 Frequencies --    785.5357               804.2799               823.4181
 Red. masses --      1.9648                 1.6691                 6.6168
 Frc consts  --      0.7143                 0.6361                 2.6433
 IR Inten    --     17.6770                 5.0100               763.1964

                     37                     38                     39
                      A                      A                      A
 Frequencies --    835.1361               921.0852               931.5683
 Red. masses --      2.9552                 7.2412                 7.2770
 Frc consts  --      1.2144                 3.6196                 3.7208
 IR Inten    --      2.3716              1130.5171               496.4215

                     40                     41                     42
                      A                      A                      A
 Frequencies --    959.8239               968.1536               974.2715
 Red. masses --      1.2672                 1.3284                 1.3388
 Frc consts  --      0.6878                 0.7336                 0.7487
 IR Inten    --      0.2347                 2.0147                10.1047

                     43                     44                     45
                      A                      A                      A
 Frequencies --    982.3990              1010.7723              1021.1577
 Red. masses --      1.3630                 2.9214                 1.9896
 Frc consts  --      0.7750                 1.7585                 1.2224
 IR Inten    --      5.0729               258.2139               515.6940

                     46                     47                     48
                      A                      A                      A
 Frequencies --   1052.9737              1094.8965              1102.5883
 Red. masses --      6.5343                 2.4701                 1.9171
 Frc consts  --      4.2686                 1.7446                 1.3732
 IR Inten    --   5586.5583                58.0226                68.2778

                     49                     50                     51
                      A                      A                      A
 Frequencies --   1131.0925              1147.8785              1165.2352
 Red. masses --      1.4658                 1.8574                 1.2845
 Frc consts  --      1.1049                 1.4419                 1.0276
 IR Inten    --    341.8757               361.5847                46.2344

                     52                     53                     54
                      A                      A                      A
 Frequencies --   1170.0173              1190.7791              1203.6231
 Red. masses --      2.0677                 2.2554                 1.9949
 Frc consts  --      1.6678                 1.8843                 1.7028
 IR Inten    --   1677.3094               387.3323                16.1779

                     55                     56                     57
                      A                      A                      A
 Frequencies --   1211.8036              1236.1542              1270.0145
 Red. masses --      2.1771                 2.4206                 2.2172
 Frc consts  --      1.8836                 2.1793                 2.1070
 IR Inten    --   1141.9577               133.3560               669.2463

                     58                     59                     60
                      A                      A                      A
 Frequencies --   1324.0670              1347.7548              1359.6577
 Red. masses --      2.7841                 7.3599                 3.9226
 Frc consts  --      2.8758                 7.8767                 4.2725
 IR Inten    --    195.8888               288.5223               329.0590

                     61                     62                     63
                      A                      A                      A
 Frequencies --   1394.0350              1435.3843              1444.9224
 Red. masses --      3.4212                 4.1245                 1.4161
 Frc consts  --      3.9172                 5.0067                 1.7419
 IR Inten    --   1103.7570              4104.7116               919.2018

                     64                     65                     66
                      A                      A                      A
 Frequencies --   1459.3263              1465.0051              1474.6745
 Red. masses --      2.7018                 1.0572                 2.7280
 Frc consts  --      3.3901                 1.3369                 3.4953
 IR Inten    --    303.6602               134.8979                33.4113

                     67                     68                     69
                      A                      A                      A
 Frequencies --   1484.2427              1497.9674              1500.5593
 Red. masses --      4.2237                 5.3762                 1.1123
 Frc consts  --      5.4821                 7.1077                 1.4756
 IR Inten    --    545.2913              1126.3710               192.8999

                     70                     71                     72
                      A                      A                      A
 Frequencies --   1517.4616              1557.5828              1585.2243
 Red. masses --      6.2681                 6.8016                 5.8522
 Frc consts  --      8.5040                 9.7221                 8.6646
 IR Inten    --    249.0144              1308.3474              5182.7073

                     73                     74                     75
                      A                      A                      A
 Frequencies --   1599.7884              1659.7170              2983.1004
 Red. masses --      5.9519                 9.1849                 1.0397
 Frc consts  --      8.9749                14.9071                 5.4514
 IR Inten    --   1506.1385               788.7655                82.4947

                     76                     77                     78
                      A                      A                      A
 Frequencies --   3046.6302              3082.0777              3096.8894
 Red. masses --      1.0914                 1.1047                 1.0831
 Frc consts  --      5.9688                 6.1827                 6.1204
 IR Inten    --    769.7364                40.9162                67.0814

                     79                     80                     81
                      A                      A                      A
 Frequencies --   3121.2305              3153.6597              3160.7603
 Red. masses --      1.0906                 1.0854                 1.0907
 Frc consts  --      6.2601                 6.3601                 6.4200
 IR Inten    --    425.4297                 4.4796                90.3200

                     82                     83                     84
                      A                      A                      A
 Frequencies --   3164.4768              3177.5049              3185.2240
 Red. masses --      1.0911                 1.0927                 1.0887
 Frc consts  --      6.4377                 6.5002                 6.5077
 IR Inten    --    273.0456                97.3548                 7.3961

 - Thermochemistry -
 -------------------
 Temperature   298.150 Kelvin.  Pressure   1.00000 Atm.
 Atom     1 has atomic number  6 and mass  12.00000

 Molecular mass:   266.05791 amu.
 Principal axes and moments of inertia in atomic units:
                           1         2         3
     Eigenvalues --  1980.11289********************
           X            0.76129   0.64838   0.00609
           Y            0.45331  -0.53893   0.70997
           Z           -0.46361   0.53774   0.70420
 This molecule is an asymmetric top.
 Rotational symmetry number  1.
 Warning -- assumption of classical behavior for rotation
           may cause significant error
 Rotational temperatures (Kelvin)      0.04374     0.00855     0.00716
 Rotational constants (GHZ):           0.91143     0.17822     0.14922
 Zero-point vibrational energy     566057.3 (Joules/Mol)
                                  135.29093 (Kcal/Mol)
 Warning -- explicit consideration of  23 degrees of freedom as
           vibrations may cause significant error
 Vibrational temperatures:     48.82    83.32   105.77   146.17   157.27
          (Kelvin)            188.02   212.50   239.58   291.97   320.56
                              353.48   380.60   418.07   489.06   532.12
                              577.65   593.99   616.48   664.03   678.54
                              708.13   717.21   737.05   899.92   908.33
                              926.06   990.26   991.22   995.14  1027.24
                             1059.01  1076.86  1093.10  1130.21  1157.18
                             1184.71  1201.57  1325.24  1340.32  1380.97
                             1392.96  1401.76  1413.45  1454.28  1469.22
                             1514.99  1575.31  1586.38  1627.39  1651.54
                             1676.51  1683.39  1713.27  1731.75  1743.52
                             1778.55  1827.27  1905.04  1939.12  1956.24
                             2005.71  2065.20  2078.92  2099.65  2107.82
                             2121.73  2135.49  2155.24  2158.97  2183.29
                             2241.01  2280.78  2301.74  2387.96  4292.02
                             4383.42  4434.42  4455.73  4490.75  4537.41
                             4547.63  4552.98  4571.72  4582.83

 Zero-point correction=                           0.215600 (Hartree/Particle)
 Thermal correction to Energy=                    0.231677
 Thermal correction to Enthalpy=                  0.232621
 Thermal correction to Gibbs Free Energy=         0.171551
 Sum of electronic and zero-point Energies=           -916.682151
 Sum of electronic and thermal Energies=              -916.666074
 Sum of electronic and thermal Enthalpies=            -916.665129
 Sum of electronic and thermal Free Energies=         -916.726200

                     E (Thermal)             CV                S
                      KCal/Mol        Cal/Mol-Kelvin    Cal/Mol-Kelvin
 Total                  145.379             62.673            128.533
 Electronic               0.000              0.000              0.000
 Translational            0.889              2.981             42.635
 Rotational               0.889              2.981             33.849
 Vibrational            143.602             56.711             52.049
 Vibration     1          0.594              1.983              5.585
 Vibration     2          0.596              1.974              4.527
 Vibration     3          0.599              1.966              4.057
 Vibration     4          0.604              1.948              3.424
 Vibration     5          0.606              1.942              3.281
 Vibration     6          0.612              1.923              2.936
 Vibration     7          0.617              1.905              2.702
 Vibration     8          0.624              1.884              2.474
 Vibration     9          0.639              1.836              2.106
 Vibration    10          0.648              1.806              1.936
 Vibration    11          0.660              1.770              1.761
 Vibration    12          0.671              1.738              1.632
 Vibration    13          0.687              1.691              1.471
 Vibration    14          0.720              1.596              1.213
 Vibration    15          0.742              1.534              1.080
 Vibration    16          0.767              1.467              0.957
 Vibration    17          0.777              1.442              0.917
 Vibration    18          0.790              1.408              0.864
 Vibration    19          0.819              1.335              0.762
 Vibration    20          0.829              1.313              0.733
 Vibration    21          0.848              1.267              0.678
 Vibration    22          0.854              1.253              0.662
 Vibration    23          0.867              1.223              0.628

                           ! Non-Optimized Parameters !
 Normal termination of Gaussian 16 at Mon Jan  8 03:18:04 2024.
