 Q-Chem 5.4, Q-Chem, Inc., Pleasanton, CA (2021)
 Q-Chem 5.4.0 for Intel X86 EM64T Linux

User input:
--------------------------------------------------------------
$molecule
-1 2
C                  1.1413500000      1.5576690000     -0.2807800000
C                 -0.0081400000      1.0749360000      0.4661510000
C                 -0.1816360000     -0.2354430000      0.7803110000
C                  0.7744080000     -1.2601300000      0.4068210000
C                  1.9315070000     -0.8138550000     -0.3610340000
C                  2.0645040000      0.5168410000     -0.7217070000
O                  1.3218300000      2.7777870000     -0.4979360000
O                  0.6216690000     -2.4680540000      0.7256150000
S                  3.4063640000      1.0343810000     -1.8054260000
C                  4.5009270000      2.0401140000     -0.7707030000
C                  4.3150900000      3.4186270000     -0.7098430000
C                  5.5185460000      1.4041010000     -0.0625990000
C                  6.3739280000      2.1740330000      0.7233110000
C                  5.1809510000      4.1770700000      0.0759530000
C                  6.2078810000      3.5579280000      0.7893000000
O                  2.9018960000      1.8849720000     -2.8904480000
O                  4.1677380000     -0.1785410000     -2.1618880000
H                 -0.7201080000      1.8342360000      0.7750240000
H                 -1.0442230000     -0.5732340000      1.3470950000
H                  3.4932620000      3.8652130000     -1.2526840000
H                  5.6270890000      0.3283260000     -0.1296020000
H                  7.1694420000      1.6924330000      1.2815000000
H                  5.0484010000      5.2519900000      0.1354060000
H                  6.8760660000      4.1538020000      1.4026480000
C                  2.9560730000     -1.9117680000     -0.5936240000
C                  2.7346870000     -2.8826650000     -1.7144090000
C                  1.7284040000     -2.6958040000     -2.6648920000
C                  3.5671750000     -4.0028160000     -1.8094980000
C                  1.5566550000     -3.6141490000     -3.6978670000
C                  2.3882530000     -4.7293930000     -3.7862350000
C                  3.3951160000     -4.9223680000     -2.8378270000
O                  3.8778680000     -2.0458730000      0.1877190000
H                  1.0841860000     -1.8274920000     -2.5971060000
H                  4.3427920000     -4.1305330000     -1.0640500000
H                  0.7754440000     -3.4582570000     -4.4340920000
H                  2.2540660000     -5.4454890000     -4.5906930000
H                  4.0438270000     -5.7898260000     -2.9040890000
$end

$rem
BASIS  =  6-311++G(d,p)
GUI  =  2
JOB_TYPE  =  SP
METHOD  =  B3LYP
SCF_CONVERGENCE  = 8
SOLVENT_METHOD = sm12
$end

$smx
solvent dimethylformamide
charges CM5
$end

--------------------------------------------------------------

             Standard Nuclear Orientation (Angstroms)
    I     Atom           X                Y                Z
 ----------------------------------------------------------------
    1      C       1.1413500000     1.5576690000    -0.2807800000
    2      C      -0.0081400000     1.0749360000     0.4661510000
    3      C      -0.1816360000    -0.2354430000     0.7803110000
    4      C       0.7744080000    -1.2601300000     0.4068210000
    5      C       1.9315070000    -0.8138550000    -0.3610340000
    6      C       2.0645040000     0.5168410000    -0.7217070000
    7      O       1.3218300000     2.7777870000    -0.4979360000
    8      O       0.6216690000    -2.4680540000     0.7256150000
    9      S       3.4063640000     1.0343810000    -1.8054260000
   10      C       4.5009270000     2.0401140000    -0.7707030000
   11      C       4.3150900000     3.4186270000    -0.7098430000
   12      C       5.5185460000     1.4041010000    -0.0625990000
   13      C       6.3739280000     2.1740330000     0.7233110000
   14      C       5.1809510000     4.1770700000     0.0759530000
   15      C       6.2078810000     3.5579280000     0.7893000000
   16      O       2.9018960000     1.8849720000    -2.8904480000
   17      O       4.1677380000    -0.1785410000    -2.1618880000
   18      H      -0.7201080000     1.8342360000     0.7750240000
   19      H      -1.0442230000    -0.5732340000     1.3470950000
   20      H       3.4932620000     3.8652130000    -1.2526840000
   21      H       5.6270890000     0.3283260000    -0.1296020000
   22      H       7.1694420000     1.6924330000     1.2815000000
   23      H       5.0484010000     5.2519900000     0.1354060000
   24      H       6.8760660000     4.1538020000     1.4026480000
   25      C       2.9560730000    -1.9117680000    -0.5936240000
   26      C       2.7346870000    -2.8826650000    -1.7144090000
   27      C       1.7284040000    -2.6958040000    -2.6648920000
   28      C       3.5671750000    -4.0028160000    -1.8094980000
   29      C       1.5566550000    -3.6141490000    -3.6978670000
   30      C       2.3882530000    -4.7293930000    -3.7862350000
   31      C       3.3951160000    -4.9223680000    -2.8378270000
   32      O       3.8778680000    -2.0458730000     0.1877190000
   33      H       1.0841860000    -1.8274920000    -2.5971060000
   34      H       4.3427920000    -4.1305330000    -1.0640500000
   35      H       0.7754440000    -3.4582570000    -4.4340920000
   36      H       2.2540660000    -5.4454890000    -4.5906930000
   37      H       4.0438270000    -5.7898260000    -2.9040890000
 ----------------------------------------------------------------

   17   -1505.8635786821      8.11e-09  Convergence criterion met
 Total energy in the final basis set =    -1505.9567891851

                    Orbital Energies (a.u.)
 --------------------------------------------------------------

 Alpha MOs
 -- Occupied --
-89.0491 -19.1179 -19.1131 -19.1123 -19.0901 -19.0892 -10.2753 -10.2429
-10.2374 -10.2135 -10.2101 -10.2032 -10.1960 -10.1936 -10.1927 -10.1913
-10.1908 -10.1901 -10.1895 -10.1892 -10.1864 -10.1864 -10.1858 -10.1829
-10.1818  -8.1128  -6.0755  -6.0745  -6.0739  -1.1072  -1.0536  -1.0175
 -1.0134  -1.0016  -0.8785  -0.8710  -0.8488  -0.7903  -0.7809  -0.7665
 -0.7661  -0.7600  -0.7217  -0.6767  -0.6555  -0.6276  -0.6250  -0.6197
 -0.6058  -0.5782  -0.5599  -0.5408  -0.5260  -0.5028  -0.4991  -0.4874
 -0.4805  -0.4774  -0.4683  -0.4630  -0.4575  -0.4513  -0.4468  -0.4421
 -0.4374  -0.4355  -0.4205  -0.4189  -0.4108  -0.3941  -0.3920  -0.3902
 -0.3837  -0.3812  -0.3711  -0.3683  -0.3632  -0.3556  -0.3374  -0.3243
 -0.3080  -0.3034  -0.2990  -0.2862  -0.2768  -0.2727  -0.2694  -0.2682
 -0.2653  -0.2541  -0.2427  -0.1788

 Beta MOs
 -- Occupied --
-89.0491 -19.1177 -19.1130 -19.1124 -19.0826 -19.0821 -10.2754 -10.2423
-10.2366 -10.2135 -10.2089 -10.2006 -10.1960 -10.1936 -10.1926 -10.1913
-10.1908 -10.1901 -10.1895 -10.1891 -10.1864 -10.1863 -10.1857 -10.1824
-10.1810  -8.1128  -6.0756  -6.0745  -6.0739  -1.1070  -1.0528  -1.0070
 -1.0010  -0.9995  -0.8784  -0.8709  -0.8425  -0.7887  -0.7800  -0.7660
 -0.7656  -0.7599  -0.7151  -0.6725  -0.6539  -0.6264  -0.6247  -0.6191
 -0.6041  -0.5766  -0.5587  -0.5398  -0.5246  -0.5013  -0.4970  -0.4861
 -0.4798  -0.4773  -0.4676  -0.4613  -0.4572  -0.4500  -0.4464  -0.4415
 -0.4366  -0.4351  -0.4129  -0.4083  -0.4051  -0.3920  -0.3882  -0.3850
 -0.3816  -0.3712  -0.3689  -0.3631  -0.3584  -0.3553  -0.3365  -0.3239
 -0.3061  -0.3005  -0.2865  -0.2761  -0.2717  -0.2688  -0.2673  -0.2631
 -0.2600  -0.2474  -0.2374

          Ground-State Mulliken Net Atomic Charges

     Atom                 Charge (a.u.)    Spin (a.u.)
  --------------------------------------------------------
      1 C                    -0.657660       0.014082
      2 C                     0.707425       0.064063
      3 C                     0.202799       0.047849
      4 C                    -0.931256       0.054954
      5 C                     0.354313       0.190409
      6 C                    -1.203796       0.128146
      7 O                    -0.291734       0.244443
      8 O                    -0.325932       0.297258
      9 S                    -0.511122      -0.042484
     10 C                    -1.291045       0.001764
     11 C                    -0.555731       0.014801
     12 C                    -0.569347       0.009990
     13 C                     0.383034      -0.001191
     14 C                     0.390915      -0.002764
     15 C                     1.198502       0.003875
     16 O                    -0.063123       0.008480
     17 O                    -0.086715      -0.003245
     18 H                     0.299725      -0.005916
     19 H                     0.280539      -0.004600
     20 H                     0.189055      -0.000555
     21 H                     0.176529       0.001162
     22 H                     0.339428       0.000061
     23 H                     0.342836       0.000143
     24 H                     0.397520      -0.000220
     25 C                    -1.134021      -0.026945
     26 C                    -0.582299      -0.000100
     27 C                    -1.894098       0.000998
     28 C                     0.336184       0.005179
     29 C                     0.842740      -0.005613
     30 C                     0.964435       0.000005
     31 C                     0.595102       0.001389
     32 O                    -0.192662       0.004590
     33 H                     0.041128       0.000366
     34 H                     0.193672      -0.000318
     35 H                     0.329790      -0.000103
     36 H                     0.376885       0.000033
     37 H                     0.347990       0.000016
  --------------------------------------------------------
  Sum of atomic charges =    -1.000000

                    Cartesian Multipole Moments
 -----------------------------------------------------------------
    Charge (ESU x 10^10)
                -4.8032
    Dipole Moment (Debye)
         X      -9.6925      Y       0.7836      Z       3.9101
       Tot      10.4808
    Quadrupole Moments (Debye-Ang)
        XX    -177.1045     XY       4.5599     YY    -172.4405
        XZ      22.0507     YZ      22.2297     ZZ    -169.2181

 Total job time:  1766.93s(wall), 13453.55s(cpu)
        *  Thank you very much for using Q-Chem.  Have a nice day.  *
