 Gaussian 16, Revision A.03,
 Gaussian 16:  ES64L-G16RevA.03 25-Dec-2016

 --------------------------------------
 #P UB3LYP/6-311++G(d,p) nosym opt freq
 --------------------------------------

 -------
 Radical
 -------
 Symbolic Z-matrix:
 Charge = -1 Multiplicity = 2

 SCF Done:  E(UB3LYP) =  -1505.86907487     A.U. after   24 cycles
 Optimization completed.
    -- Stationary point found.
 Normal termination of Gaussian 16 at Wed Jan 10 05:14:03 2024.

 ----------------------------------------------------------------------
 #P Geom=AllCheck Guess=TCheck SCRF=Check GenChk UB3LYP/6-311++G(d,p) F
 req
 ----------------------------------------------------------------------

 Structure from the checkpoint file:  "069-rad.chk"
 -------
 Radical
 -------
 Charge = -1 Multiplicity = 2

                          Input orientation:
 ---------------------------------------------------------------------
 Center     Atomic      Atomic             Coordinates (Angstroms)
 Number     Number       Type             X           Y           Z
 ---------------------------------------------------------------------
      1          6           0        1.141350    1.557669   -0.280780
      2          6           0       -0.008140    1.074936    0.466151
      3          6           0       -0.181636   -0.235443    0.780311
      4          6           0        0.774408   -1.260130    0.406821
      5          6           0        1.931507   -0.813855   -0.361034
      6          6           0        2.064504    0.516841   -0.721707
      7          8           0        1.321830    2.777787   -0.497936
      8          8           0        0.621669   -2.468054    0.725615
      9         16           0        3.406364    1.034381   -1.805426
     10          6           0        4.500927    2.040114   -0.770703
     11          6           0        4.315090    3.418627   -0.709843
     12          6           0        5.518546    1.404101   -0.062599
     13          6           0        6.373928    2.174033    0.723311
     14          6           0        5.180951    4.177070    0.075953
     15          6           0        6.207881    3.557928    0.789300
     16          8           0        2.901896    1.884972   -2.890448
     17          8           0        4.167738   -0.178541   -2.161888
     18          1           0       -0.720108    1.834236    0.775024
     19          1           0       -1.044223   -0.573234    1.347095
     20          1           0        3.493262    3.865213   -1.252684
     21          1           0        5.627089    0.328326   -0.129602
     22          1           0        7.169442    1.692433    1.281500
     23          1           0        5.048401    5.251990    0.135406
     24          1           0        6.876066    4.153802    1.402648
     25          6           0        2.956073   -1.911768   -0.593624
     26          6           0        2.734687   -2.882665   -1.714409
     27          6           0        1.728404   -2.695804   -2.664892
     28          6           0        3.567175   -4.002816   -1.809498
     29          6           0        1.556655   -3.614149   -3.697867
     30          6           0        2.388253   -4.729393   -3.786235
     31          6           0        3.395116   -4.922368   -2.837827
     32          8           0        3.877868   -2.045873    0.187719
     33          1           0        1.084186   -1.827492   -2.597106
     34          1           0        4.342792   -4.130533   -1.064050
     35          1           0        0.775444   -3.458257   -4.434092
     36          1           0        2.254066   -5.445489   -4.590693
     37          1           0        4.043827   -5.789826   -2.904089
 ---------------------------------------------------------------------

 SCF Done:  E(UB3LYP) =  -1505.86907487     A.U. after    2 cycles

 Alpha  occ. eigenvalues --  -88.93613 -19.00610 -18.99902 -18.99858 -18.97169
 Alpha  occ. eigenvalues --  -18.97116 -10.16350 -10.12572 -10.11962 -10.11012
 Alpha  occ. eigenvalues --  -10.10095 -10.09725 -10.09639 -10.09639 -10.09464
 Alpha  occ. eigenvalues --  -10.09410 -10.09371 -10.09051 -10.08948 -10.08756
 Alpha  occ. eigenvalues --  -10.08701 -10.08662 -10.08521 -10.06699 -10.06581
 Alpha  occ. eigenvalues --   -7.99973  -5.96243  -5.96149  -5.96085  -0.99343
 Alpha  occ. eigenvalues --   -0.94121  -0.89958  -0.89502  -0.88716  -0.78107
 Alpha  occ. eigenvalues --   -0.77158  -0.73272  -0.68471  -0.67701  -0.66951
 Alpha  occ. eigenvalues --   -0.66232  -0.65904  -0.60938  -0.56589  -0.54909
 Alpha  occ. eigenvalues --   -0.52880  -0.52389  -0.51811  -0.49883  -0.47186
 Alpha  occ. eigenvalues --   -0.45551  -0.43764  -0.42044  -0.39481  -0.38753
 Alpha  occ. eigenvalues --   -0.38109  -0.37711  -0.37136  -0.36605  -0.36194
 Alpha  occ. eigenvalues --   -0.35326  -0.34789  -0.34440  -0.33760  -0.33433
 Alpha  occ. eigenvalues --   -0.32761  -0.30499  -0.30232  -0.29895  -0.29196
 Alpha  occ. eigenvalues --   -0.28687  -0.27977  -0.27631  -0.27461  -0.26833
 Alpha  occ. eigenvalues --   -0.26672  -0.26128  -0.25666  -0.22340  -0.20988
 Alpha  occ. eigenvalues --   -0.19388  -0.19281  -0.18436  -0.17777  -0.17445
 Alpha  occ. eigenvalues --   -0.16871  -0.16575  -0.16441  -0.15595  -0.13635
 Alpha  occ. eigenvalues --   -0.12611  -0.06083
 Alpha virt. eigenvalues --    0.03889   0.04959   0.06420   0.06667   0.06878
 Alpha virt. eigenvalues --    0.07496   0.07996   0.08441   0.08593   0.09079
 Alpha virt. eigenvalues --    0.09881   0.10229   0.11601   0.11999   0.12309

  Beta  occ. eigenvalues --  -88.93615 -19.00583 -18.99904 -18.99848 -18.96464
  Beta  occ. eigenvalues --  -18.96355 -10.16366 -10.12512 -10.11897 -10.11012
  Beta  occ. eigenvalues --  -10.10088 -10.09725 -10.09641 -10.09635 -10.09464
  Beta  occ. eigenvalues --  -10.09365 -10.09293 -10.09051 -10.08947 -10.08753
  Beta  occ. eigenvalues --  -10.08659 -10.08521 -10.08428 -10.06641 -10.06495
  Beta  occ. eigenvalues --   -7.99975  -5.96245  -5.96150  -5.96090  -0.99324
  Beta  occ. eigenvalues --   -0.94049  -0.89021  -0.88541  -0.88112  -0.78100
  Beta  occ. eigenvalues --   -0.77151  -0.72635  -0.68421  -0.67615  -0.66944
  Beta  occ. eigenvalues --   -0.66200  -0.65741  -0.60343  -0.56191  -0.54722
  Beta  occ. eigenvalues --   -0.52873  -0.52303  -0.51709  -0.49710  -0.47023
  Beta  occ. eigenvalues --   -0.45440  -0.43663  -0.41920  -0.39326  -0.38643
  Beta  occ. eigenvalues --   -0.37997  -0.37618  -0.37032  -0.36557  -0.36169
  Beta  occ. eigenvalues --   -0.35197  -0.34628  -0.34406  -0.33739  -0.33404
  Beta  occ. eigenvalues --   -0.32650  -0.29908  -0.29547  -0.29350  -0.28989
  Beta  occ. eigenvalues --   -0.28238  -0.27651  -0.27407  -0.27281  -0.26651
  Beta  occ. eigenvalues --   -0.26116  -0.25656  -0.24073  -0.22247  -0.20956
  Beta  occ. eigenvalues --   -0.19288  -0.18963  -0.18057  -0.17570  -0.16869
  Beta  occ. eigenvalues --   -0.16515  -0.16229  -0.15085  -0.14326  -0.12944
  Beta  occ. eigenvalues --   -0.12047
  Beta virt. eigenvalues --    0.01152   0.03904   0.05316   0.06421   0.06668
  Beta virt. eigenvalues --    0.06915   0.07528   0.08441   0.08577   0.09035
  Beta virt. eigenvalues --    0.09311   0.09924   0.10236   0.11647   0.12100

 Mulliken charges and spin densities:
               1          2
     1  C   -0.282163   0.014706
     2  C    0.202812   0.061053
     3  C   -0.237414   0.048979
     4  C   -0.395249   0.049395
     5  C    1.035150   0.198311
     6  C   -0.559582   0.126540
     7  O   -0.307508   0.240491
     8  O   -0.328300   0.301014
     9  S    0.033375  -0.042536
    10  C    0.466806   0.002788
    11  C   -0.056281   0.015897
    12  C   -0.080733   0.009788
    13  C   -0.523855  -0.001032
    14  C   -0.499639  -0.003862
    15  C   -0.217267   0.004730
    16  O   -0.036312   0.008290
    17  O   -0.081476  -0.003307
    18  H    0.178901  -0.006190
    19  H    0.168881  -0.005209
    20  H    0.295140  -0.000555
    21  H    0.255310   0.001270
    22  H    0.164601   0.000052
    23  H    0.161704   0.000151
    24  H    0.137770  -0.000321
    25  C   -0.381102  -0.027866
    26  C    0.633487   0.000728
    27  C   -0.939064   0.001019
    28  C    0.465042   0.004955
    29  C   -0.067501  -0.005881
    30  C   -0.345710   0.000076
    31  C   -0.407882   0.001474
    32  O   -0.229719   0.004942
    33  H    0.137335   0.000485
    34  H    0.194788  -0.000292
    35  H    0.172667  -0.000115
    36  H    0.124233   0.000030
    37  H    0.148754   0.000002
 Sum of Mulliken charges =  -1.00000   1.00000

 Dipole moment (field-independent basis, Debye):
    X=            -10.7050    Y=              0.8154    Z=              4.0330  Tot=             11.4685
 Quadrupole moment (field-independent basis, Debye-Ang):
   XX=           -187.0755   YY=           -182.7820   ZZ=           -173.0105
   XY=              0.9047   XZ=             20.3785   YZ=             14.7163

  Exact polarizability: 267.950  19.365 344.474   9.579  34.027 222.865
 Approx polarizability: 408.384  -9.945 556.173  38.609   3.006 365.505

                      1                      2                      3
                      A                      A                      A
 Frequencies --     19.8841                29.5630                30.7663
 Red. masses --      6.7161                 4.1079                 5.5800
 Frc consts  --      0.0016                 0.0021                 0.0031
 IR Inten    --      2.8777                 0.4404                 2.3382

                      4                      5                      6
                      A                      A                      A
 Frequencies --     39.8604                43.4630                68.6140
 Red. masses --      4.5662                 7.5085                 5.6267
 Frc consts  --      0.0043                 0.0084                 0.0156
 IR Inten    --      0.6984                 0.0537                 0.5027

                      7                      8                      9
                      A                      A                      A
 Frequencies --    104.0975               118.3046               152.9276
 Red. masses --      6.8657                 8.5679                 9.5958
 Frc consts  --      0.0438                 0.0707                 0.1322
 IR Inten    --      0.6559                 7.6250                 0.3967

                     10                     11                     12
                      A                      A                      A
 Frequencies --    153.8913               176.0553               183.3671
 Red. masses --      7.1168                 7.3448                 7.3076
 Frc consts  --      0.0993                 0.1341                 0.1448
 IR Inten    --      2.0178                 0.6618                 1.6055

                     13                     14                     15
                      A                      A                      A
 Frequencies --    191.3892               231.9187               244.4002
 Red. masses --      7.2543                 9.8114                 6.7801
 Frc consts  --      0.1566                 0.3109                 0.2386
 IR Inten    --      8.6780                 1.5637                 0.3539

                     16                     17                     18
                      A                      A                      A
 Frequencies --    271.7925               284.7357               303.4614
 Red. masses --      9.7032                11.1208                 9.0484
 Frc consts  --      0.4223                 0.5312                 0.4909
 IR Inten    --      5.6598                 4.0700                 2.2408

                     19                     20                     21
                      A                      A                      A
 Frequencies --    316.6871               363.2877               401.7402
 Red. masses --      5.8484                 7.3936                 8.4990
 Frc consts  --      0.3456                 0.5749                 0.8082
 IR Inten    --      0.0894                 0.4551                 6.3067

                     22                     23                     24
                      A                      A                      A
 Frequencies --    411.4160               412.2673               422.3545
 Red. masses --      2.8732                 2.9585                 5.3747
 Frc consts  --      0.2865                 0.2963                 0.5649
 IR Inten    --      0.0621                 0.2000                 7.5736

                     25                     26                     27
                      A                      A                      A
 Frequencies --    443.7574               454.8858               464.7445
 Red. masses --      6.6093                 5.7939                 6.1492
 Frc consts  --      0.7668                 0.7064                 0.7825
 IR Inten    --      3.1659                 8.1215                 4.3548

                     28                     29                     30
                      A                      A                      A
 Frequencies --    490.4955               516.6303               556.9338
 Red. masses --      7.6348                 6.2643                 5.2812
 Frc consts  --      1.0822                 0.9851                 0.9651
 IR Inten    --      3.3652                30.5178                42.1749

                     31                     32                     33
                      A                      A                      A
 Frequencies --    578.9158               592.1401               627.5938
 Red. masses --      6.7965                 7.3940                 6.4282
 Frc consts  --      1.3420                 1.5275                 1.4917
 IR Inten    --     20.5610               172.0256                 0.1056

                     34                     35                     36
                      A                      A                      A
 Frequencies --    631.9568               651.3286               670.1395
 Red. masses --      6.3938                 3.7609                 5.8600
 Frc consts  --      1.5045                 0.9400                 1.5505
 IR Inten    --      0.1968                 6.0432                15.8005

                     37                     38                     39
                      A                      A                      A
 Frequencies --    692.3223               698.5527               699.9535
 Red. masses --      4.7263                 1.7211                 1.6857
 Frc consts  --      1.3347                 0.4948                 0.4866
 IR Inten    --      7.6449                 2.3682               112.0903

                     40                     41                     42
                      A                      A                      A
 Frequencies --    714.3429               729.1741               762.3383
 Red. masses --      6.8088                 6.8959                 1.8110
 Frc consts  --      2.0471                 2.1602                 0.6201
 IR Inten    --      8.3053                70.9210                12.2509

                     43                     44                     45
                      A                      A                      A
 Frequencies --    777.8175               784.0637               837.7187
 Red. masses --      8.1332                 2.3727                 2.0699
 Frc consts  --      2.8991                 0.8594                 0.8558
 IR Inten    --     16.8053                12.8406                34.8152

                     46                     47                     48
                      A                      A                      A
 Frequencies --    849.1823               853.3948               868.3940
 Red. masses --      1.2487                 1.2536                 6.8700
 Frc consts  --      0.5305                 0.5379                 3.0524
 IR Inten    --      0.6842                 0.9386                77.5265

                     49                     50                     51
                      A                      A                      A
 Frequencies --    892.6105               935.0665               941.9698
 Red. masses --      7.6609                 1.3875                 1.4997
 Frc consts  --      3.5963                 0.7148                 0.7840
 IR Inten    --     18.9057                 0.7255                 2.3678

                     52                     53                     54
                      A                      A                      A
 Frequencies --    975.5811               985.8441               989.5975
 Red. masses --      1.2903                 1.3804                 1.3676
 Frc consts  --      0.7236                 0.7905                 0.7891
 IR Inten    --      0.5663                 0.3874                 0.2938

                     55                     56                     57
                      A                      A                      A
 Frequencies --    992.6882               994.2307              1002.9459
 Red. masses --      1.3018                 1.3257                 5.2906
 Frc consts  --      0.7558                 0.7721                 3.1355
 IR Inten    --      0.0915                 2.5976                50.7986

                     58                     59                     60
                      A                      A                      A
 Frequencies --   1013.9322              1017.4196              1040.6871
 Red. masses --      5.8259                 6.2941                 3.7388
 Frc consts  --      3.5288                 3.8387                 2.3858
 IR Inten    --      4.7968                 0.6003                31.9247

                     61                     62                     63
                      A                      A                      A
 Frequencies --   1046.3516              1063.1597              1092.2607
 Red. masses --      2.1335                 3.6879                 2.5483
 Frc consts  --      1.3762                 2.4560                 1.7912
 IR Inten    --      3.9894                91.2462                 8.8225

                     64                     65                     66
                      A                      A                      A
 Frequencies --   1096.4331              1098.9791              1111.8152
 Red. masses --      1.5990                 1.6552                 4.5285
 Frc consts  --      1.1326                 1.1778                 3.2982
 IR Inten    --     10.2905                 8.8948               132.9795

                     67                     68                     69
                      A                      A                      A
 Frequencies --   1120.3685              1175.4532              1177.5059
 Red. masses --      2.0104                 1.1146                 1.1160
 Frc consts  --      1.4868                 0.9074                 0.9117
 IR Inten    --     14.2170                 2.2460                 0.0854

                     70                     71                     72
                      A                      A                      A
 Frequencies --   1192.0616              1198.2195              1206.4775
 Red. masses --      1.1689                 1.1547                 2.5094
 Frc consts  --      0.9787                 0.9768                 2.1521
 IR Inten    --     42.3151                 5.8772                20.5176

                     73                     74                     75
                      A                      A                      A
 Frequencies --   1244.5586              1247.7444              1312.9293
 Red. masses --     14.0409                 5.2348                 2.5274
 Frc consts  --     12.8138                 4.8018                 2.5669
 IR Inten    --    111.8563               235.7239                 4.1823

                     76                     77                     78
                      A                      A                      A
 Frequencies --   1330.4224              1335.5943              1347.0388
 Red. masses --      3.1049                 2.4735                 1.7205
 Frc consts  --      3.2380                 2.5996                 1.8394
 IR Inten    --      0.0831                 8.8327                 2.4492

                     79                     80                     81
                      A                      A                      A
 Frequencies --   1347.6130              1404.7840              1457.8075
 Red. masses --      2.1120                 3.3935                 8.5188
 Frc consts  --      2.2598                 3.9456                10.6666
 IR Inten    --      2.2935                44.5208               168.1019

                     82                     83                     84
                      A                      A                      A
 Frequencies --   1472.8752              1476.1336              1506.5502
 Red. masses --      2.1951                 2.2618                 2.0263
 Frc consts  --      2.8057                 2.9038                 2.7097
 IR Inten    --     14.4720                14.3144                10.6817

                     85                     86                     87
                      A                      A                      A
 Frequencies --   1516.5178              1519.1082              1549.6654
 Red. masses --      6.3799                 2.4914                 8.7019
 Frc consts  --      8.6449                 3.3875                12.3123
 IR Inten    --     71.6256                11.5810               290.4809

                     88                     89                     90
                      A                      A                      A
 Frequencies --   1621.3812              1621.5133              1622.8302
 Red. masses --      5.5666                 5.6512                 5.7883
 Frc consts  --      8.6221                 8.7545                 8.9815
 IR Inten    --      5.1399                11.3362                 0.1309

                     91                     92                     93
                      A                      A                      A
 Frequencies --   1633.4163              1638.8578              1728.7507
 Red. masses --      7.2873                 5.5983                12.7420
 Frc consts  --     11.4554                 8.8590                22.4363
 IR Inten    --     15.9161                 9.4108               181.9870

                     94                     95                     96
                      A                      A                      A
 Frequencies --   3146.3632              3146.8457              3150.4393
 Red. masses --      1.0847                 1.0856                 1.0852
 Frc consts  --      6.3267                 6.3339                 6.3460
 IR Inten    --      1.8342                10.2526                 2.3103

                     97                     98                     99
                      A                      A                      A
 Frequencies --   3160.6381              3166.4360              3167.8056
 Red. masses --      1.0893                 1.0899                 1.0957
 Frc consts  --      6.4115                 6.4382                 6.4786
 IR Inten    --     25.2658                25.9110                33.6190

                    100                    101                    102
                      A                      A                      A
 Frequencies --   3172.4347              3176.5088              3190.7732
 Red. masses --      1.0940                 1.0951                 1.0931
 Frc consts  --      6.4869                 6.5106                 6.5572
 IR Inten    --     47.4520                36.7006                 8.1001

                    103                    104                    105
                      A                      A                      A
 Frequencies --   3193.1871              3197.1595              3219.8375
 Red. masses --      1.0930                 1.0938                 1.0928
 Frc consts  --      6.5664                 6.5873                 6.6754
 IR Inten    --     10.0791                 9.6877                 7.0851

 - Thermochemistry -
 -------------------
 Temperature   298.150 Kelvin.  Pressure   1.00000 Atm.
 Atom     1 has atomic number  6 and mass  12.00000

 Molecular mass:   352.04055 amu.
 Principal axes and moments of inertia in atomic units:
                           1         2         3
     Eigenvalues --  5101.00274********************
           X            0.31807   0.90566   0.28039
           Y            0.90855  -0.20668  -0.36306
           Z            0.27086  -0.37023   0.88858
 This molecule is an asymmetric top.
 Rotational symmetry number  1.
 Warning -- assumption of classical behavior for rotation
           may cause significant error
 Rotational temperatures (Kelvin)      0.01698     0.00754     0.00651
 Rotational constants (GHZ):           0.35380     0.15720     0.13555
 Zero-point vibrational energy     689702.2 (Joules/Mol)
                                  164.84278 (Kcal/Mol)
 Warning -- explicit consideration of  32 degrees of freedom as
           vibrations may cause significant error
 Vibrational temperatures:     28.61    42.53    44.27    57.35    62.53
          (Kelvin)             98.72   149.77   170.21   220.03   221.42
                              253.30   263.82   275.37   333.68   351.64
                              391.05   409.67   436.61   455.64   522.69
                              578.01   591.94   593.16   607.67   638.47
                              654.48   668.66   705.71   743.32   801.30
                              832.93   851.96   902.97   909.24   937.12
                              964.18   996.10  1005.06  1007.08  1027.78
                             1049.12  1096.83  1119.11  1128.09  1205.29
                             1221.78  1227.84  1249.43  1284.27  1345.35
                             1355.28  1403.64  1418.41  1423.81  1428.26
                             1430.48  1443.02  1458.82  1463.84  1497.32
                             1505.47  1529.65  1571.52  1577.52  1581.19
                             1599.65  1611.96  1691.22  1694.17  1715.11
                             1723.97  1735.85  1790.64  1795.23  1889.01
                             1914.18  1921.62  1938.09  1938.91  2021.17
                             2097.46  2119.14  2123.83  2167.59  2181.93
                             2185.66  2229.62  2332.81  2333.00  2334.89
                             2350.12  2357.95  2487.29  4526.91  4527.61
                             4532.78  4547.45  4555.80  4557.77  4564.43
                             4570.29  4590.81  4594.28  4600.00  4632.63

 Zero-point correction=                           0.262694 (Hartree/Particle)
 Thermal correction to Energy=                    0.283645
 Thermal correction to Enthalpy=                  0.284590
 Thermal correction to Gibbs Free Energy=         0.209854
 Sum of electronic and zero-point Energies=          -1505.606381
 Sum of electronic and thermal Energies=             -1505.585430
 Sum of electronic and thermal Enthalpies=           -1505.584485
 Sum of electronic and thermal Free Energies=        -1505.659221

                     E (Thermal)             CV                S
                      KCal/Mol        Cal/Mol-Kelvin    Cal/Mol-Kelvin
 Total                  177.990             80.505            157.294
 Electronic               0.000              0.000              1.377
 Translational            0.889              2.981             43.470
 Rotational               0.889              2.981             35.010
 Vibrational            176.213             74.543             77.437
 Vibration     1          0.593              1.986              6.646
 Vibration     2          0.593              1.984              5.859
 Vibration     3          0.594              1.984              5.779
 Vibration     4          0.594              1.981              5.266
 Vibration     5          0.595              1.980              5.095
 Vibration     6          0.598              1.969              4.193
 Vibration     7          0.605              1.946              3.376
 Vibration     8          0.608              1.934              3.128
 Vibration     9          0.619              1.899              2.635
 Vibration    10          0.619              1.898              2.624
 Vibration    11          0.628              1.872              2.370
 Vibration    12          0.631              1.862              2.294
 Vibration    13          0.634              1.852              2.214
 Vibration    14          0.653              1.792              1.864
 Vibration    15          0.660              1.772              1.771
 Vibration    16          0.675              1.725              1.585
 Vibration    17          0.683              1.702              1.505
 Vibration    18          0.695              1.667              1.398
 Vibration    19          0.704              1.642              1.327
 Vibration    20          0.737              1.548              1.108
 Vibration    21          0.767              1.466              0.956
 Vibration    22          0.775              1.445              0.922
 Vibration    23          0.776              1.444              0.919
 Vibration    24          0.785              1.422              0.884
 Vibration    25          0.803              1.375              0.815
 Vibration    26          0.813              1.350              0.781
 Vibration    27          0.822              1.328              0.752
 Vibration    28          0.846              1.271              0.682
 Vibration    29          0.872              1.213              0.618
 Vibration    30          0.912              1.125              0.530
 Vibration    31          0.935              1.077              0.487
 Vibration    32          0.950              1.049              0.463

 Optimization completed.
    -- Stationary point found.
 Normal termination of Gaussian 16 at Wed Jan 10 09:10:28 2024.
