 Q-Chem 5.4, Q-Chem, Inc., Pleasanton, CA (2021)
 Q-Chem 5.4.0 for Intel X86 EM64T Linux

User input:
--------------------------------------------------------------
$molecule
0 1
C                 16.3756520000      2.9520330000      0.9729340000
C                 15.5665540000      1.9567320000      1.7036950000
C                 16.0066260000      1.3431470000      2.8124860000
C                 17.3738180000      1.6760210000      3.3288400000
C                 18.2104360000      2.6784130000      2.5984150000
C                 17.7397690000      3.2879440000      1.4859490000
O                 15.9294870000      3.4848900000     -0.0339150000
O                 17.7936820000      1.1272990000      4.3367000000
C                 18.5326950000      4.3059200000      0.7167010000
C                 19.5728790000      2.9686600000      3.1644960000
H                 14.5898080000      1.7477700000      1.2823350000
H                 18.8080870000      5.1519880000      1.3543140000
H                 17.9561750000      4.6769330000     -0.1289600000
H                 19.4657860000      3.8732110000      0.3411930000
H                 19.7664960000      2.3460200000      4.0359700000
H                 19.6561320000      4.0192170000      3.4619190000
H                 20.3533820000      2.7858160000      2.4194220000
C                 15.2263770000      0.3108180000      3.5931320000
C                 13.7797680000      0.1788360000      3.2068840000
C                 13.1738300000     -0.8524720000      2.6019240000
C                 11.6843790000     -0.8020530000      2.3288920000
C                 11.3112280000     -0.7366460000      0.8264920000
C                  9.8224330000     -0.7405580000      0.6138850000
C                  9.0463020000      0.2136550000      0.0805430000
C                  7.5492490000      0.0022170000     -0.0248630000
C                  6.7114750000      0.9118600000      0.9082640000
C                  5.2331790000      0.7000250000      0.7322070000
C                  4.3357480000      0.2563140000      1.6238760000
C                  2.8786470000      0.1181790000      1.2317670000
C                 13.8739550000     -2.1152550000      2.1645350000
C                  9.5552890000      1.5285360000     -0.4578030000
C                  4.6660620000     -0.1343450000      3.0442660000
C                  1.9316530000      1.1165120000      1.9441860000
C                  0.4929330000      0.9080190000      1.5598390000
C                 -0.3328120000      1.7379490000      0.9065580000
C                 -1.7561540000      1.3125620000      0.6059900000
C                 -2.0375720000      1.0524200000     -0.8956160000
C                 -3.4743390000      0.6892980000     -1.1507340000
C                 -3.9821140000     -0.4636850000     -1.6092630000
C                 -5.4802000000     -0.6212480000     -1.7768860000
C                 -6.1327750000     -1.5985590000     -0.7666360000
C                 -7.6059510000     -1.7726280000     -1.0128600000
C                 -8.6368350000     -1.4329270000     -0.2258920000
C                -10.0588530000     -1.6895050000     -0.6833360000
C                -10.8585320000     -0.4062750000     -1.0231140000
C                -12.2801110000     -0.7077140000     -1.4097030000
C                -12.8904860000     -0.5172160000     -2.5881070000
C                  0.0434420000      3.1215110000      0.4349780000
C                 -3.1564450000     -1.6651130000     -2.0005370000
C                 -8.4988110000     -0.8022350000      1.1384090000
C                -12.2333110000      0.0938130000     -3.8017830000
C                -14.3427050000     -0.9135690000     -2.7645640000
C                -14.5598120000     -2.1326200000     -3.6964210000
C                -16.0170770000     -2.4500700000     -3.8882600000
C                -16.6959120000     -3.5453010000     -3.5179610000
C                -16.0817360000     -4.7376650000     -2.8256360000
C                -18.1810930000     -3.6508990000     -3.8011430000
C                -19.0756910000     -3.5829290000     -2.5378470000
C                -20.5340110000     -3.7514230000     -2.8633340000
C                -21.5342330000     -2.8741030000     -2.7057890000
C                -21.3831980000     -1.4871610000     -2.1329070000
C                -22.9460000000     -3.2309940000     -3.1042280000
H                 15.3030970000      0.5789030000      4.6535930000
H                 15.7602700000     -0.6409390000      3.5159780000
H                 13.1606480000      1.0337800000      3.4749370000
H                 11.2481610000      0.0642180000      2.8341290000
H                 11.2096510000     -1.6909190000      2.7657950000
H                 11.7402140000     -1.6052610000      0.3124080000
H                 11.7786220000      0.1462070000      0.3846710000
H                  9.3246440000     -1.6485380000      0.9553630000
H                  7.3094030000     -1.0408720000      0.2004650000
H                  7.2300160000      0.1797910000     -1.0607980000
H                  6.9417580000      1.9612050000      0.6867780000
H                  7.0234100000      0.7411780000      1.9411220000
H                  4.8632650000      0.9337890000     -0.2664900000
H                  2.5382390000     -0.9021460000      1.4552960000
H                  2.7752070000      0.2521370000      0.1511400000
H                 14.9267520000     -2.1416820000      2.4444600000
H                 13.8200340000     -2.2387530000      1.0779990000
H                 13.3861860000     -2.9928260000      2.6038970000
H                 10.6396930000      1.6208860000     -0.4087560000
H                  9.1269010000      2.3741540000      0.0905780000
H                  9.2555780000      1.6520980000     -1.5050500000
H                  5.7370930000     -0.1443270000      3.2444720000
H                  4.2734690000     -1.1336280000      3.2649610000
H                  4.2024000000      0.5492490000      3.7639010000
H                  2.2651500000      2.1333570000      1.7251280000
H                  2.0259230000      0.9860470000      3.0291460000
H                  0.0879520000     -0.0613080000      1.8520610000
H                 -2.4494290000      2.0875200000      0.9602100000
H                 -1.9932220000      0.4029690000      1.1652820000
H                 -1.3558500000      0.2761110000     -1.2499900000
H                 -1.7997120000      1.9581990000     -1.4664910000
H                 -4.1852330000      1.4813210000     -0.9134410000
H                 -5.6963920000     -0.9768890000     -2.7934720000
H                 -5.9653840000      0.3540640000     -1.6781300000
H                 -5.9318910000     -1.2411930000      0.2457390000
H                 -5.6468040000     -2.5781220000     -0.8516750000
H                 -7.8482040000     -2.2300860000     -1.9725680000
H                -10.5989000000     -2.2380240000      0.1003310000
H                -10.0496210000     -2.3354850000     -1.5659440000
H                -10.3317660000      0.1358710000     -1.8115060000
H                -10.8673250000      0.2526090000     -0.1463280000
H                -12.8761250000     -1.1518530000     -0.6118880000
H                  1.0631020000      3.4000110000      0.6990690000
H                 -0.6321740000      3.8682320000      0.8687700000
H                 -0.0517930000      3.2096380000     -0.6524680000
H                 -2.0847490000     -1.4985670000     -1.8969780000
H                 -3.3549310000     -1.9402670000     -3.0431770000
H                 -3.4149100000     -2.5390020000     -1.3931320000
H                 -7.4615950000     -0.6613890000      1.4406730000
H                 -8.9886060000     -1.4245360000      1.8967650000
H                 -8.9890770000      0.1764220000      1.1744970000
H                -11.2023900000      0.3968960000     -3.6218800000
H                -12.7910890000      0.9781440000     -4.1320230000
H                -12.2296660000     -0.6050050000     -4.6450300000
H                -14.9048990000     -0.0616150000     -3.1705190000
H                -14.7822700000     -1.1407220000     -1.7890920000
H                -14.0106120000     -2.9852260000     -3.2909630000
H                -14.1176950000     -1.9168070000     -4.6766790000
H                -16.5837640000     -1.6649710000     -4.3897240000
H                -15.0082650000     -4.6350020000     -2.6702340000
H                -16.2510570000     -5.6478270000     -3.4131590000
H                -16.5421850000     -4.9085780000     -1.8467680000
H                -18.3852200000     -4.5971150000     -4.3205020000
H                -18.4826250000     -2.8503100000     -4.4826720000
H                -18.8843800000     -2.6391030000     -2.0223180000
H                -18.7780840000     -4.3793620000     -1.8448610000
H                -20.7887610000     -4.7192410000     -3.2957410000
H                -20.3558080000     -1.2377670000     -1.8695760000
H                -21.9989630000     -1.3742990000     -1.2326150000
H                -21.7396680000     -0.7368100000     -2.8483910000
H                -23.0096220000     -4.2415740000     -3.5127000000
H                -23.3297930000     -2.5328810000     -3.8578500000
H                -23.6246710000     -3.1667430000     -2.2451600000
$end

$rem
BASIS  =  6-311++G(d,p)
GUI  =  2
JOB_TYPE  =  SP
METHOD  =  B3LYP
SCF_CONVERGENCE  = 8
SOLVENT_METHOD = sm12
$end

$smx
solvent dimethylformamide
charges CM5
$end

--------------------------------------------------------------

             Standard Nuclear Orientation (Angstroms)
    I     Atom           X                Y                Z
 ----------------------------------------------------------------
    1      C      16.3756520000     2.9520330000     0.9729340000
    2      C      15.5665540000     1.9567320000     1.7036950000
    3      C      16.0066260000     1.3431470000     2.8124860000
    4      C      17.3738180000     1.6760210000     3.3288400000
    5      C      18.2104360000     2.6784130000     2.5984150000
    6      C      17.7397690000     3.2879440000     1.4859490000
    7      O      15.9294870000     3.4848900000    -0.0339150000
    8      O      17.7936820000     1.1272990000     4.3367000000
    9      C      18.5326950000     4.3059200000     0.7167010000
   10      C      19.5728790000     2.9686600000     3.1644960000
   11      H      14.5898080000     1.7477700000     1.2823350000
   12      H      18.8080870000     5.1519880000     1.3543140000
   13      H      17.9561750000     4.6769330000    -0.1289600000
   14      H      19.4657860000     3.8732110000     0.3411930000
   15      H      19.7664960000     2.3460200000     4.0359700000
   16      H      19.6561320000     4.0192170000     3.4619190000
   17      H      20.3533820000     2.7858160000     2.4194220000
   18      C      15.2263770000     0.3108180000     3.5931320000
   19      C      13.7797680000     0.1788360000     3.2068840000
   20      C      13.1738300000    -0.8524720000     2.6019240000
   21      C      11.6843790000    -0.8020530000     2.3288920000
   22      C      11.3112280000    -0.7366460000     0.8264920000
   23      C       9.8224330000    -0.7405580000     0.6138850000
   24      C       9.0463020000     0.2136550000     0.0805430000
   25      C       7.5492490000     0.0022170000    -0.0248630000
   26      C       6.7114750000     0.9118600000     0.9082640000
   27      C       5.2331790000     0.7000250000     0.7322070000
   28      C       4.3357480000     0.2563140000     1.6238760000
   29      C       2.8786470000     0.1181790000     1.2317670000
   30      C      13.8739550000    -2.1152550000     2.1645350000
   31      C       9.5552890000     1.5285360000    -0.4578030000
   32      C       4.6660620000    -0.1343450000     3.0442660000
   33      C       1.9316530000     1.1165120000     1.9441860000
   34      C       0.4929330000     0.9080190000     1.5598390000
   35      C      -0.3328120000     1.7379490000     0.9065580000
   36      C      -1.7561540000     1.3125620000     0.6059900000
   37      C      -2.0375720000     1.0524200000    -0.8956160000
   38      C      -3.4743390000     0.6892980000    -1.1507340000
   39      C      -3.9821140000    -0.4636850000    -1.6092630000
   40      C      -5.4802000000    -0.6212480000    -1.7768860000
   41      C      -6.1327750000    -1.5985590000    -0.7666360000
   42      C      -7.6059510000    -1.7726280000    -1.0128600000
   43      C      -8.6368350000    -1.4329270000    -0.2258920000
   44      C     -10.0588530000    -1.6895050000    -0.6833360000
   45      C     -10.8585320000    -0.4062750000    -1.0231140000
   46      C     -12.2801110000    -0.7077140000    -1.4097030000
   47      C     -12.8904860000    -0.5172160000    -2.5881070000
   48      C       0.0434420000     3.1215110000     0.4349780000
   49      C      -3.1564450000    -1.6651130000    -2.0005370000
   50      C      -8.4988110000    -0.8022350000     1.1384090000
   51      C     -12.2333110000     0.0938130000    -3.8017830000
   52      C     -14.3427050000    -0.9135690000    -2.7645640000
   53      C     -14.5598120000    -2.1326200000    -3.6964210000
   54      C     -16.0170770000    -2.4500700000    -3.8882600000
   55      C     -16.6959120000    -3.5453010000    -3.5179610000
   56      C     -16.0817360000    -4.7376650000    -2.8256360000
   57      C     -18.1810930000    -3.6508990000    -3.8011430000
   58      C     -19.0756910000    -3.5829290000    -2.5378470000
   59      C     -20.5340110000    -3.7514230000    -2.8633340000
   60      C     -21.5342330000    -2.8741030000    -2.7057890000
   61      C     -21.3831980000    -1.4871610000    -2.1329070000
   62      C     -22.9460000000    -3.2309940000    -3.1042280000
   63      H      15.3030970000     0.5789030000     4.6535930000
   64      H      15.7602700000    -0.6409390000     3.5159780000
   65      H      13.1606480000     1.0337800000     3.4749370000
   66      H      11.2481610000     0.0642180000     2.8341290000
   67      H      11.2096510000    -1.6909190000     2.7657950000
   68      H      11.7402140000    -1.6052610000     0.3124080000
   69      H      11.7786220000     0.1462070000     0.3846710000
   70      H       9.3246440000    -1.6485380000     0.9553630000
   71      H       7.3094030000    -1.0408720000     0.2004650000
   72      H       7.2300160000     0.1797910000    -1.0607980000
   73      H       6.9417580000     1.9612050000     0.6867780000
   74      H       7.0234100000     0.7411780000     1.9411220000
   75      H       4.8632650000     0.9337890000    -0.2664900000
   76      H       2.5382390000    -0.9021460000     1.4552960000
   77      H       2.7752070000     0.2521370000     0.1511400000
   78      H      14.9267520000    -2.1416820000     2.4444600000
   79      H      13.8200340000    -2.2387530000     1.0779990000
   80      H      13.3861860000    -2.9928260000     2.6038970000
   81      H      10.6396930000     1.6208860000    -0.4087560000
   82      H       9.1269010000     2.3741540000     0.0905780000
   83      H       9.2555780000     1.6520980000    -1.5050500000
   84      H       5.7370930000    -0.1443270000     3.2444720000
   85      H       4.2734690000    -1.1336280000     3.2649610000
   86      H       4.2024000000     0.5492490000     3.7639010000
   87      H       2.2651500000     2.1333570000     1.7251280000
   88      H       2.0259230000     0.9860470000     3.0291460000
   89      H       0.0879520000    -0.0613080000     1.8520610000
   90      H      -2.4494290000     2.0875200000     0.9602100000
   91      H      -1.9932220000     0.4029690000     1.1652820000
   92      H      -1.3558500000     0.2761110000    -1.2499900000
   93      H      -1.7997120000     1.9581990000    -1.4664910000
   94      H      -4.1852330000     1.4813210000    -0.9134410000
   95      H      -5.6963920000    -0.9768890000    -2.7934720000
   96      H      -5.9653840000     0.3540640000    -1.6781300000
   97      H      -5.9318910000    -1.2411930000     0.2457390000
   98      H      -5.6468040000    -2.5781220000    -0.8516750000
   99      H      -7.8482040000    -2.2300860000    -1.9725680000
  100      H     -10.5989000000    -2.2380240000     0.1003310000
  101      H     -10.0496210000    -2.3354850000    -1.5659440000
  102      H     -10.3317660000     0.1358710000    -1.8115060000
  103      H     -10.8673250000     0.2526090000    -0.1463280000
  104      H     -12.8761250000    -1.1518530000    -0.6118880000
  105      H       1.0631020000     3.4000110000     0.6990690000
  106      H      -0.6321740000     3.8682320000     0.8687700000
  107      H      -0.0517930000     3.2096380000    -0.6524680000
  108      H      -2.0847490000    -1.4985670000    -1.8969780000
  109      H      -3.3549310000    -1.9402670000    -3.0431770000
  110      H      -3.4149100000    -2.5390020000    -1.3931320000
  111      H      -7.4615950000    -0.6613890000     1.4406730000
  112      H      -8.9886060000    -1.4245360000     1.8967650000
  113      H      -8.9890770000     0.1764220000     1.1744970000
  114      H     -11.2023900000     0.3968960000    -3.6218800000
  115      H     -12.7910890000     0.9781440000    -4.1320230000
  116      H     -12.2296660000    -0.6050050000    -4.6450300000
  117      H     -14.9048990000    -0.0616150000    -3.1705190000
  118      H     -14.7822700000    -1.1407220000    -1.7890920000
  119      H     -14.0106120000    -2.9852260000    -3.2909630000
  120      H     -14.1176950000    -1.9168070000    -4.6766790000
  121      H     -16.5837640000    -1.6649710000    -4.3897240000
  122      H     -15.0082650000    -4.6350020000    -2.6702340000
  123      H     -16.2510570000    -5.6478270000    -3.4131590000
  124      H     -16.5421850000    -4.9085780000    -1.8467680000
  125      H     -18.3852200000    -4.5971150000    -4.3205020000
  126      H     -18.4826250000    -2.8503100000    -4.4826720000
  127      H     -18.8843800000    -2.6391030000    -2.0223180000
  128      H     -18.7780840000    -4.3793620000    -1.8448610000
  129      H     -20.7887610000    -4.7192410000    -3.2957410000
  130      H     -20.3558080000    -1.2377670000    -1.8695760000
  131      H     -21.9989630000    -1.3742990000    -1.2326150000
  132      H     -21.7396680000    -0.7368100000    -2.8483910000
  133      H     -23.0096220000    -4.2415740000    -3.5127000000
  134      H     -23.3297930000    -2.5328810000    -3.8578500000
  135      H     -23.6246710000    -3.1667430000    -2.2451600000
 ----------------------------------------------------------------

   13   -2218.7506806260      7.02e-09  Convergence criterion met
 Total energy in the final basis set =    -2218.7902334551

                    Orbital Energies (a.u.)
 --------------------------------------------------------------

 Alpha MOs
 -- Occupied --
-19.1352 -19.1316 -10.2794 -10.2766 -10.2146 -10.2086 -10.2078 -10.1969
-10.1849 -10.1813 -10.1789 -10.1768 -10.1767 -10.1767 -10.1766 -10.1766
-10.1765 -10.1763 -10.1713 -10.1709 -10.1708 -10.1708 -10.1708 -10.1708
-10.1707 -10.1706 -10.1705 -10.1704 -10.1701 -10.1700 -10.1700 -10.1699
-10.1699 -10.1699 -10.1699 -10.1693 -10.1672 -10.1642 -10.1640 -10.1634
-10.1634 -10.1633 -10.1633 -10.1633 -10.1633 -10.1633 -10.1633 -10.1632
-10.1632 -10.1631 -10.1631 -10.1630 -10.1628 -10.1627 -10.1624  -1.0669
 -1.0617  -0.8661  -0.8362  -0.8343  -0.8326  -0.8299  -0.8265  -0.8224
 -0.8177  -0.8128  -0.8083  -0.8057  -0.7807  -0.7744  -0.7665  -0.7580
 -0.7493  -0.7462  -0.7408  -0.7334  -0.7275  -0.7237  -0.6940  -0.6915
 -0.6909  -0.6904  -0.6894  -0.6890  -0.6877  -0.6853  -0.6817  -0.6767
 -0.6712  -0.6540  -0.6455  -0.6353  -0.6244  -0.6139  -0.6046  -0.5967
 -0.5914  -0.5885  -0.5861  -0.5749  -0.5375  -0.5262  -0.5257  -0.5245
 -0.5227  -0.5207  -0.5184  -0.5164  -0.5150  -0.5143  -0.4910  -0.4826
 -0.4826  -0.4819  -0.4812  -0.4804  -0.4802  -0.4767  -0.4718  -0.4669
 -0.4634  -0.4603  -0.4508  -0.4497  -0.4477  -0.4452  -0.4431  -0.4400
 -0.4383  -0.4355  -0.4332  -0.4328  -0.4321  -0.4283  -0.4263  -0.4231
 -0.4206  -0.4196  -0.4186  -0.4176  -0.4154  -0.4144  -0.4135  -0.4117
 -0.4101  -0.4080  -0.4070  -0.4058  -0.4054  -0.4041  -0.4034  -0.3992
 -0.3970  -0.3953  -0.3938  -0.3873  -0.3856  -0.3798  -0.3763  -0.3759
 -0.3757  -0.3751  -0.3749  -0.3743  -0.3737  -0.3730  -0.3724  -0.3721
 -0.3709  -0.3698  -0.3681  -0.3678  -0.3653  -0.3640  -0.3620  -0.3595
 -0.3588  -0.3573  -0.3531  -0.3474  -0.3416  -0.3410  -0.3398  -0.3381
 -0.3377  -0.3332  -0.3324  -0.3315  -0.3312  -0.3294  -0.3241  -0.3188
 -0.3144  -0.3117  -0.2972  -0.2872  -0.2725  -0.2714  -0.2553  -0.2537
 -0.2509  -0.2475  -0.2431  -0.2378  -0.2328  -0.2290  -0.2260

          Ground-State Mulliken Net Atomic Charges

     Atom                 Charge (a.u.)
  ----------------------------------------
      1 C                    -1.870687
      2 C                    -0.819131
      3 C                     0.993529
      4 C                    -1.330572
      5 C                     0.293007
      6 C                     1.085145
      7 O                    -0.302635
      8 O                    -0.245735
      9 C                    -0.006081
     10 C                    -0.046314
     11 H                     0.185889
     12 H                     0.219501
     13 H                     0.167619
     14 H                     0.222425
     15 H                     0.185089
     16 H                     0.215771
     17 H                     0.213320
     18 C                     0.220249
     19 C                    -0.220057
     20 C                     0.437289
     21 C                    -0.629604
     22 C                    -0.020579
     23 C                    -0.223187
     24 C                     0.082961
     25 C                    -0.491516
     26 C                    -0.178105
     27 C                    -0.564914
     28 C                     0.325690
     29 C                    -0.231067
     30 C                    -0.441560
     31 C                    -0.609462
     32 C                    -0.470844
     33 C                    -0.261382
     34 C                    -0.526264
     35 C                     0.241034
     36 C                    -0.246662
     37 C                    -0.174817
     38 C                    -0.519845
     39 C                     0.182894
     40 C                    -0.198925
     41 C                    -0.185396
     42 C                    -0.504017
     43 C                     0.209325
     44 C                    -0.240638
     45 C                    -0.154733
     46 C                    -0.591818
     47 C                     0.220972
     48 C                    -0.485451
     49 C                    -0.494364
     50 C                    -0.492512
     51 C                    -0.484309
     52 C                    -0.191268
     53 C                    -0.084255
     54 C                    -0.374003
     55 C                     0.144825
     56 C                    -0.510348
     57 C                    -0.432726
     58 C                    -0.170059
     59 C                    -0.149264
     60 C                    -0.118990
     61 C                    -0.488552
     62 C                    -0.432935
     63 H                     0.215520
     64 H                     0.234515
     65 H                     0.192152
     66 H                     0.194070
     67 H                     0.124991
     68 H                     0.122476
     69 H                     0.132134
     70 H                     0.206064
     71 H                     0.143587
     72 H                     0.131099
     73 H                     0.125276
     74 H                     0.096938
     75 H                     0.195389
     76 H                     0.150374
     77 H                     0.149573
     78 H                     0.131561
     79 H                     0.191422
     80 H                     0.181790
     81 H                     0.125609
     82 H                     0.183979
     83 H                     0.170217
     84 H                     0.155183
     85 H                     0.174265
     86 H                     0.190241
     87 H                     0.096138
     88 H                     0.128928
     89 H                     0.175813
     90 H                     0.134373
     91 H                     0.163708
     92 H                     0.089849
     93 H                     0.122989
     94 H                     0.182465
     95 H                     0.135328
     96 H                     0.162843
     97 H                     0.088910
     98 H                     0.123580
     99 H                     0.183213
    100 H                     0.136674
    101 H                     0.157489
    102 H                     0.083576
    103 H                     0.124169
    104 H                     0.178017
    105 H                     0.153198
    106 H                     0.175463
    107 H                     0.183272
    108 H                     0.157304
    109 H                     0.175904
    110 H                     0.184127
    111 H                     0.157666
    112 H                     0.175507
    113 H                     0.184225
    114 H                     0.159878
    115 H                     0.175686
    116 H                     0.184380
    117 H                     0.130532
    118 H                     0.165969
    119 H                     0.093597
    120 H                     0.119695
    121 H                     0.201588
    122 H                     0.157770
    123 H                     0.177304
    124 H                     0.187079
    125 H                     0.136452
    126 H                     0.149740
    127 H                     0.086396
    128 H                     0.122069
    129 H                     0.177072
    130 H                     0.168408
    131 H                     0.163873
    132 H                     0.164745
    133 H                     0.177054
    134 H                     0.171196
    135 H                     0.165418
  ----------------------------------------
  Sum of atomic charges =     0.000000

                    Cartesian Multipole Moments
 -----------------------------------------------------------------
    Charge (ESU x 10^10)
                 0.0000
    Dipole Moment (Debye)
         X       0.6341      Y      -0.1188      Z       0.5627
       Tot       0.8560
    Quadrupole Moments (Debye-Ang)
        XX    -310.4564     XY       1.6412     YY    -342.9336
        XZ       1.0681     YZ       4.0358     ZZ    -358.7847

 Total job time:  26911.71s(wall), 73821.39s(cpu)
        *  Thank you very much for using Q-Chem.  Have a nice day.  *
