 Gaussian 16, Revision A.03,
 Gaussian 16:  ES64L-G16RevA.03 25-Dec-2016

 --------------------------------------
 #P UB3LYP/6-311++G(d,p) nosym opt freq
 --------------------------------------

 --------
 Oxidized
 --------
 Symbolic Z-matrix:
 Charge =  0 Multiplicity = 1

 SCF Done:  E(UB3LYP) =  -973.752450218     A.U. after   18 cycles
 SCF Done:  E(UB3LYP) =  -973.789854692     A.U. after   15 cycles
 SCF Done:  E(UB3LYP) =  -973.800981769     A.U. after   13 cycles
 SCF Done:  E(UB3LYP) =  -973.801469110     A.U. after   12 cycles
 SCF Done:  E(UB3LYP) =  -973.801519926     A.U. after   11 cycles
 Optimization completed.
    -- Stationary point found.
 Normal termination of Gaussian 16 at Sat Jan  6 01:47:29 2024.

 ----------------------------------------------------------------------
 #P Geom=AllCheck Guess=TCheck SCRF=Check GenChk UB3LYP/6-311++G(d,p) F
 req
 ----------------------------------------------------------------------

 Structure from the checkpoint file:  "337.chk"
 --------
 Oxidized
 --------
 Charge =  0 Multiplicity = 1

                          Input orientation:
 ---------------------------------------------------------------------
 Center     Atomic      Atomic             Coordinates (Angstroms)
 Number     Number       Type             X           Y           Z
 ---------------------------------------------------------------------
      1          8           0       -0.139440   -2.464789    0.314894
      2          6           0       -0.071033   -1.250962    0.159898
      3          6           0       -1.306032   -0.423048    0.179960
      4          6           0       -2.529363   -1.090104    0.381460
      5          6           0       -3.728319   -0.403566    0.415109
      6          6           0       -3.732956    0.987362    0.245531
      7          6           0       -2.545534    1.669675    0.045719
      8          6           0       -1.326103    0.972274    0.011393
      9         16           0        0.110767    1.956760   -0.249842
     10          6           0        1.425700    0.784958   -0.235647
     11          6           0        2.714381    1.311506   -0.426346
     12          6           0        3.815685    0.473293   -0.432152
     13          6           0        3.654260   -0.906374   -0.247979
     14          6           0        2.387087   -1.424896   -0.060313
     15          6           0        1.248457   -0.596921   -0.049562
     16          1           0       -2.490738   -2.164819    0.509021
     17          1           0       -4.658498   -0.936778    0.571486
     18          1           0       -4.666981    1.537299    0.269866
     19          1           0       -2.551257    2.746212   -0.085327
     20          1           0        2.841758    2.378937   -0.569134
     21          1           0        4.804609    0.892183   -0.580325
     22          1           0        4.516777   -1.562167   -0.252633
     23          1           0        2.226774   -2.486036    0.084924
 ---------------------------------------------------------------------

 SCF Done:  E(UB3LYP) =  -973.801519926     A.U. after    1 cycles

 Alpha  occ. eigenvalues --  -88.88852 -19.10567 -10.26665 -10.23809 -10.23805
 Alpha  occ. eigenvalues --  -10.20296 -10.20294 -10.19974 -10.19972 -10.19907
 Alpha  occ. eigenvalues --  -10.19904 -10.19170 -10.19165 -10.19022 -10.19020
 Alpha  occ. eigenvalues --   -7.97505  -5.93868  -5.93457  -5.92968  -1.04266
 Alpha  occ. eigenvalues --   -0.90272  -0.88153  -0.82758  -0.78820  -0.77627
 Alpha  occ. eigenvalues --   -0.77036  -0.72526  -0.66766  -0.64119  -0.61863
 Alpha  occ. eigenvalues --   -0.60813  -0.56426  -0.55336  -0.50645  -0.48702
 Alpha  occ. eigenvalues --   -0.48695  -0.48071  -0.45236  -0.44870  -0.43765
 Alpha  occ. eigenvalues --   -0.43562  -0.43260  -0.40690  -0.39328  -0.38573
 Alpha  occ. eigenvalues --   -0.38186  -0.37441  -0.36331  -0.34684  -0.33353
 Alpha  occ. eigenvalues --   -0.28332  -0.27613  -0.27447  -0.26413  -0.22966
 Alpha virt. eigenvalues --   -0.08339  -0.04421  -0.02861  -0.02752  -0.01060
 Alpha virt. eigenvalues --   -0.00986   0.00697   0.00773   0.01636   0.01831
 Alpha virt. eigenvalues --    0.03286   0.03715   0.03908   0.04268   0.04532

  Beta  occ. eigenvalues --  -88.88852 -19.10567 -10.26665 -10.23809 -10.23805
  Beta  occ. eigenvalues --  -10.20296 -10.20294 -10.19974 -10.19972 -10.19907
  Beta  occ. eigenvalues --  -10.19904 -10.19170 -10.19165 -10.19022 -10.19020
  Beta  occ. eigenvalues --   -7.97505  -5.93868  -5.93457  -5.92968  -1.04266
  Beta  occ. eigenvalues --   -0.90272  -0.88153  -0.82758  -0.78820  -0.77627
  Beta  occ. eigenvalues --   -0.77036  -0.72526  -0.66766  -0.64119  -0.61863
  Beta  occ. eigenvalues --   -0.60813  -0.56426  -0.55336  -0.50645  -0.48702
  Beta  occ. eigenvalues --   -0.48695  -0.48071  -0.45236  -0.44870  -0.43765
  Beta  occ. eigenvalues --   -0.43562  -0.43260  -0.40690  -0.39328  -0.38573
  Beta  occ. eigenvalues --   -0.38186  -0.37441  -0.36331  -0.34684  -0.33353
  Beta  occ. eigenvalues --   -0.28332  -0.27613  -0.27447  -0.26413  -0.22966
  Beta virt. eigenvalues --   -0.08339  -0.04421  -0.02861  -0.02752  -0.01060
  Beta virt. eigenvalues --   -0.00986   0.00697   0.00773   0.01636   0.01831
  Beta virt. eigenvalues --    0.03286   0.03715   0.03908   0.04268   0.04532

 Mulliken charges and spin densities:
               1          2
     1  O   -0.237720   0.000000
     2  C   -0.179750  -0.000000
     3  C    1.855157   0.000000
     4  C    0.290446  -0.000000
     5  C   -0.389375   0.000000
     6  C   -0.140486  -0.000000
     7  C   -0.553558  -0.000000
     8  C   -1.099540  -0.000000
     9  S   -0.933941   0.000000
    10  C   -1.099499  -0.000000
    11  C   -0.553575   0.000000
    12  C   -0.140815  -0.000000
    13  C   -0.389313  -0.000000
    14  C    0.290975   0.000000
    15  C    1.855411   0.000000
    16  H    0.197078  -0.000000
    17  H    0.173026   0.000000
    18  H    0.168734  -0.000000
    19  H    0.173969  -0.000000
    20  H    0.173956   0.000000
    21  H    0.168725   0.000000
    22  H    0.173033  -0.000000
    23  H    0.197061   0.000000
 Sum of Mulliken charges =  -0.00000   0.00000

 Dipole moment (field-independent basis, Debye):
    X=              0.1512    Y=              2.7130    Z=             -0.3465  Tot=              2.7392
 Quadrupole moment (field-independent basis, Debye-Ang):
   XX=            -72.8174   YY=            -95.4809   ZZ=            -98.5048
   XY=             -1.5872   XZ=             -2.3515   YZ=             -0.2448

  Exact polarizability: 259.231  -6.438 181.242 -16.292 -11.102  88.118
 Approx polarizability: 382.830  -4.396 355.179 -23.473 -26.086 143.583

                      1                      2                      3
                      A                      A                      A
 Frequencies --     36.0150               103.6166               131.3674
 Red. masses --      7.7912                 3.8846                 5.6473
 Frc consts  --      0.0060                 0.0246                 0.0574
 IR Inten    --      3.1592                 0.0000                 0.6508

                      4                      5                      6
                      A                      A                      A
 Frequencies --    195.7072               225.3894               229.6635
 Red. masses --      6.6193                 5.0971                 5.0581
 Frc consts  --      0.1494                 0.1526                 0.1572
 IR Inten    --      0.2121                 2.4383                 0.0001

                      7                      8                      9
                      A                      A                      A
 Frequencies --    329.4857               336.5826               411.5571
 Red. masses --      6.3894                 7.7953                 3.6018
 Frc consts  --      0.4087                 0.5203                 0.3594
 IR Inten    --     10.3172                 6.0892                 0.5589

                     10                     11                     12
                      A                      A                      A
 Frequencies --    414.8725               449.7883               450.6794
 Red. masses --      9.7838                13.7798                 3.1964
 Frc consts  --      0.9922                 1.6425                 0.3825
 IR Inten    --      0.0818                 0.0000                 0.0000

                     13                     14                     15
                      A                      A                      A
 Frequencies --    481.0954               489.5405               501.2037
 Red. masses --     11.8876                 4.1275                 3.9871
 Frc consts  --      1.6211                 0.5828                 0.5901
 IR Inten    --      4.8998                 7.0210                 0.0000

                     16                     17                     18
                      A                      A                      A
 Frequencies --    593.6371               642.8471               676.8201
 Red. masses --      7.1420                 6.9197                 4.3087
 Frc consts  --      1.4829                 1.6848                 1.1629
 IR Inten    --      0.6028                12.4998                11.1983

                     19                     20                     21
                      A                      A                      A
 Frequencies --    679.2942               718.8106               740.2505
 Red. masses --      6.4049                 4.4290                 7.3725
 Frc consts  --      1.7413                 1.3483                 2.3802
 IR Inten    --      0.3344                 0.0002                 1.9285

                     22                     23                     24
                      A                      A                      A
 Frequencies --    745.5810               772.1872               784.1117
 Red. masses --      1.5413                 1.2471                 6.7031
 Frc consts  --      0.5048                 0.4381                 2.4282
 IR Inten    --    119.1452                 0.0000                 1.0118

                     25                     26                     27
                      A                      A                      A
 Frequencies --    818.8824               877.6864               880.6385
 Red. masses --      2.6854                 1.3339                 1.4506
 Frc consts  --      1.0610                 0.6054                 0.6628
 IR Inten    --     12.5348                 0.0000                 0.6024

                     28                     29                     30
                      A                      A                      A
 Frequencies --    941.1866               983.5412               985.2644
 Red. masses --      6.9843                 1.3452                 1.3637
 Frc consts  --      3.6452                 0.7667                 0.7799
 IR Inten    --     27.0803                 0.0000                 1.6583

                     31                     32                     33
                      A                      A                      A
 Frequencies --   1012.3090              1012.7862              1052.6330
 Red. masses --      1.3184                 1.3273                 2.9280
 Frc consts  --      0.7960                 0.8021                 1.9115
 IR Inten    --      0.0078                 0.6704                 7.0953

                     34                     35                     36
                      A                      A                      A
 Frequencies --   1055.4957              1087.8179              1094.6044
 Red. masses --      3.0024                 2.8707                 4.2309
 Frc consts  --      1.9708                 2.0015                 2.9867
 IR Inten    --     20.5555                14.8138                15.3531

                     37                     38                     39
                      A                      A                      A
 Frequencies --   1130.8365              1140.4212              1182.8425
 Red. masses --      1.9201                 2.0883                 1.7223
 Frc consts  --      1.4467                 1.6002                 1.4198
 IR Inten    --      2.4212                14.2861                22.9132

                     40                     41                     42
                      A                      A                      A
 Frequencies --   1188.2026              1190.3803              1246.6209
 Red. masses --      1.1215                 1.2603                 1.6227
 Frc consts  --      0.9329                 1.0522                 1.4858
 IR Inten    --      2.3958                 0.6501                 0.9184

                     43                     44                     45
                      A                      A                      A
 Frequencies --   1285.3835              1322.4173              1339.8833
 Red. masses --      1.5963                 2.7852                 9.1037
 Frc consts  --      1.5540                 2.8698                 9.6294
 IR Inten    --      1.8511               147.8167                29.6721

                     46                     47                     48
                      A                      A                      A
 Frequencies --   1345.0036              1463.2578              1466.0435
 Red. masses --      8.5302                 2.1189                 2.2358
 Frc consts  --      9.0919                 2.6730                 2.8312
 IR Inten    --     13.4035                 3.3749                80.0094

                     49                     50                     51
                      A                      A                      A
 Frequencies --   1489.3680              1497.4647              1587.3949
 Red. masses --      2.3122                 2.2806                 5.8649
 Frc consts  --      3.0219                 3.0131                 8.7073
 IR Inten    --     21.3480                14.9939                 3.6010

                     52                     53                     54
                      A                      A                      A
 Frequencies --   1602.5246              1631.4167              1631.7463
 Red. masses --      6.5807                 5.6909                 5.4041
 Frc consts  --      9.9571                 8.9240                 8.4777
 IR Inten    --      1.1543                50.0408                87.9662

                     55                     56                     57
                      A                      A                      A
 Frequencies --   1691.4351              3165.2458              3165.5381
 Red. masses --     11.5147                 1.0867                 1.0866
 Frc consts  --     19.4095                 6.4148                 6.4155
 IR Inten    --    275.2803                 0.7490                 0.8989

                     58                     59                     60
                      A                      A                      A
 Frequencies --   3177.2930              3177.4200              3188.8472
 Red. masses --      1.0904                 1.0904                 1.0942
 Frc consts  --      6.4858                 6.4862                 6.5555
 IR Inten    --     11.5993                 3.8119                20.3320

                     61                     62                     63
                      A                      A                      A
 Frequencies --   3188.9655              3201.9730              3202.3505
 Red. masses --      1.0942                 1.0943                 1.0945
 Frc consts  --      6.5562                 6.6106                 6.6131
 IR Inten    --      0.6390                17.5414                 0.6557

 - Thermochemistry -
 -------------------
 Temperature   298.150 Kelvin.  Pressure   1.00000 Atm.
 Atom     1 has atomic number  8 and mass  15.99491

 Molecular mass:   212.02959 amu.
 Principal axes and moments of inertia in atomic units:
                           1         2         3
     Eigenvalues --  1474.036764260.225555734.26229
           X            0.99371   0.05610   0.09693
           Y           -0.06768   0.99038   0.12068
           Z           -0.08923  -0.12648   0.98795
 This molecule is an asymmetric top.
 Rotational symmetry number  1.
 Warning -- assumption of classical behavior for rotation
           may cause significant error
 Rotational temperatures (Kelvin)      0.05876     0.02033     0.01510
 Rotational constants (GHZ):           1.22435     0.42363     0.31473
 Zero-point vibrational energy     447661.9 (Joules/Mol)
                                  106.99376 (Kcal/Mol)
 Warning -- explicit consideration of  16 degrees of freedom as
           vibrations may cause significant error
 Vibrational temperatures:     51.82   149.08   189.01   281.58   324.29
          (Kelvin)            330.43   474.06   484.27   592.14   596.91
                              647.14   648.43   692.19   704.34   721.12
                              854.11   924.91   973.79   977.35  1034.21
                             1065.06  1072.72  1111.01  1128.16  1178.19
                             1262.79  1267.04  1354.16  1415.10  1417.58
                             1456.49  1457.17  1514.50  1518.62  1565.13
                             1574.89  1627.02  1640.81  1701.85  1709.56
                             1712.69  1793.61  1849.38  1902.66  1927.79
                             1935.16  2105.30  2109.31  2142.87  2154.52
                             2283.91  2305.68  2347.24  2347.72  2433.60
                             4554.08  4554.50  4571.42  4571.60  4588.04
                             4588.21  4606.93  4607.47

 Zero-point correction=                           0.170505 (Hartree/Particle)
 Thermal correction to Energy=                    0.181483
 Thermal correction to Enthalpy=                  0.182427
 Thermal correction to Gibbs Free Energy=         0.132960
 Sum of electronic and zero-point Energies=           -973.631015
 Sum of electronic and thermal Energies=              -973.620037
 Sum of electronic and thermal Enthalpies=            -973.619092
 Sum of electronic and thermal Free Energies=         -973.668559

                     E (Thermal)             CV                S
                      KCal/Mol        Cal/Mol-Kelvin    Cal/Mol-Kelvin
 Total                  113.882             44.580            104.112
 Electronic               0.000              0.000              0.000
 Translational            0.889              2.981             41.958
 Rotational               0.889              2.981             31.954
 Vibrational            112.105             38.619             30.199
 Vibration     1          0.594              1.982              5.467
 Vibration     2          0.605              1.946              3.385
 Vibration     3          0.612              1.922              2.926
 Vibration     4          0.636              1.846              2.173
 Vibration     5          0.650              1.802              1.915
 Vibration     6          0.652              1.796              1.882
 Vibration     7          0.712              1.617              1.263
 Vibration     8          0.717              1.602              1.228
 Vibration     9          0.776              1.445              0.921
 Vibration    10          0.778              1.438              0.910
 Vibration    11          0.809              1.361              0.796
 Vibration    12          0.809              1.359              0.794
 Vibration    13          0.837              1.292              0.707
 Vibration    14          0.845              1.273              0.685
 Vibration    15          0.857              1.247              0.655
 Vibration    16          0.951              1.045              0.461

                           ! Non-Optimized Parameters !
 Normal termination of Gaussian 16 at Sat Jan  6 02:06:30 2024.
