 Q-Chem 5.4, Q-Chem, Inc., Pleasanton, CA (2021)
 Q-Chem 5.4.0 for Intel X86 EM64T Linux

User input:
--------------------------------------------------------------
$molecule
-1 2
N                 -2.9306670000     -2.5453800000     -0.2116300000
C                 -2.5981760000     -1.2251160000      0.0840530000
C                 -3.6009300000     -0.3475750000      0.5006010000
C                 -3.3439430000      1.0021240000      0.7107600000
C                 -2.0710400000      1.5443990000      0.5185160000
N                 -1.8940110000      2.9187470000      0.6511860000
C                 -0.9978130000      0.6728470000      0.1552350000
C                  0.3586200000      1.2062600000      0.0584180000
O                  0.6319040000      2.4355780000      0.1720360000
C                  1.4361510000      0.2610520000     -0.1884410000
C                  1.1690750000     -1.1062480000     -0.4813870000
C                  2.2239180000     -1.9679400000     -0.8440390000
C                  3.5242170000     -1.5146070000     -0.9255090000
C                  3.8160240000     -0.1737210000     -0.6088880000
C                  2.7922950000      0.6644000000     -0.2268060000
N                  3.2378600000      2.0022260000      0.2372570000
O                  3.1791500000      2.2322620000      1.4364660000
O                  3.7560300000      2.7434130000     -0.5929530000
C                 -0.1866090000     -1.6472780000     -0.4151810000
O                 -0.3684520000     -2.8814190000     -0.6413410000
C                 -1.2659130000     -0.7297610000     -0.0692780000
H                 -3.7007960000     -2.9230280000      0.3194750000
H                 -2.1120570000     -3.1425050000     -0.3303670000
H                 -4.6108400000     -0.7285930000      0.6271140000
H                 -4.1551270000      1.6645930000      1.0008060000
H                 -2.5024270000      3.3688710000      1.3180930000
H                 -0.9129900000      3.1980340000      0.6568850000
H                  1.9670530000     -2.9972380000     -1.0620630000
H                  4.3267230000     -2.1839530000     -1.2160140000
H                  4.8327700000      0.1995570000     -0.6330040000
$end

$rem
BASIS  =  6-311++G(d,p)
GUI  =  2
JOB_TYPE  =  SP
METHOD  =  B3LYP
SCF_CONVERGENCE  = 8
SOLVENT_METHOD = sm12
$end

$smx
solvent dimethylformamide
charges CM5
$end

--------------------------------------------------------------

             Standard Nuclear Orientation (Angstroms)
    I     Atom           X                Y                Z
 ----------------------------------------------------------------
    1      N      -2.9306670000    -2.5453800000    -0.2116300000
    2      C      -2.5981760000    -1.2251160000     0.0840530000
    3      C      -3.6009300000    -0.3475750000     0.5006010000
    4      C      -3.3439430000     1.0021240000     0.7107600000
    5      C      -2.0710400000     1.5443990000     0.5185160000
    6      N      -1.8940110000     2.9187470000     0.6511860000
    7      C      -0.9978130000     0.6728470000     0.1552350000
    8      C       0.3586200000     1.2062600000     0.0584180000
    9      O       0.6319040000     2.4355780000     0.1720360000
   10      C       1.4361510000     0.2610520000    -0.1884410000
   11      C       1.1690750000    -1.1062480000    -0.4813870000
   12      C       2.2239180000    -1.9679400000    -0.8440390000
   13      C       3.5242170000    -1.5146070000    -0.9255090000
   14      C       3.8160240000    -0.1737210000    -0.6088880000
   15      C       2.7922950000     0.6644000000    -0.2268060000
   16      N       3.2378600000     2.0022260000     0.2372570000
   17      O       3.1791500000     2.2322620000     1.4364660000
   18      O       3.7560300000     2.7434130000    -0.5929530000
   19      C      -0.1866090000    -1.6472780000    -0.4151810000
   20      O      -0.3684520000    -2.8814190000    -0.6413410000
   21      C      -1.2659130000    -0.7297610000    -0.0692780000
   22      H      -3.7007960000    -2.9230280000     0.3194750000
   23      H      -2.1120570000    -3.1425050000    -0.3303670000
   24      H      -4.6108400000    -0.7285930000     0.6271140000
   25      H      -4.1551270000     1.6645930000     1.0008060000
   26      H      -2.5024270000     3.3688710000     1.3180930000
   27      H      -0.9129900000     3.1980340000     0.6568850000
   28      H       1.9670530000    -2.9972380000    -1.0620630000
   29      H       4.3267230000    -2.1839530000    -1.2160140000
   30      H       4.8327700000     0.1995570000    -0.6330040000
 ----------------------------------------------------------------

   20   -1004.3323140747      8.76e-09  Convergence criterion met
 Total energy in the final basis set =    -1004.4184376127

                    Orbital Energies (a.u.)
 --------------------------------------------------------------

 Alpha MOs
 -- Occupied --
-19.1608 -19.1607 -19.0823 -19.0814 -14.5515 -14.3080 -14.3078 -10.2378
-10.2357 -10.2353 -10.2174 -10.2172 -10.1984 -10.1955 -10.1891 -10.1873
-10.1854 -10.1834 -10.1824 -10.1768 -10.1760  -1.2351  -1.0616  -1.0130
 -1.0096  -0.9197  -0.9091  -0.8873  -0.8336  -0.8068  -0.7938  -0.7551
 -0.7257  -0.7029  -0.6746  -0.6468  -0.6408  -0.5881  -0.5747  -0.5680
 -0.5441  -0.5343  -0.5280  -0.5207  -0.5116  -0.4948  -0.4834  -0.4769
 -0.4725  -0.4563  -0.4508  -0.4361  -0.4268  -0.4149  -0.4022  -0.3999
 -0.3915  -0.3900  -0.3878  -0.3694  -0.3631  -0.3593  -0.3437  -0.3198
 -0.3130  -0.3116  -0.2833  -0.2694  -0.2665  -0.2614  -0.2521  -0.2458
 -0.2001  -0.1428

 Beta MOs
 -- Occupied --
-19.1606 -19.1605 -19.0776 -19.0764 -14.5513 -14.3073 -14.3071 -10.2376
-10.2342 -10.2340 -10.2170 -10.2167 -10.1982 -10.1943 -10.1882 -10.1862
-10.1857 -10.1836 -10.1825 -10.1758 -10.1750  -1.2347  -1.0612  -1.0046
 -1.0014  -0.9179  -0.9074  -0.8854  -0.8316  -0.8048  -0.7905  -0.7535
 -0.7224  -0.7011  -0.6695  -0.6446  -0.6385  -0.5871  -0.5732  -0.5661
 -0.5430  -0.5333  -0.5269  -0.5203  -0.5103  -0.4935  -0.4814  -0.4757
 -0.4714  -0.4550  -0.4494  -0.4275  -0.4253  -0.4099  -0.4006  -0.3969
 -0.3880  -0.3872  -0.3747  -0.3671  -0.3616  -0.3486  -0.3356  -0.3184
 -0.3121  -0.3091  -0.2716  -0.2615  -0.2588  -0.2538  -0.2477  -0.2414
 -0.1889

          Ground-State Mulliken Net Atomic Charges

     Atom                 Charge (a.u.)    Spin (a.u.)
  --------------------------------------------------------
      1 N                    -0.265105       0.029415
      2 C                    -0.642963       0.039157
      3 C                     1.144970       0.086663
      4 C                     1.304939       0.078846
      5 C                    -0.857545       0.046394
      6 N                    -0.305642       0.032220
      7 C                    -0.488738      -0.016611
      8 C                    -1.686677       0.069266
      9 O                    -0.312643       0.185774
     10 C                    -0.118341       0.070899
     11 C                    -0.559648       0.069357
     12 C                    -0.009696      -0.005131
     13 C                     1.344321       0.073935
     14 C                     0.941158       0.010213
     15 C                    -0.480275       0.026818
     16 N                    -0.216696       0.005748
     17 O                     0.000362       0.004328
     18 O                     0.048928       0.008599
     19 C                    -1.851594       0.053349
     20 O                    -0.283803       0.174045
     21 C                    -0.558766      -0.017374
     22 H                     0.368776      -0.001428
     23 H                     0.285218      -0.002844
     24 H                     0.324226      -0.006347
     25 H                     0.314718      -0.005745
     26 H                     0.364812      -0.001703
     27 H                     0.266468      -0.002809
     28 H                     0.205074       0.000955
     29 H                     0.428623      -0.004600
     30 H                     0.295540      -0.001386
  --------------------------------------------------------
  Sum of atomic charges =    -1.000000

                    Cartesian Multipole Moments
 -----------------------------------------------------------------
    Charge (ESU x 10^10)
                -4.8032
    Dipole Moment (Debye)
         X      -3.7642      Y      -3.8556      Z       1.4627
       Tot       5.5834
    Quadrupole Moments (Debye-Ang)
        XX    -134.1402     XY     -20.6632     YY    -154.6177
        XZ     -10.6152     YZ      -2.3050     ZZ    -131.1852

 Total job time:  1164.57s(wall), 8806.61s(cpu)
        *  Thank you very much for using Q-Chem.  Have a nice day.  *
