 Q-Chem 5.4, Q-Chem, Inc., Pleasanton, CA (2021)
 Q-Chem 5.4.0 for Intel X86 EM64T Linux

User input:
--------------------------------------------------------------
$molecule
0 1
C                 -4.6763190000      0.2947090000     -0.0934400000
C                 -3.2249610000     -0.1047060000     -0.0262690000
C                 -2.8499550000     -1.4403520000     -0.0136090000
C                 -1.4997170000     -1.8189680000      0.0474150000
O                 -1.2255940000     -3.1294900000      0.0555130000
C                 -0.4924040000     -0.8247300000      0.0974190000
C                  0.9139680000     -1.1984730000      0.1605900000
O                  1.2493280000     -2.4134030000      0.1718760000
C                  1.9362830000     -0.1540120000      0.2105110000
C                  3.3094410000     -0.5002340000      0.2709590000
O                  3.7397070000     -1.7682590000      0.2859630000
C                  4.2784060000      0.5149540000      0.3178430000
C                  3.8971120000      1.8450220000      0.3053800000
C                  2.5459710000      2.2037860000      0.2461410000
C                  1.5735000000      1.2154400000      0.1990470000
C                  0.1377240000      1.6226540000      0.1359520000
O                 -0.1853140000      2.7990900000      0.1268100000
C                 -0.8865960000      0.5365930000      0.0843280000
C                 -2.2243660000      0.8843770000      0.0238710000
H                 -4.8717040000      0.8952980000     -0.9868790000
H                 -5.3326450000     -0.5762560000     -0.1178910000
H                 -4.9506850000      0.9060600000      0.7713480000
H                 -3.5911830000     -2.2302990000     -0.0505960000
H                 -0.2460650000     -3.2257490000      0.1003980000
H                  2.9454020000     -2.3500540000      0.2483380000
H                  5.3203430000      0.2225260000      0.3635250000
H                  4.6569060000      2.6175360000      0.3420510000
H                  2.2366330000      3.2406210000      0.2359010000
H                 -2.4832160000      1.9363170000      0.0159980000
$end

$rem
BASIS  =  6-311++G(d,p)
GUI  =  2
JOB_TYPE  =  SP
METHOD  =  B3LYP
SCF_CONVERGENCE  = 8
SOLVENT_METHOD = sm12
$end

$smx
solvent dimethylformamide
charges CM5
$end

--------------------------------------------------------------

             Standard Nuclear Orientation (Angstroms)
    I     Atom           X                Y                Z
 ----------------------------------------------------------------
    1      C      -4.6763190000     0.2947090000    -0.0934400000
    2      C      -3.2249610000    -0.1047060000    -0.0262690000
    3      C      -2.8499550000    -1.4403520000    -0.0136090000
    4      C      -1.4997170000    -1.8189680000     0.0474150000
    5      O      -1.2255940000    -3.1294900000     0.0555130000
    6      C      -0.4924040000    -0.8247300000     0.0974190000
    7      C       0.9139680000    -1.1984730000     0.1605900000
    8      O       1.2493280000    -2.4134030000     0.1718760000
    9      C       1.9362830000    -0.1540120000     0.2105110000
   10      C       3.3094410000    -0.5002340000     0.2709590000
   11      O       3.7397070000    -1.7682590000     0.2859630000
   12      C       4.2784060000     0.5149540000     0.3178430000
   13      C       3.8971120000     1.8450220000     0.3053800000
   14      C       2.5459710000     2.2037860000     0.2461410000
   15      C       1.5735000000     1.2154400000     0.1990470000
   16      C       0.1377240000     1.6226540000     0.1359520000
   17      O      -0.1853140000     2.7990900000     0.1268100000
   18      C      -0.8865960000     0.5365930000     0.0843280000
   19      C      -2.2243660000     0.8843770000     0.0238710000
   20      H      -4.8717040000     0.8952980000    -0.9868790000
   21      H      -5.3326450000    -0.5762560000    -0.1178910000
   22      H      -4.9506850000     0.9060600000     0.7713480000
   23      H      -3.5911830000    -2.2302990000    -0.0505960000
   24      H      -0.2460650000    -3.2257490000     0.1003980000
   25      H       2.9454020000    -2.3500540000     0.2483380000
   26      H       5.3203430000     0.2225260000     0.3635250000
   27      H       4.6569060000     2.6175360000     0.3420510000
   28      H       2.2366330000     3.2406210000     0.2359010000
   29      H      -2.4832160000     1.9363170000     0.0159980000
 ----------------------------------------------------------------

   14    -878.7996799903      9.92e-09  Convergence criterion met
 Total energy in the final basis set =     -878.8244971489

                    Orbital Energies (a.u.)
 --------------------------------------------------------------

 Alpha MOs
 -- Occupied --
-19.1656 -19.1652 -19.1495 -19.1289 -10.2966 -10.2827 -10.2709 -10.2705
-10.2134 -10.2132 -10.2129 -10.2124 -10.2098 -10.2036 -10.1969 -10.1950
-10.1929 -10.1924 -10.1718  -1.1000  -1.0874  -1.0640  -1.0615  -0.8968
 -0.8820  -0.8258  -0.7872  -0.7781  -0.7714  -0.7252  -0.6927  -0.6716
 -0.6467  -0.6236  -0.6188  -0.5669  -0.5584  -0.5452  -0.5340  -0.5073
 -0.5006  -0.4962  -0.4734  -0.4704  -0.4634  -0.4561  -0.4451  -0.4414
 -0.4292  -0.4229  -0.4222  -0.4141  -0.4061  -0.3954  -0.3916  -0.3829
 -0.3772  -0.3739  -0.3608  -0.3483  -0.3025  -0.2944  -0.2780  -0.2761
 -0.2568  -0.2487

          Ground-State Mulliken Net Atomic Charges

     Atom                 Charge (a.u.)
  ----------------------------------------
      1 C                     0.755641
      2 C                     1.386615
      3 C                    -0.834116
      4 C                    -0.402626
      5 O                    -0.320211
      6 C                    -0.244025
      7 C                    -0.928883
      8 O                    -0.377938
      9 C                     0.021811
     10 C                    -0.500784
     11 O                    -0.324379
     12 C                     0.364908
     13 C                     0.552171
     14 C                     0.019695
     15 C                    -0.129727
     16 C                    -1.298484
     17 O                    -0.256035
     18 C                    -0.309725
     19 C                     0.274509
     20 H                     0.222685
     21 H                     0.243783
     22 H                     0.221873
     23 H                     0.196282
     24 H                     0.346710
     25 H                     0.347355
     26 H                     0.261939
     27 H                     0.363644
     28 H                     0.182070
     29 H                     0.165242
  ----------------------------------------
  Sum of atomic charges =     0.000000

                    Cartesian Multipole Moments
 -----------------------------------------------------------------
    Charge (ESU x 10^10)
                 0.0000
    Dipole Moment (Debye)
         X      -1.3305      Y       1.2444      Z      -0.0647
       Tot       1.8229
    Quadrupole Moments (Debye-Ang)
        XX     -85.9813     XY       8.3729     YY    -120.1916
        XZ       1.0347     YZ       0.4866     ZZ    -111.2480

 Total job time:  640.90s(wall), 5018.47s(cpu)
        *  Thank you very much for using Q-Chem.  Have a nice day.  *
