 Gaussian 16, Revision A.03,
 Gaussian 16:  ES64L-G16RevA.03 25-Dec-2016

 ----------------------------------------------------------------
 #P UB3LYP/6-311++G(d,p) SCRF=(PCM,Solvent=n,n-DiMethylFormamide)
 ----------------------------------------------------------------

 ------------------
 Quinone PCM in DMF
 ------------------
 Symbolic Z-matrix:
 Charge =  0 Multiplicity = 1

                         Standard orientation:
 ---------------------------------------------------------------------
 Center     Atomic      Atomic             Coordinates (Angstroms)
 Number     Number       Type             X           Y           Z
 ---------------------------------------------------------------------
      1          7           0        3.808965    1.848511    0.100982
      2          6           0        3.176316    0.647249    0.055201
      3          6           0        3.963826   -0.539228    0.079393
      4          6           0        3.395770   -1.776247    0.028208
      5          6           0        1.983905   -1.951160   -0.050094
      6          7           0        1.491779   -3.214523   -0.130836
      7          6           0        1.168483   -0.795094   -0.049563
      8          6           0       -0.282535   -0.951910   -0.095979
      9          8           0       -0.836749   -2.052954   -0.205264
     10          6           0       -1.127016    0.270130   -0.022165
     11          6           0       -0.543641    1.547729   -0.042604
     12          6           0       -1.342112    2.696712   -0.053059
     13          6           0       -2.724360    2.588770   -0.046752
     14          6           0       -3.325422    1.329998   -0.013766
     15          6           0       -2.526219    0.199403    0.010719
     16          7           0       -3.258553   -1.091586    0.116605
     17          8           0       -3.326256   -1.594121    1.225037
     18          8           0       -3.816105   -1.493399   -0.891190
     19          6           0        0.937752    1.711759   -0.030525
     20          8           0        1.408101    2.859573   -0.028033
     21          6           0        1.769459    0.513684   -0.004400
     22          1           0        4.813422    1.889681    0.092719
     23          1           0        3.244106    2.688075    0.044675
     24          1           0        5.043575   -0.445025    0.135480
     25          1           0        4.027356   -2.658750    0.039922
     26          1           0        2.109939   -4.001048   -0.028994
     27          1           0        0.486013   -3.337195   -0.154570
     28          1           0       -0.849762    3.660305   -0.067761
     29          1           0       -3.343706    3.477698   -0.062024
     30          1           0       -4.403464    1.225882    0.001205
 ---------------------------------------------------------------------

 SCF Done:  E(UB3LYP) =  -1004.28614845     A.U. after   18 cycles

 The electronic state is 1-A.
 Alpha  occ. eigenvalues --  -19.18529 -19.18482 -19.12247 -19.11908 -14.57582
 Alpha  occ. eigenvalues --  -14.33981 -14.33920 -10.27813 -10.27347 -10.25946
 Alpha  occ. eigenvalues --  -10.24942 -10.24885 -10.22538 -10.21595 -10.21515
 Alpha  occ. eigenvalues --  -10.20778 -10.20403 -10.20345 -10.20334 -10.20163
 Alpha  occ. eigenvalues --  -10.20021  -1.26233  -1.09052  -1.05991  -1.05309
 Alpha  occ. eigenvalues --   -0.95244  -0.94231  -0.91141  -0.85884  -0.82853
 Alpha  occ. eigenvalues --   -0.81497  -0.78068  -0.75020  -0.72432  -0.69226
 Alpha  occ. eigenvalues --   -0.67130  -0.66381  -0.61580  -0.60052  -0.59367
 Alpha  occ. eigenvalues --   -0.57415  -0.56271  -0.55379  -0.54449  -0.53901
 Alpha  occ. eigenvalues --   -0.52847  -0.51104  -0.50357  -0.49390  -0.48198
 Alpha  occ. eigenvalues --   -0.47569  -0.46038  -0.45253  -0.45077  -0.43185
 Alpha  occ. eigenvalues --   -0.42157  -0.42003  -0.41703  -0.40520  -0.39851
 Alpha  occ. eigenvalues --   -0.38497  -0.38419  -0.37088  -0.34338  -0.33731
 Alpha  occ. eigenvalues --   -0.33409  -0.30064  -0.28812  -0.28526  -0.28339
 Alpha  occ. eigenvalues --   -0.28167  -0.27416  -0.20674
 Alpha virt. eigenvalues --   -0.11520  -0.09877  -0.07215  -0.04365  -0.01496
 Alpha virt. eigenvalues --   -0.00666   0.00061   0.00452   0.01544   0.02030
 Alpha virt. eigenvalues --    0.02785   0.02908   0.03875   0.03986   0.04286

  Beta  occ. eigenvalues --  -19.18529 -19.18482 -19.12247 -19.11908 -14.57582
  Beta  occ. eigenvalues --  -14.33981 -14.33920 -10.27813 -10.27347 -10.25946
  Beta  occ. eigenvalues --  -10.24942 -10.24885 -10.22538 -10.21595 -10.21515
  Beta  occ. eigenvalues --  -10.20778 -10.20403 -10.20345 -10.20334 -10.20163
  Beta  occ. eigenvalues --  -10.20021  -1.26233  -1.09052  -1.05991  -1.05309
  Beta  occ. eigenvalues --   -0.95244  -0.94231  -0.91141  -0.85884  -0.82853
  Beta  occ. eigenvalues --   -0.81497  -0.78068  -0.75020  -0.72432  -0.69226
  Beta  occ. eigenvalues --   -0.67130  -0.66381  -0.61580  -0.60052  -0.59367
  Beta  occ. eigenvalues --   -0.57415  -0.56271  -0.55379  -0.54449  -0.53901
  Beta  occ. eigenvalues --   -0.52847  -0.51104  -0.50357  -0.49390  -0.48198
  Beta  occ. eigenvalues --   -0.47569  -0.46038  -0.45253  -0.45077  -0.43185
  Beta  occ. eigenvalues --   -0.42157  -0.42003  -0.41703  -0.40520  -0.39851
  Beta  occ. eigenvalues --   -0.38497  -0.38419  -0.37088  -0.34338  -0.33731
  Beta  occ. eigenvalues --   -0.33409  -0.30064  -0.28812  -0.28526  -0.28339
  Beta  occ. eigenvalues --   -0.28167  -0.27416  -0.20674
  Beta virt. eigenvalues --   -0.11520  -0.09877  -0.07215  -0.04365  -0.01496
  Beta virt. eigenvalues --   -0.00666   0.00061   0.00452   0.01544   0.02030
  Beta virt. eigenvalues --    0.02785   0.02908   0.03875   0.03986   0.04286

 Mulliken charges and spin densities:
               1          2
     1  N   -0.428997   0.000000
     2  C    0.036099  -0.000000
     3  C   -0.377287   0.000000
     4  C   -0.266968   0.000000
     5  C    0.010491  -0.000000
     6  N   -0.426966  -0.000000
     7  C    0.358216   0.000000
     8  C   -0.486656  -0.000000
     9  O   -0.303931   0.000000
    10  C    0.352091   0.000000
    11  C    0.476016   0.000000
    12  C   -0.248106  -0.000000
    13  C   -0.337260  -0.000000
    14  C    0.040885  -0.000000
    15  C   -0.270316  -0.000000
    16  N   -0.146848   0.000000
    17  O   -0.010147   0.000000
    18  O   -0.008522   0.000000
    19  C   -0.412067   0.000000
    20  O   -0.345689  -0.000000
    21  C    0.416982   0.000000
    22  H    0.310788  -0.000000
    23  H    0.343447  -0.000000
    24  H    0.205194  -0.000000
    25  H    0.206295   0.000000
    26  H    0.309607   0.000000
    27  H    0.348944  -0.000000
    28  H    0.190615  -0.000000
    29  H    0.226912   0.000000
    30  H    0.237176  -0.000000
 Sum of Mulliken charges =  -0.00000  -0.00000

 Dipole moment (field-independent basis, Debye):
    X=              8.3856    Y=              1.8569    Z=              0.1659  Tot=              8.5903
 Quadrupole moment (field-independent basis, Debye-Ang):
   XX=            -91.4902   YY=           -111.7635   ZZ=           -127.8644
   XY=            -29.4359   XZ=              0.3331   YZ=             -0.5711

 Normal termination of Gaussian 16 at Sun Jan 14 01:09:02 2024.
