 Q-Chem 5.4, Q-Chem, Inc., Pleasanton, CA (2021)
 Q-Chem 5.4.0 for Intel X86 EM64T Linux

User input:
--------------------------------------------------------------
$molecule
0 1
C                 -1.9510880000      3.0658200000      0.0477070000
C                 -2.9247350000      2.3558030000     -0.6480240000
C                 -2.6407030000      1.0801550000     -1.1390410000
C                 -0.6916900000      2.4965500000      0.2508930000
C                 -0.4029650000      1.2133270000     -0.2417100000
C                 -1.3851170000      0.5100110000     -0.9368560000
C                  0.3504870000      3.2354990000      0.9863830000
C                  1.6795160000      2.5846540000      1.1705380000
C                  1.9788270000      1.3439040000      0.7131050000
C                  0.9475230000      0.5887490000     -0.0289660000
O                  0.1937000000      4.3561680000      1.4581640000
O                  1.1799070000     -0.5305690000     -0.4640390000
H                 -2.1478040000      4.0566180000      0.4386010000
H                 -3.9030430000      2.7939250000     -0.8082170000
H                 -3.4006100000      0.5285800000     -1.6809180000
H                 -1.1482830000     -0.4783520000     -1.3106770000
C                  3.3317980000      0.7180380000      0.9032560000
O                  2.5655100000      3.3371410000      1.8432320000
H                  3.2009870000     -0.3605450000      1.0208420000
H                  3.7817600000      1.1090590000      1.8193590000
H                  2.1003340000      4.1650980000      2.0690110000
C                  4.2834760000      0.9791140000     -0.2842480000
C                  5.6573310000      0.3299080000     -0.0896030000
C                  6.6188030000      0.5782980000     -1.2574280000
C                  7.9908740000     -0.0725730000     -1.0589490000
H                  4.4036320000      2.0603170000     -0.4170680000
H                  3.8231200000      0.5949590000     -1.2006680000
H                  5.5299130000     -0.7512290000      0.0499980000
H                  6.1094950000      0.7069430000      0.8370040000
H                  6.7442060000      1.6588420000     -1.3977620000
H                  6.1663230000      0.2016480000     -2.1826670000
H                  8.4837250000      0.3095440000     -0.1593020000
H                  8.6521140000      0.1227780000     -1.9077730000
H                  7.9016060000     -1.1581200000     -0.9505380000
$end
$rem
MAX_SCF_CYCLES=200
BASIS  =  6-311++G(d,p)
GUI  =  2
JOB_TYPE  =  SP
METHOD  =  B3LYP
SOLVENT_METHOD = PCM
$end
$pcm
theory = CPCM
$end
$solvent
dielectric 37.219
opticaldielectric 1.43
$end

--------------------------------------------------------------

             Standard Nuclear Orientation (Angstroms)
    I     Atom           X                Y                Z
 ----------------------------------------------------------------
    1      C      -1.9510880000     3.0658200000     0.0477070000
    2      C      -2.9247350000     2.3558030000    -0.6480240000
    3      C      -2.6407030000     1.0801550000    -1.1390410000
    4      C      -0.6916900000     2.4965500000     0.2508930000
    5      C      -0.4029650000     1.2133270000    -0.2417100000
    6      C      -1.3851170000     0.5100110000    -0.9368560000
    7      C       0.3504870000     3.2354990000     0.9863830000
    8      C       1.6795160000     2.5846540000     1.1705380000
    9      C       1.9788270000     1.3439040000     0.7131050000
   10      C       0.9475230000     0.5887490000    -0.0289660000
   11      O       0.1937000000     4.3561680000     1.4581640000
   12      O       1.1799070000    -0.5305690000    -0.4640390000
   13      H      -2.1478040000     4.0566180000     0.4386010000
   14      H      -3.9030430000     2.7939250000    -0.8082170000
   15      H      -3.4006100000     0.5285800000    -1.6809180000
   16      H      -1.1482830000    -0.4783520000    -1.3106770000
   17      C       3.3317980000     0.7180380000     0.9032560000
   18      O       2.5655100000     3.3371410000     1.8432320000
   19      H       3.2009870000    -0.3605450000     1.0208420000
   20      H       3.7817600000     1.1090590000     1.8193590000
   21      H       2.1003340000     4.1650980000     2.0690110000
   22      C       4.2834760000     0.9791140000    -0.2842480000
   23      C       5.6573310000     0.3299080000    -0.0896030000
   24      C       6.6188030000     0.5782980000    -1.2574280000
   25      C       7.9908740000    -0.0725730000    -1.0589490000
   26      H       4.4036320000     2.0603170000    -0.4170680000
   27      H       3.8231200000     0.5949590000    -1.2006680000
   28      H       5.5299130000    -0.7512290000     0.0499980000
   29      H       6.1094950000     0.7069430000     0.8370040000
   30      H       6.7442060000     1.6588420000    -1.3977620000
   31      H       6.1663230000     0.2016480000    -2.1826670000
   32      H       8.4837250000     0.3095440000    -0.1593020000
   33      H       8.6521140000     0.1227780000    -1.9077730000
   34      H       7.9016060000    -1.1581200000    -0.9505380000
 ----------------------------------------------------------------

    8    -807.1595688571      9.04e-06  Convergence criterion met
 Total energy in the final basis set =     -807.1595688571

                    Orbital Energies (a.u.)
 --------------------------------------------------------------

 Alpha MOs
 -- Occupied --
-19.1779 -19.1497 -19.1296 -10.2935 -10.2812 -10.2669 -10.2103 -10.2092
-10.2032 -10.2004 -10.1985 -10.1968 -10.1967 -10.1748 -10.1655 -10.1599
-10.1592 -10.1527  -1.1082  -1.0672  -1.0635  -0.8923  -0.8435  -0.8044
 -0.7826  -0.7792  -0.7469  -0.7046  -0.6783  -0.6540  -0.6322  -0.6054
 -0.5963  -0.5755  -0.5733  -0.5423  -0.5183  -0.4974  -0.4792  -0.4734
 -0.4702  -0.4679  -0.4521  -0.4508  -0.4385  -0.4275  -0.4249  -0.4157
 -0.4128  -0.4016  -0.3980  -0.3831  -0.3772  -0.3729  -0.3696  -0.3588
 -0.3370  -0.3302  -0.3262  -0.3210  -0.3032  -0.2897  -0.2800  -0.2796
 -0.2563

          Ground-State Mulliken Net Atomic Charges

     Atom                 Charge (a.u.)
  ----------------------------------------
      1 C                     0.256398
      2 C                    -0.409461
      3 C                    -0.399139
      4 C                     0.289901
      5 C                     0.020137
      6 C                     0.196469
      7 C                    -0.685882
      8 C                    -0.458487
      9 C                     1.811506
     10 C                    -0.799613
     11 O                    -0.322550
     12 O                    -0.293503
     13 H                     0.204338
     14 H                     0.226048
     15 H                     0.223482
     16 H                     0.200170
     17 C                    -0.367431
     18 O                    -0.234851
     19 H                     0.216795
     20 H                     0.231362
     21 H                     0.321756
     22 C                    -0.462313
     23 C                    -0.193537
     24 C                    -0.188192
     25 C                    -0.679622
     26 H                     0.169988
     27 H                     0.171832
     28 H                     0.121025
     29 H                     0.120345
     30 H                     0.136506
     31 H                     0.136034
     32 H                     0.145708
     33 H                     0.148786
     34 H                     0.145988
  ----------------------------------------
  Sum of atomic charges =    -0.000008

                    Cartesian Multipole Moments
 -----------------------------------------------------------------
    Charge (ESU x 10^10)
                -0.0000
    Dipole Moment (Debye)
         X      -2.7891      Y       1.2372      Z      -0.7277
       Tot       3.1367
    Quadrupole Moments (Debye-Ang)
        XX     -96.3800     XY      -1.5720     YY    -112.2516
        XZ       4.7087     YZ      -3.1649     ZZ    -108.2472

 Total job time:  64.01s(wall), 434.79s(cpu)
        *  Thank you very much for using Q-Chem.  Have a nice day.  *
