 Gaussian 16, Revision A.03,
 Gaussian 16:  ES64L-G16RevA.03 25-Dec-2016

 ----------------------------------------------------------------
 #P UB3LYP/6-311++G(d,p) SCRF=(PCM,Solvent=n,n-DiMethylFormamide)
 ----------------------------------------------------------------

 -------
 Reduced
 -------
 Symbolic Z-matrix:
 Charge = -2 Multiplicity = 1

                         Standard orientation:
 ---------------------------------------------------------------------
 Center     Atomic      Atomic             Coordinates (Angstroms)
 Number     Number       Type             X           Y           Z
 ---------------------------------------------------------------------
      1         17           0        3.122146    0.572765   -0.000011
      2          6           0        1.337920    0.198752   -0.000008
      3          6           0        0.472180    1.290599    0.000043
      4          6           0       -0.961005    1.181005    0.000075
      5          8           0       -1.757037    2.195389   -0.000053
      6          6           0       -1.337869   -0.198736    0.000010
      7          6           0       -0.472163   -1.290587   -0.000041
      8          6           0        0.961018   -1.180965   -0.000069
      9          8           0        1.757047   -2.195388    0.000055
     10         17           0       -3.122179   -0.572791    0.000007
     11          1           0        0.877337    2.297731    0.000091
     12          1           0       -0.877328   -2.297712   -0.000091
 ---------------------------------------------------------------------

 SCF Done:  E(UB3LYP) =  -1301.09315338     A.U. after   16 cycles

 The electronic state is 1-A.
 Alpha  occ. eigenvalues -- -101.52718-101.52718 -19.02554 -19.02553 -10.19162
 Alpha  occ. eigenvalues --  -10.19160 -10.18989 -10.18988 -10.14125 -10.14124
 Alpha  occ. eigenvalues --   -9.44131  -9.44130  -7.20513  -7.20512  -7.19669
 Alpha  occ. eigenvalues --   -7.19669  -7.19631  -7.19630  -0.94371  -0.93965
 Alpha  occ. eigenvalues --   -0.83843  -0.82781  -0.77085  -0.69336  -0.65756
 Alpha  occ. eigenvalues --   -0.57447  -0.53003  -0.45537  -0.44230  -0.41892
 Alpha  occ. eigenvalues --   -0.38805  -0.38380  -0.37019  -0.35140  -0.34262
 Alpha  occ. eigenvalues --   -0.34231  -0.31248  -0.30559  -0.29567  -0.29237
 Alpha  occ. eigenvalues --   -0.23445  -0.21662  -0.20789  -0.20768  -0.13178
 Alpha virt. eigenvalues --    0.00571   0.00661   0.01568   0.01790   0.02095
 Alpha virt. eigenvalues --    0.04735   0.05593   0.05809   0.06093   0.06856
 Alpha virt. eigenvalues --    0.07329   0.07509   0.08890   0.09027   0.09058

  Beta  occ. eigenvalues -- -101.52718-101.52718 -19.02554 -19.02553 -10.19162
  Beta  occ. eigenvalues --  -10.19160 -10.18989 -10.18988 -10.14125 -10.14124
  Beta  occ. eigenvalues --   -9.44131  -9.44130  -7.20513  -7.20512  -7.19669
  Beta  occ. eigenvalues --   -7.19669  -7.19631  -7.19630  -0.94371  -0.93965
  Beta  occ. eigenvalues --   -0.83843  -0.82781  -0.77085  -0.69336  -0.65756
  Beta  occ. eigenvalues --   -0.57447  -0.53003  -0.45537  -0.44230  -0.41892
  Beta  occ. eigenvalues --   -0.38805  -0.38380  -0.37019  -0.35140  -0.34262
  Beta  occ. eigenvalues --   -0.34231  -0.31248  -0.30559  -0.29567  -0.29237
  Beta  occ. eigenvalues --   -0.23445  -0.21662  -0.20789  -0.20768  -0.13178
  Beta virt. eigenvalues --    0.00571   0.00661   0.01568   0.01790   0.02095
  Beta virt. eigenvalues --    0.04735   0.05593   0.05809   0.06093   0.06856
  Beta virt. eigenvalues --    0.07329   0.07509   0.08890   0.09027   0.09058

 Mulliken charges and spin densities:
               1          2
     1  Cl   0.106776  -0.000000
     2  C    1.130301   0.000000
     3  C   -0.843105   0.000000
     4  C   -0.879524  -0.000000
     5  O   -0.672058   0.000000
     6  C    1.130353   0.000000
     7  C   -0.843149  -0.000000
     8  C   -0.879642  -0.000000
     9  O   -0.672081   0.000000
    10  Cl   0.106742   0.000000
    11  H    0.157694   0.000000
    12  H    0.157693  -0.000000
 Sum of Mulliken charges =  -2.00000   0.00000

 Dipole moment (field-independent basis, Debye):
    X=              0.0003    Y=              0.0004    Z=             -0.0000  Tot=              0.0005
 Quadrupole moment (field-independent basis, Debye-Ang):
   XX=           -125.1696   YY=           -114.0812   ZZ=            -79.4404
   XY=             25.0864   XZ=             -0.0005   YZ=              0.0010

 Normal termination of Gaussian 16 at Sun Jan 21 07:31:41 2024.
