 Q-Chem 5.4, Q-Chem, Inc., Pleasanton, CA (2021)
 Q-Chem 5.4.0 for Intel X86 EM64T Linux

User input:
--------------------------------------------------------------
$molecule
0 1
O                  4.9783680000      0.5779100000     -0.6554320000
C                  3.7091930000      0.1172350000     -0.4796150000
C                  3.5376510000     -1.2734160000     -0.4198030000
C                  2.2722600000     -1.8040310000     -0.2425830000
C                  1.1530550000     -0.9691430000     -0.1212770000
C                 -0.1921760000     -1.5824740000      0.0683700000
O                 -0.3065240000     -2.7964300000      0.1165030000
C                 -1.3572090000     -0.6580170000      0.1923920000
C                 -2.6578280000     -1.1481230000      0.3723020000
O                 -2.8934870000     -2.4824680000      0.4386300000
C                 -3.7329750000     -0.2436310000      0.4854700000
C                 -3.5447290000      1.1164080000      0.4243950000
C                 -2.2541380000      1.6413050000      0.2447340000
O                 -2.1348780000      2.9743650000      0.1931810000
C                 -1.1590530000      0.7570070000      0.1284930000
C                  0.1787870000      1.3307430000     -0.0586160000
O                  0.3523140000      2.5596610000     -0.1140830000
C                  1.3357520000      0.4181760000     -0.1824880000
C                  2.6108120000      0.9619140000     -0.3612750000
H                  4.9805270000      1.5411830000     -0.6817470000
H                  4.4079120000     -1.9115470000     -0.5144890000
H                  2.1211480000     -2.8751010000     -0.1941100000
H                 -3.8376510000     -2.6300370000      0.5638720000
H                 -4.7354450000     -0.6391240000      0.6246750000
H                 -4.3752710000      1.8057700000      0.5121080000
H                 -1.1732070000      3.1713630000      0.0646600000
H                  2.7167930000      2.0405000000     -0.4042650000
$end
$rem
MAX_SCF_CYCLES=200
BASIS  =  6-311++G(d,p)
GUI  =  2
JOB_TYPE  =  SP
METHOD  =  B3LYP
SOLVENT_METHOD = COSMO
$end
$solvent
dielectric 37.219
opticaldielectric 1.43
$end

--------------------------------------------------------------

             Standard Nuclear Orientation (Angstroms)
    I     Atom           X                Y                Z
 ----------------------------------------------------------------
    1      O       5.0127439590    -0.6846926492     0.0006488345
    2      C       3.7409596925    -0.1983769898     0.0003130334
    3      C       3.5909811985     1.1960479044     0.0003643882
    4      C       2.3241662866     1.7522434321     0.0000427617
    5      C       1.1821907837     0.9396766404    -0.0002889513
    6      C      -0.1637301252     1.5802109399    -0.0005371970
    7      O      -0.2590300090     2.7967631087    -0.0009536522
    8      C      -1.3532848821     0.6789543623    -0.0001447105
    9      C      -2.6561852122     1.1953184300     0.0002579296
   10      O      -2.8716992588     2.5347081373     0.0004912718
   11      C      -3.7548231384     0.3122281231     0.0005088691
   12      C      -3.5875082897    -1.0519120915     0.0004093524
   13      C      -2.2952782911    -1.6028763357     0.0000976956
   14      O      -2.1970482296    -2.9386459554     0.0000664779
   15      C      -1.1768802923    -0.7403846465    -0.0001891668
   16      C       0.1621784452    -1.3411510501    -0.0004482753
   17      O       0.3167994248    -2.5738391491    -0.0006969401
   18      C       1.3434758321    -0.4516414833    -0.0002832650
   19      C       2.6198167933    -1.0211566053     0.0000071898
   20      H       4.9990148245    -1.6482296202     0.0004769458
   21      H       4.4787733777     1.8168182041     0.0006830383
   22      H       2.1895143463     2.8266010369     0.0001140669
   23      H      -3.8209912769     2.7012989283     0.0004813374
   24      H      -4.7587659166     0.7279656343     0.0007654149
   25      H      -4.4360473741    -1.7247381826     0.0005662752
   26      H      -1.2309638296    -3.1550201989    -0.0002345482
   27      H       2.7088659523    -2.1021275198     0.0000416096
 ----------------------------------------------------------------

    9    -914.6986836890      6.72e-06  Convergence criterion met
 Total energy in the final basis set =     -914.6986836890
    5    -914.7275719360      4.14e-06  Convergence criterion met
 Total energy in the final basis set =     -914.7275719360

                    Orbital Energies (a.u.)
 --------------------------------------------------------------

 Alpha MOs
 -- Occupied --
-19.1729 -19.1709 -19.1630 -19.1400 -19.1210 -10.2897 -10.2793 -10.2656
-10.2656 -10.2626 -10.2115 -10.2111 -10.2108 -10.2047 -10.2012 -10.1996
-10.1975 -10.1966 -10.1946  -1.0933  -1.0876  -1.0851  -1.0618  -1.0576
 -0.8928  -0.8780  -0.8150  -0.7821  -0.7712  -0.7665  -0.6969  -0.6789
 -0.6629  -0.6332  -0.6042  -0.5903  -0.5800  -0.5594  -0.5350  -0.5191
 -0.5042  -0.4912  -0.4854  -0.4684  -0.4632  -0.4562  -0.4538  -0.4461
 -0.4384  -0.4326  -0.4266  -0.4179  -0.4122  -0.4038  -0.3982  -0.3910
 -0.3834  -0.3702  -0.3539  -0.3350  -0.2939  -0.2918  -0.2809  -0.2696
 -0.2538  -0.2351

          Ground-State Mulliken Net Atomic Charges

     Atom                 Charge (a.u.)
  ----------------------------------------
      1 O                    -0.278044
      2 C                    -0.682144
      3 C                    -0.184144
      4 C                     0.177255
      5 C                    -0.270450
      6 C                    -0.380029
      7 O                    -0.317783
      8 C                     0.306226
      9 C                    -0.245978
     10 O                    -0.235083
     11 C                    -0.203675
     12 C                    -0.095156
     13 C                    -0.237600
     14 O                    -0.343595
     15 C                     0.836254
     16 C                    -0.366545
     17 O                    -0.336568
     18 C                     0.432650
     19 C                     0.285092
     20 H                     0.331786
     21 H                     0.250114
     22 H                     0.199828
     23 H                     0.323169
     24 H                     0.226772
     25 H                     0.247679
     26 H                     0.366987
     27 H                     0.192984
  ----------------------------------------
  Sum of atomic charges =     0.000000

                    Cartesian Multipole Moments
 -----------------------------------------------------------------
    Charge (ESU x 10^10)
                 0.0000
    Dipole Moment (Debye)
         X      -1.8202      Y      -1.5351      Z       0.0026
       Tot       2.3811
    Quadrupole Moments (Debye-Ang)
        XX     -71.8048     XY     -13.9533     YY    -121.9867
        XZ      -0.0039     YZ       0.0043     ZZ    -110.4830

 Total job time:  64.26s(wall), 480.28s(cpu)
        *  Thank you very much for using Q-Chem.  Have a nice day.  *
