 Gaussian 16, Revision A.03,
 Gaussian 16:  ES64L-G16RevA.03 25-Dec-2016

 ----------------------------------------------------------------------
 #P UB3LYP/6-311++G(d,p) nosym opt freq SCRF=(PCM,Solvent=n,n-DiMethylF
 ormamide)
 ----------------------------------------------------------------------

 -------
 Radical
 -------
 Symbolic Z-matrix:
 Charge = -1 Multiplicity = 2

 SCF Done:  E(UB3LYP) =  -839.617994181     A.U. after   16 cycles
 SCF Done:  E(UB3LYP) =  -839.618126543     A.U. after   12 cycles
 SCF Done:  E(UB3LYP) =  -839.618146212     A.U. after   12 cycles
 SCF Done:  E(UB3LYP) =  -839.618161792     A.U. after   11 cycles
 SCF Done:  E(UB3LYP) =  -839.618162215     A.U. after    9 cycles
 SCF Done:  E(UB3LYP) =  -839.618162614     A.U. after    9 cycles
 Optimization completed.
    -- Stationary point found.
 Normal termination of Gaussian 16 at Sat Feb 10 22:38:30 2024.

 ----------------------------------------------------------------------
 #P Geom=AllCheck Guess=TCheck SCRF=Check GenChk UB3LYP/6-311++G(d,p) F
 req
 ----------------------------------------------------------------------

 Structure from the checkpoint file:  "185-rad.chk"
 -------
 Radical
 -------
 Charge = -1 Multiplicity = 2

                          Input orientation:
 ---------------------------------------------------------------------
 Center     Atomic      Atomic             Coordinates (Angstroms)
 Number     Number       Type             X           Y           Z
 ---------------------------------------------------------------------
      1          6           0        4.892253   -2.864789   -0.358320
      2          6           0        5.612206   -1.969234   -1.123563
      3          6           0        5.016053   -0.761328   -1.544544
      4          6           0        3.556567   -2.594365    0.016050
      5          6           0        2.954658   -1.375422   -0.409294
      6          6           0        3.712474   -0.474832   -1.191548
      7          6           0        2.819899   -3.552356    0.822462
      8          6           0        1.457844   -3.230202    1.180918
      9          6           0        0.851440   -2.002898    0.751998
     10          6           0        1.584417   -1.051463   -0.051129
     11          6           0        0.698640   -4.138235    1.971317
     12          6           0       -0.612402   -3.834398    2.320208
     13          6           0       -0.493038   -1.726570    1.128393
     14          6           0       -1.203921   -2.637256    1.901738
     15          8           0        3.364019   -4.650337    1.204184
     16          8           0        1.043318    0.046608   -0.436930
     17          8           0        1.242333   -5.308410    2.393600
     18          1           0        5.337903   -3.795012   -0.028345
     19          1           0        6.636262   -2.192271   -1.402041
     20          1           0        5.583580   -0.059162   -2.145272
     21          1           0        3.243062    0.448462   -1.507621
     22          1           0        2.177459   -5.303362    2.023946
     23          8           0       -1.096764   -0.574534    0.739191
     24          1           0       -2.226487   -2.404702    2.176211
     25          1           0       -1.170851   -4.541309    2.923074
     26          1           0       -0.398633   -0.089614    0.201872
 ---------------------------------------------------------------------

 SCF Done:  E(UB3LYP) =  -839.618162614     A.U. after    1 cycles

 Alpha  occ. eigenvalues --  -19.13029 -19.13028 -19.09250 -19.09249 -10.23704
 Alpha  occ. eigenvalues --  -10.23703 -10.23265 -10.23263 -10.18141 -10.18098
 Alpha  occ. eigenvalues --  -10.18053 -10.18012 -10.17772 -10.17727 -10.17603
 Alpha  occ. eigenvalues --  -10.17601 -10.17236 -10.17184  -1.05364  -1.05201
 Alpha  occ. eigenvalues --   -1.00702  -1.00511  -0.86790  -0.84923  -0.79347
 Alpha  occ. eigenvalues --   -0.75877  -0.74789  -0.73689  -0.67979  -0.64390
 Alpha  occ. eigenvalues --   -0.63666  -0.59792  -0.57845  -0.54608  -0.53090
 Alpha  occ. eigenvalues --   -0.52280  -0.50859  -0.47677  -0.46962  -0.46189
 Alpha  occ. eigenvalues --   -0.44172  -0.43142  -0.42649  -0.42609  -0.41913
 Alpha  occ. eigenvalues --   -0.40658  -0.40578  -0.40486  -0.39974  -0.37155
 Alpha  occ. eigenvalues --   -0.36960  -0.35857  -0.35747  -0.35360  -0.34203
 Alpha  occ. eigenvalues --   -0.30917  -0.27508  -0.26452  -0.26340  -0.25465
 Alpha  occ. eigenvalues --   -0.25166  -0.21719  -0.14900
 Alpha virt. eigenvalues --   -0.05495  -0.02784  -0.00196   0.00506   0.00647
 Alpha virt. eigenvalues --    0.01142   0.01956   0.02472   0.04307   0.04349
 Alpha virt. eigenvalues --    0.04456   0.04624   0.04791   0.05665   0.06338

  Beta  occ. eigenvalues --  -19.12971 -19.12969 -19.08786 -19.08786 -10.23492
  Beta  occ. eigenvalues --  -10.23491 -10.23210 -10.23208 -10.18076 -10.18055
  Beta  occ. eigenvalues --  -10.18032 -10.18014 -10.17728 -10.17684 -10.17592
  Beta  occ. eigenvalues --  -10.17589 -10.17131 -10.17079  -1.05165  -1.05006
  Beta  occ. eigenvalues --   -0.99949  -0.99738  -0.86540  -0.84768  -0.78949
  Beta  occ. eigenvalues --   -0.75626  -0.74627  -0.73407  -0.67308  -0.64194
  Beta  occ. eigenvalues --   -0.63418  -0.59688  -0.57683  -0.54359  -0.52965
  Beta  occ. eigenvalues --   -0.52137  -0.50691  -0.47472  -0.46846  -0.46006
  Beta  occ. eigenvalues --   -0.43295  -0.43069  -0.42495  -0.42215  -0.41718
  Beta  occ. eigenvalues --   -0.40551  -0.40419  -0.39508  -0.39204  -0.36844
  Beta  occ. eigenvalues --   -0.35705  -0.35688  -0.35534  -0.34402  -0.34076
  Beta  occ. eigenvalues --   -0.30182  -0.26061  -0.25793  -0.25637  -0.25045
  Beta  occ. eigenvalues --   -0.24793  -0.20586
  Beta virt. eigenvalues --   -0.09505  -0.04374  -0.01795  -0.00177   0.00653
  Beta virt. eigenvalues --    0.01074   0.01160   0.01975   0.02476   0.04316
  Beta virt. eigenvalues --    0.04379   0.04471   0.04700   0.05655   0.06323

 Mulliken charges and spin densities:
               1          2
     1  C    0.002168   0.034930
     2  C   -0.464738   0.035500
     3  C   -0.464835   0.035530
     4  C    0.059080   0.018792
     5  C    0.059007   0.018779
     6  C    0.002448   0.034894
     7  C   -0.236807   0.122477
     8  C    0.595144  -0.007801
     9  C    0.595385  -0.007779
    10  C   -0.237154   0.122449
    11  C   -0.344545   0.052984
    12  C   -0.123805   0.070607
    13  C   -0.344439   0.052953
    14  C   -0.123813   0.070624
    15  O   -0.492340   0.168108
    16  O   -0.492239   0.168114
    17  O   -0.401844   0.018413
    18  H    0.172937  -0.000925
    19  H    0.185178  -0.002946
    20  H    0.185160  -0.002948
    21  H    0.173069  -0.000921
    22  H    0.352383  -0.003855
    23  O   -0.401828   0.018417
    24  H    0.197031  -0.006272
    25  H    0.197002  -0.006268
    26  H    0.352395  -0.003856
 Sum of Mulliken charges =  -1.00000   1.00000

 Dipole moment (field-independent basis, Debye):
    X=             -6.3465    Y=             12.3313    Z=             -4.1927  Tot=             14.4885
 Quadrupole moment (field-independent basis, Debye-Ang):
   XX=           -123.0307   YY=           -167.2531   ZZ=           -116.3873
   XY=             29.4977   XZ=            -10.9078   YZ=             19.4435

  Exact polarizability: 422.977  -4.233 314.674-113.031 -99.669 225.992
 Approx polarizability: 456.148 -24.501 377.496-107.354-115.189 251.858

                      1                      2                      3
                      A                      A                      A
 Frequencies --     60.0675                89.3792               140.7722
 Red. masses --      6.6262                 6.5920                 5.8650
 Frc consts  --      0.0141                 0.0310                 0.0685
 IR Inten    --      6.3161                 0.0009                 0.0028

                      4                      5                      6
                      A                      A                      A
 Frequencies --    150.1804               173.2427               213.7959
 Red. masses --      7.5246                 8.1657                 5.4960
 Frc consts  --      0.1000                 0.1444                 0.1480
 IR Inten    --      0.8714                 1.4216                 0.6560

                      7                      8                      9
                      A                      A                      A
 Frequencies --    243.9219               328.7581               344.3398
 Red. masses --      5.9836                 6.7627                 6.2997
 Frc consts  --      0.2098                 0.4306                 0.4401
 IR Inten    --      0.3802                 3.0194                18.2320

                     10                     11                     12
                      A                      A                      A
 Frequencies --    373.9077               399.3985               414.7652
 Red. masses --      6.4538                12.5834                 6.4237
 Frc consts  --      0.5316                 1.1827                 0.6511
 IR Inten    --      0.0003                 0.8835                 0.0067

                     13                     14                     15
                      A                      A                      A
 Frequencies --    428.8327               434.9330               440.8768
 Red. masses --      7.0973                 3.2995                12.2980
 Frc consts  --      0.7690                 0.3677                 1.4084
 IR Inten    --     68.5743                 2.3649                19.3224

                     16                     17                     18
                      A                      A                      A
 Frequencies --    471.4654               492.3603               516.0291
 Red. masses --     10.3158                 4.4505                 5.9466
 Frc consts  --      1.3510                 0.6357                 0.9330
 IR Inten    --      9.9602                 0.0005                49.8453

                     19                     20                     21
                      A                      A                      A
 Frequencies --    529.9006               588.5009               603.3628
 Red. masses --      9.7870                 3.4381                 5.4666
 Frc consts  --      1.6192                 0.7016                 1.1725
 IR Inten    --      0.6768                39.3466                 2.6404

                     22                     23                     24
                      A                      A                      A
 Frequencies --    640.0616               662.4102               705.8721
 Red. masses --      4.9678                 6.6755                 6.9931
 Frc consts  --      1.1991                 1.7258                 2.0529
 IR Inten    --      0.0001                17.5217                75.1364

                     25                     26                     27
                      A                      A                      A
 Frequencies --    713.0749               716.2084               760.2846
 Red. masses --      7.0957                 2.4768                 7.3067
 Frc consts  --      2.1258                 0.7486                 2.4884
 IR Inten    --      0.0087                32.2124                39.6069

                     28                     29                     30
                      A                      A                      A
 Frequencies --    773.3319               788.9620               823.1465
 Red. masses --      5.7115                 1.7342                 1.6930
 Frc consts  --      2.0125                 0.6360                 0.6759
 IR Inten    --      0.0042                95.2402               111.8865

                     31                     32                     33
                      A                      A                      A
 Frequencies --    875.5439               876.9068               881.5154
 Red. masses --      7.5541                 1.0886                 1.0674
 Frc consts  --      3.4118                 0.4932                 0.4887
 IR Inten    --     86.0561                 8.3844               218.8273

                     34                     35                     36
                      A                      A                      A
 Frequencies --    884.7999               910.9855               918.9235
 Red. masses --      1.3558                 7.9813                 1.3168
 Frc consts  --      0.6254                 3.9025                 0.6552
 IR Inten    --      2.2338                74.2768                 0.0017

                     37                     38                     39
                      A                      A                      A
 Frequencies --    978.6698               988.9279              1002.7691
 Red. masses --      6.2329                 1.3643                 1.2908
 Frc consts  --      3.5173                 0.7861                 0.7647
 IR Inten    --    180.6162                 1.7071                 0.0040

                     40                     41                     42
                      A                      A                      A
 Frequencies --   1035.2648              1072.9348              1111.7031
 Red. masses --      2.4390                 2.0166                 2.3651
 Frc consts  --      1.5401                 1.3678                 1.7222
 IR Inten    --     32.6690                 5.8226                88.9020

                     43                     44                     45
                      A                      A                      A
 Frequencies --   1150.2290              1173.6262              1190.7754
 Red. masses --      1.4545                 1.3973                 1.8905
 Frc consts  --      1.1338                 1.1340                 1.5794
 IR Inten    --     44.6440                22.3116               129.7888

                     46                     47                     48
                      A                      A                      A
 Frequencies --   1245.1316              1259.8266              1271.0182
 Red. masses --      1.7375                 4.2504                 7.7108
 Frc consts  --      1.5871                 3.9746                 7.3393
 IR Inten    --      2.1175                19.7730                23.8738

                     49                     50                     51
                      A                      A                      A
 Frequencies --   1276.3123              1305.4939              1312.5760
 Red. masses --      2.9009                 3.5197                 3.1561
 Frc consts  --      2.7842                 3.5343                 3.2037
 IR Inten    --    285.0952               240.0699              1110.3705

                     52                     53                     54
                      A                      A                      A
 Frequencies --   1356.0307              1378.8155              1397.6056
 Red. masses --     10.3218                 6.1155                 2.8820
 Frc consts  --     11.1827                 6.8500                 3.3168
 IR Inten    --      0.9434                 3.4005               834.8227

                     55                     56                     57
                      A                      A                      A
 Frequencies --   1430.7933              1482.1722              1482.4326
 Red. masses --      6.1208                 2.4376                 2.9401
 Frc consts  --      7.3826                 3.1551                 3.8068
 IR Inten    --      4.0067               219.1117               934.6308

                     58                     59                     60
                      A                      A                      A
 Frequencies --   1498.3890              1508.1428              1564.1007
 Red. masses --      3.3589                 2.6382                 4.9376
 Frc consts  --      4.4433                 3.5354                 7.1170
 IR Inten    --    447.6061               124.2290                91.3121

                     61                     62                     63
                      A                      A                      A
 Frequencies --   1584.1867              1627.1172              1629.4826
 Red. masses --      1.8775                 5.5945                 5.5978
 Frc consts  --      2.7761                 8.7267                 8.7573
 IR Inten    --    313.3128                 0.2408                 0.6703

                     64                     65                     66
                      A                      A                      A
 Frequencies --   1647.9504              2966.6523              2970.8154
 Red. masses --      2.7431                 1.0731                 1.0736
 Frc consts  --      4.3892                 5.5647                 5.5826
 IR Inten    --     26.5505                25.4012              1320.8036

                     67                     68                     69
                      A                      A                      A
 Frequencies --   3163.5738              3173.6424              3177.3030
 Red. masses --      1.0864                 1.0875                 1.0907
 Frc consts  --      6.4060                 6.4532                 6.4874
 IR Inten    --     12.9080                27.1007                20.6132

                     70                     71                     72
                      A                      A                      A
 Frequencies --   3187.8678              3194.5115              3197.7276
 Red. masses --      1.0943                 1.0921                 1.0943
 Frc consts  --      6.5520                 6.5664                 6.5926
 IR Inten    --     23.3920                13.2577                35.9673

 - Thermochemistry -
 -------------------
 Temperature   298.150 Kelvin.  Pressure   1.00000 Atm.
 Atom     1 has atomic number  6 and mass  12.00000

 Molecular mass:   240.04226 amu.
 Principal axes and moments of inertia in atomic units:
                           1         2         3
     Eigenvalues --  2561.316234637.597767198.91022
           X            0.84609  -0.42268   0.32476
           Y            0.25435   0.85557   0.45089
           Z           -0.46844  -0.29889   0.83140
 This molecule is an asymmetric top.
 Rotational symmetry number  1.
 Warning -- assumption of classical behavior for rotation
           may cause significant error
 Rotational temperatures (Kelvin)      0.03382     0.01868     0.01203
 Rotational constants (GHZ):           0.70461     0.38915     0.25070
 Zero-point vibrational energy     486673.1 (Joules/Mol)
                                  116.31766 (Kcal/Mol)
 Warning -- explicit consideration of  21 degrees of freedom as
           vibrations may cause significant error
 Vibrational temperatures:     86.42   128.60   202.54   216.08   249.26
          (Kelvin)            307.60   350.95   473.01   495.43   537.97
                              574.65   596.75   616.99   625.77   634.32
                              678.33   708.40   742.45   762.41   846.72
                              868.10   920.91   953.06  1015.59  1025.96
                             1030.46  1093.88  1112.65  1135.14  1184.32
                             1259.71  1261.67  1268.30  1273.03  1310.70
                             1322.13  1408.09  1422.85  1442.76  1489.52
                             1543.71  1599.49  1654.92  1688.59  1713.26
                             1791.47  1812.61  1828.71  1836.33  1878.31
                             1888.50  1951.03  1983.81  2010.84  2058.59
                             2132.52  2132.89  2155.85  2169.88  2250.39
                             2279.29  2341.06  2344.46  2371.03  4268.35
                             4274.34  4551.68  4566.16  4571.43  4586.63
                             4596.19  4600.82

 Zero-point correction=                           0.185364 (Hartree/Particle)
 Thermal correction to Energy=                    0.198101
 Thermal correction to Enthalpy=                  0.199045
 Thermal correction to Gibbs Free Energy=         0.145782
 Sum of electronic and zero-point Energies=           -839.432799
 Sum of electronic and thermal Energies=              -839.420062
 Sum of electronic and thermal Enthalpies=            -839.419118
 Sum of electronic and thermal Free Energies=         -839.472380

                     E (Thermal)             CV                S
                      KCal/Mol        Cal/Mol-Kelvin    Cal/Mol-Kelvin
 Total                  124.310             52.810            112.101
 Electronic               0.000              0.000              1.377
 Translational            0.889              2.981             42.328
 Rotational               0.889              2.981             32.814
 Vibrational            122.533             46.848             35.581
 Vibration     1          0.597              1.973              4.455
 Vibration     2          0.602              1.957              3.674
 Vibration     3          0.615              1.913              2.793
 Vibration     4          0.618              1.902              2.670
 Vibration     5          0.627              1.875              2.400
 Vibration     6          0.644              1.820              2.011
 Vibration     7          0.659              1.773              1.774
 Vibration     8          0.712              1.618              1.266
 Vibration     9          0.723              1.587              1.192
 Vibration    10          0.745              1.526              1.064
 Vibration    11          0.765              1.471              0.965
 Vibration    12          0.778              1.438              0.910
 Vibration    13          0.790              1.407              0.862
 Vibration    14          0.796              1.394              0.843
 Vibration    15          0.801              1.381              0.824
 Vibration    16          0.828              1.313              0.733
 Vibration    17          0.848              1.267              0.678
 Vibration    18          0.871              1.214              0.619
 Vibration    19          0.885              1.184              0.587
 Vibration    20          0.946              1.056              0.470
 Vibration    21          0.962              1.025              0.444

 Optimization completed.
    -- Stationary point found.
 Normal termination of Gaussian 16 at Sat Feb 10 23:39:33 2024.
