 Gaussian 16, Revision A.03,
 Gaussian 16:  ES64L-G16RevA.03 25-Dec-2016

 ----------------------------------------------------------------------
 #P UB3LYP/6-311++G(d,p) nosym opt freq SCRF=(PCM,Solvent=n,n-DiMethylF
 ormamide)
 ----------------------------------------------------------------------

 --------
 Oxidized
 --------
 Symbolic Z-matrix:
 Charge =  0 Multiplicity = 1

 SCF Done:  E(UB3LYP) =  -725.084602160     A.U. after   15 cycles
 SCF Done:  E(UB3LYP) =  -725.084777362     A.U. after   11 cycles
 SCF Done:  E(UB3LYP) =  -725.084808237     A.U. after   11 cycles
 SCF Done:  E(UB3LYP) =  -725.084787861     A.U. after   11 cycles
 SCF Done:  E(UB3LYP) =  -725.084807484     A.U. after   10 cycles
 SCF Done:  E(UB3LYP) =  -725.084809364     A.U. after   10 cycles
 SCF Done:  E(UB3LYP) =  -725.084811069     A.U. after   10 cycles
 Optimization completed.
    -- Stationary point found.
 Normal termination of Gaussian 16 at Sun Feb 11 00:19:47 2024.

 ----------------------------------------------------------------------
 #P Geom=AllCheck Guess=TCheck SCRF=Check GenChk UB3LYP/6-311++G(d,p) F
 req
 ----------------------------------------------------------------------

 Structure from the checkpoint file:  "259.chk"
 --------
 Oxidized
 --------
 Charge =  0 Multiplicity = 1

                          Input orientation:
 ---------------------------------------------------------------------
 Center     Atomic      Atomic             Coordinates (Angstroms)
 Number     Number       Type             X           Y           Z
 ---------------------------------------------------------------------
      1          6           0       -1.220223    2.861239    0.018094
      2          6           0       -2.524202    2.363395    0.016514
      3          6           0       -2.748255    0.980875    0.015061
      4          6           0       -0.142987    1.976180    0.018177
      5          6           0       -0.358758    0.587838    0.016733
      6          6           0       -1.671607    0.107088    0.015174
      7          6           0        1.237806    2.530580    0.019812
      8          6           0        2.372714    1.538722    0.019829
      9          6           0        2.142071    0.204570    0.018405
     10          6           0        0.789606   -0.354547    0.016884
     11          8           0        1.463007    3.727353    0.021329
     12          8           0        0.619990   -1.574116    0.015388
     13          1           0       -1.031466    3.928628    0.019239
     14          1           0       -1.838005   -0.962697    0.014063
     15          8           0        3.563174    2.137890    0.021343
     16          8           0       -3.617385    3.169861    0.016301
     17          1           0       -3.766725    0.612065    0.013865
     18          1           0        2.947243   -0.517783    0.018353
     19          6           0        4.745626    1.319865    0.021564
     20          1           0       -3.355845    4.099232    0.017320
     21          1           0        5.580506    2.015502    0.022900
     22          1           0        4.778709    0.696537   -0.874816
     23          1           0        4.777215    0.694874    0.916839
 ---------------------------------------------------------------------

 SCF Done:  E(UB3LYP) =  -725.084811069     A.U. after    1 cycles

 Alpha  occ. eigenvalues --  -19.19015 -19.17722 -19.14517 -19.12576 -10.29485
 Alpha  occ. eigenvalues --  -10.28012 -10.27639 -10.26661 -10.23565 -10.21592
 Alpha  occ. eigenvalues --  -10.20470 -10.20245 -10.20235 -10.19841 -10.19781
 Alpha  occ. eigenvalues --   -1.11150  -1.08993  -1.07288  -1.05575  -0.89287
 Alpha  occ. eigenvalues --   -0.83729  -0.78592  -0.77623  -0.74642  -0.69213
 Alpha  occ. eigenvalues --   -0.66740  -0.63240  -0.60250  -0.58312  -0.55305
 Alpha  occ. eigenvalues --   -0.54368  -0.51258  -0.50431  -0.49692  -0.47238
 Alpha  occ. eigenvalues --   -0.46035  -0.45739  -0.45461  -0.45090  -0.44068
 Alpha  occ. eigenvalues --   -0.43180  -0.41952  -0.41619  -0.40052  -0.37607
 Alpha  occ. eigenvalues --   -0.37437  -0.36759  -0.35447  -0.29423  -0.28901
 Alpha  occ. eigenvalues --   -0.27926  -0.27404  -0.25411
 Alpha virt. eigenvalues --   -0.12452  -0.05594  -0.02321  -0.00847  -0.00127
 Alpha virt. eigenvalues --    0.00835   0.01541   0.02163   0.02228   0.03319
 Alpha virt. eigenvalues --    0.03661   0.04189   0.04704   0.05134   0.05661

  Beta  occ. eigenvalues --  -19.19015 -19.17722 -19.14517 -19.12576 -10.29485
  Beta  occ. eigenvalues --  -10.28012 -10.27639 -10.26661 -10.23565 -10.21592
  Beta  occ. eigenvalues --  -10.20470 -10.20245 -10.20235 -10.19841 -10.19781
  Beta  occ. eigenvalues --   -1.11150  -1.08993  -1.07288  -1.05575  -0.89287
  Beta  occ. eigenvalues --   -0.83729  -0.78592  -0.77623  -0.74642  -0.69213
  Beta  occ. eigenvalues --   -0.66740  -0.63240  -0.60250  -0.58312  -0.55305
  Beta  occ. eigenvalues --   -0.54368  -0.51258  -0.50431  -0.49692  -0.47238
  Beta  occ. eigenvalues --   -0.46035  -0.45739  -0.45461  -0.45090  -0.44068
  Beta  occ. eigenvalues --   -0.43180  -0.41952  -0.41619  -0.40052  -0.37607
  Beta  occ. eigenvalues --   -0.37437  -0.36759  -0.35447  -0.29423  -0.28901
  Beta  occ. eigenvalues --   -0.27926  -0.27404  -0.25411
  Beta virt. eigenvalues --   -0.12452  -0.05594  -0.02321  -0.00847  -0.00127
  Beta virt. eigenvalues --    0.00835   0.01541   0.02163   0.02228   0.03319
  Beta virt. eigenvalues --    0.03661   0.04189   0.04704   0.05134   0.05661

 Mulliken charges and spin densities:
               1          2
     1  C    0.396036  -0.000000
     2  C   -0.562265  -0.000000
     3  C   -0.133385   0.000000
     4  C    0.639646  -0.000000
     5  C    0.020475   0.000000
     6  C    0.245505   0.000000
     7  C   -0.746284  -0.000000
     8  C   -0.342522  -0.000000
     9  C    0.525171   0.000000
    10  C   -0.388180   0.000000
    11  O   -0.276101  -0.000000
    12  O   -0.329123   0.000000
    13  H    0.168857  -0.000000
    14  H    0.190174   0.000000
    15  O   -0.164591   0.000000
    16  O   -0.250856   0.000000
    17  H    0.228675  -0.000000
    18  H    0.238193   0.000000
    19  C   -0.338191  -0.000000
    20  H    0.311756   0.000000
    21  H    0.207283   0.000000
    22  H    0.179862   0.000000
    23  H    0.179866   0.000000
 Sum of Mulliken charges =  -0.00000   0.00000

 Dipole moment (field-independent basis, Debye):
    X=              0.9654    Y=              1.6579    Z=              0.0022  Tot=              1.9185
 Quadrupole moment (field-independent basis, Debye-Ang):
   XX=            -63.4080   YY=            -94.0981   ZZ=            -86.8986
   XY=             -9.8744   XZ=              0.0260   YZ=              0.0094

  Exact polarizability: 262.081   2.130 254.702   0.140   0.149  98.627
 Approx polarizability: 281.803  13.457 342.522   0.154   0.229 115.032

                      1                      2                      3
                      A                      A                      A
 Frequencies --     37.2894                94.6049               117.3914
 Red. masses --      6.0062                 5.2770                 4.8415
 Frc consts  --      0.0049                 0.0278                 0.0393
 IR Inten    --     10.4501                 0.0474                 0.9973

                      4                      5                      6
                      A                      A                      A
 Frequencies --    151.6421               159.5346               180.1528
 Red. masses --      4.8329                 2.8673                 4.3535
 Frc consts  --      0.0655                 0.0430                 0.0832
 IR Inten    --      9.7445                 1.9275                 4.6004

                      7                      8                      9
                      A                      A                      A
 Frequencies --    236.6458               237.4836               288.4823
 Red. masses --      1.3559                 5.6294                 4.8608
 Frc consts  --      0.0447                 0.1871                 0.2383
 IR Inten    --      1.6308                 3.6715                 0.2696

                     10                     11                     12
                      A                      A                      A
 Frequencies --    327.5027               354.1057               374.2272
 Red. masses --      6.3863                 8.9355                 1.1142
 Frc consts  --      0.4036                 0.6601                 0.0919
 IR Inten    --      0.5180                22.8445               176.2400

                     13                     14                     15
                      A                      A                      A
 Frequencies --    403.9568               415.5525               451.4778
 Red. masses --      6.8877                 3.8654                 8.1121
 Frc consts  --      0.6622                 0.3933                 0.9742
 IR Inten    --     12.6883                 0.0003                 7.8055

                     16                     17                     18
                      A                      A                      A
 Frequencies --    469.5146               474.7376               519.9014
 Red. masses --      6.1852                 3.9441                 7.3900
 Frc consts  --      0.8033                 0.5237                 1.1769
 IR Inten    --     56.1742                13.0572                 6.4667

                     19                     20                     21
                      A                      A                      A
 Frequencies --    558.8244               670.9683               671.0887
 Red. masses --      4.8885                 7.2656                 3.2965
 Frc consts  --      0.8995                 1.9272                 0.8747
 IR Inten    --      1.0941                 1.5684                 8.7040

                     22                     23                     24
                      A                      A                      A
 Frequencies --    684.7842               706.7260               742.5497
 Red. masses --      6.5092                 5.9584                 5.1878
 Frc consts  --      1.7984                 1.7534                 1.6853
 IR Inten    --     15.9427                 7.9330                 2.6225

                     25                     26                     27
                      A                      A                      A
 Frequencies --    770.0155               800.4527               852.7656
 Red. masses --      5.4243                 7.7592                 1.4184
 Frc consts  --      1.8949                 2.9291                 0.6077
 IR Inten    --     10.1264                 7.2512               109.3637

                     28                     29                     30
                      A                      A                      A
 Frequencies --    867.1942               889.7447               894.9120
 Red. masses --      1.5502                 4.7749                 1.5364
 Frc consts  --      0.6869                 2.2271                 0.7250
 IR Inten    --     11.9653                85.3752                13.6398

                     31                     32                     33
                      A                      A                      A
 Frequencies --    972.6197               993.9044              1054.6582
 Red. masses --      4.9190                 1.3310                 3.2807
 Frc consts  --      2.7417                 0.7747                 2.1500
 IR Inten    --     42.6020                 0.8126               182.0309

                     34                     35                     36
                      A                      A                      A
 Frequencies --   1103.3042              1139.4713              1166.9890
 Red. masses --      3.0457                 1.7346                 1.2765
 Frc consts  --      2.1844                 1.3270                 1.0242
 IR Inten    --     70.7112                30.3664                 1.3414

                     37                     38                     39
                      A                      A                      A
 Frequencies --   1186.7851              1189.2915              1207.9656
 Red. masses --      1.8015                 1.4688                 1.6244
 Frc consts  --      1.4949                 1.2240                 1.3965
 IR Inten    --    129.9228               383.6512                73.8227

                     40                     41                     42
                      A                      A                      A
 Frequencies --   1251.6964              1260.0565              1312.9487
 Red. masses --      1.8416                 2.7868                 4.3286
 Frc consts  --      1.6999                 2.6070                 4.3963
 IR Inten    --    137.7865               657.1828               583.5088

                     43                     44                     45
                      A                      A                      A
 Frequencies --   1325.8549              1366.9539              1384.5553
 Red. masses --      2.7709                 2.8342                 5.2525
 Frc consts  --      2.8699                 3.1202                 5.9324
 IR Inten    --    145.3998                91.2023                 9.5681

                     46                     47                     48
                      A                      A                      A
 Frequencies --   1470.4589              1473.5600              1485.1952
 Red. masses --      2.8653                 1.3418                 1.0427
 Frc consts  --      3.6503                 1.7166                 1.3552
 IR Inten    --     38.3286                21.2726                18.2162

                     49                     50                     51
                      A                      A                      A
 Frequencies --   1490.4998              1519.1712              1608.2744
 Red. masses --      1.0535                 3.2616                 6.6664
 Frc consts  --      1.3789                 4.4351                10.1592
 IR Inten    --     29.5739                43.2348               500.0483

                     52                     53                     54
                      A                      A                      A
 Frequencies --   1618.0597              1644.1239              1667.6377
 Red. masses --      6.2572                 7.4836                10.4759
 Frc consts  --      9.6520                11.9187                17.1650
 IR Inten    --    333.7034               641.9454               374.0936

                     55                     56                     57
                      A                      A                      A
 Frequencies --   1720.7303              3035.3836              3108.2839
 Red. masses --     12.5633                 1.0320                 1.1079
 Frc consts  --     21.9169                 5.6022                 6.3064
 IR Inten    --    390.7524                38.2293                27.2298

                     58                     59                     60
                      A                      A                      A
 Frequencies --   3163.4674              3189.0995              3191.8965
 Red. masses --      1.1031                 1.0907                 1.0890
 Frc consts  --      6.5040                 6.5359                 6.5368
 IR Inten    --     16.8244                 9.9603                 1.5269

                     61                     62                     63
                      A                      A                      A
 Frequencies --   3205.0869              3210.8949              3806.7654
 Red. masses --      1.0947                 1.0910                 1.0663
 Frc consts  --      6.6254                 6.6273                 9.1044
 IR Inten    --      7.1869                 2.9654               180.7161

 - Thermochemistry -
 -------------------
 Temperature   298.150 Kelvin.  Pressure   1.00000 Atm.
 Atom     1 has atomic number  6 and mass  12.00000

 Molecular mass:   204.04226 amu.
 Principal axes and moments of inertia in atomic units:
                           1         2         3
     Eigenvalues --  1577.120144270.646785836.21398
           X            0.99223   0.12442  -0.00083
           Y           -0.12442   0.99223  -0.00094
           Z            0.00071   0.00104   1.00000
 This molecule is an asymmetric top.
 Rotational symmetry number  1.
 Warning -- assumption of classical behavior for rotation
           may cause significant error
 Rotational temperatures (Kelvin)      0.05492     0.02028     0.01484
 Rotational constants (GHZ):           1.14433     0.42259     0.30923
 Zero-point vibrational energy     442198.8 (Joules/Mol)
                                  105.68806 (Kcal/Mol)
 Warning -- explicit consideration of  19 degrees of freedom as
           vibrations may cause significant error
 Vibrational temperatures:     53.65   136.12   168.90   218.18   229.53
          (Kelvin)            259.20   340.48   341.69   415.06   471.20
                              509.48   538.43   581.20   597.89   649.58
                              675.53   683.04   748.02   804.02   965.37
                              965.55   985.25  1016.82  1068.36  1107.88
                             1151.67  1226.94  1247.70  1280.14  1287.58
                             1399.38  1430.01  1517.42  1587.41  1639.45
                             1679.04  1707.52  1711.13  1737.99  1800.91
                             1812.94  1889.04  1907.61  1966.74  1992.07
                             2115.66  2120.12  2136.86  2144.50  2185.75
                             2313.95  2328.03  2365.53  2399.36  2475.75
                             4367.24  4472.13  4551.52  4588.40  4592.43
                             4611.41  4619.76  5477.09

 Zero-point correction=                           0.168425 (Hartree/Particle)
 Thermal correction to Energy=                    0.181003
 Thermal correction to Enthalpy=                  0.181947
 Thermal correction to Gibbs Free Energy=         0.129293
 Sum of electronic and zero-point Energies=           -724.916386
 Sum of electronic and thermal Energies=              -724.903808
 Sum of electronic and thermal Enthalpies=            -724.902864
 Sum of electronic and thermal Free Energies=         -724.955518

                     E (Thermal)             CV                S
                      KCal/Mol        Cal/Mol-Kelvin    Cal/Mol-Kelvin
 Total                  113.581             48.309            110.820
 Electronic               0.000              0.000              0.000
 Translational            0.889              2.981             41.844
 Rotational               0.889              2.981             32.042
 Vibrational            111.803             42.347             36.935
 Vibration     1          0.594              1.982              5.398
 Vibration     2          0.603              1.953              3.563
 Vibration     3          0.608              1.935              3.143
 Vibration     4          0.619              1.901              2.652
 Vibration     5          0.621              1.892              2.555
 Vibration     6          0.629              1.867              2.327
 Vibration     7          0.656              1.785              1.828
 Vibration     8          0.656              1.783              1.822
 Vibration     9          0.685              1.695              1.483
 Vibration    10          0.711              1.621              1.272
 Vibration    11          0.730              1.567              1.148
 Vibration    12          0.745              1.525              1.062
 Vibration    13          0.769              1.462              0.948
 Vibration    14          0.779              1.436              0.907
 Vibration    15          0.810              1.358              0.791
 Vibration    16          0.827              1.318              0.739
 Vibration    17          0.831              1.306              0.724
 Vibration    18          0.875              1.206              0.610
 Vibration    19          0.914              1.120              0.526

 Optimization completed.
    -- Stationary point found.
 Normal termination of Gaussian 16 at Sun Feb 11 00:58:37 2024.
