 Q-Chem 5.4, Q-Chem, Inc., Pleasanton, CA (2021)
 Q-Chem 5.4.0 for Intel X86 EM64T Linux

User input:
--------------------------------------------------------------
$molecule
-1 2
C                  5.9117960000     -5.2136080000      1.1147220000
C                  6.8012240000     -5.0846130000      0.0684980000
C                  6.5894540000     -4.0983930000     -0.9180500000
C                  4.7895350000     -4.3741200000      1.2171450000
C                  4.5764180000     -3.3815320000      0.2242530000
C                  5.4934400000     -3.2653140000     -0.8341680000
C                  3.8606920000     -4.5425450000      2.3512110000
C                  2.7443290000     -3.6362940000      2.3633710000
C                  2.5375940000     -2.6734130000      1.4002220000
C                  3.4160840000     -2.4717160000      0.2798250000
O                  4.0449130000     -5.4223190000      3.2324820000
O                  3.2224710000     -1.5916660000     -0.5991630000
H                  6.0578720000     -5.9645650000      1.8812070000
H                  5.3143720000     -2.5025600000     -1.5817630000
Cl                 7.7096270000     -3.9076950000     -2.2696900000
Cl                 8.1946390000     -6.1664370000     -0.0102170000
H                  2.0490150000     -3.7468870000      3.1906950000
H                  1.6767740000     -2.0131220000      1.4564700000
$end
$rem
MAX_SCF_CYCLES=200
BASIS  =  6-311++G(d,p)
GUI  =  2
JOB_TYPE  =  SP
METHOD  =  B3LYP
SOLVENT_METHOD = PCM
$end
$pcm
theory = CPCM
$end
$solvent
dielectric 37.219
opticaldielectric 1.43
$end

--------------------------------------------------------------

             Standard Nuclear Orientation (Angstroms)
    I     Atom           X                Y                Z
 ----------------------------------------------------------------
    1      C       5.9117960000    -5.2136080000     1.1147220000
    2      C       6.8012240000    -5.0846130000     0.0684980000
    3      C       6.5894540000    -4.0983930000    -0.9180500000
    4      C       4.7895350000    -4.3741200000     1.2171450000
    5      C       4.5764180000    -3.3815320000     0.2242530000
    6      C       5.4934400000    -3.2653140000    -0.8341680000
    7      C       3.8606920000    -4.5425450000     2.3512110000
    8      C       2.7443290000    -3.6362940000     2.3633710000
    9      C       2.5375940000    -2.6734130000     1.4002220000
   10      C       3.4160840000    -2.4717160000     0.2798250000
   11      O       4.0449130000    -5.4223190000     3.2324820000
   12      O       3.2224710000    -1.5916660000    -0.5991630000
   13      H       6.0578720000    -5.9645650000     1.8812070000
   14      H       5.3143720000    -2.5025600000    -1.5817630000
   15      Cl      7.7096270000    -3.9076950000    -2.2696900000
   16      Cl      8.1946390000    -6.1664370000    -0.0102170000
   17      H       2.0490150000    -3.7468870000     3.1906950000
   18      H       1.6767740000    -2.0131220000     1.4564700000
 ----------------------------------------------------------------

    9   -1454.6582141378      4.34e-06  Convergence criterion met
 Total energy in the final basis set =    -1454.6582141378

                    Orbital Energies (a.u.)
 --------------------------------------------------------------

 Alpha MOs
 -- Occupied --
********-101.5639 -19.0852 -19.0852 -10.2512 -10.2507 -10.2303 -10.2303
-10.1908 -10.1908 -10.1881 -10.1876 -10.1693 -10.1687  -9.4783  -9.4782
 -7.2429  -7.2429  -7.2332  -7.2332  -7.2327  -7.2327  -1.0103  -1.0079
 -0.9171  -0.8626  -0.8516  -0.8017  -0.7612  -0.7365  -0.6829  -0.6342
 -0.6162  -0.5742  -0.5151  -0.5085  -0.4917  -0.4632  -0.4456  -0.4373
 -0.4338  -0.4315  -0.4116  -0.4040  -0.4035  -0.3867  -0.3696  -0.3643
 -0.3543  -0.3368  -0.3305  -0.3172  -0.2836  -0.2666  -0.2540  -0.2540
 -0.2471  -0.1626

 Beta MOs
 -- Occupied --
********-101.5639 -19.0789 -19.0789 -10.2508 -10.2504 -10.2288 -10.2288
-10.1908 -10.1908 -10.1875 -10.1871 -10.1678 -10.1672  -9.4782  -9.4782
 -7.2429  -7.2429  -7.2331  -7.2331  -7.2327  -7.2327  -0.9994  -0.9967
 -0.9164  -0.8622  -0.8491  -0.7970  -0.7596  -0.7345  -0.6731  -0.6332
 -0.6129  -0.5711  -0.5139  -0.5060  -0.4885  -0.4618  -0.4452  -0.4344
 -0.4283  -0.4269  -0.4067  -0.4019  -0.3912  -0.3674  -0.3624  -0.3621
 -0.3510  -0.3367  -0.3237  -0.3171  -0.2607  -0.2555  -0.2488  -0.2481
 -0.2414

          Ground-State Mulliken Net Atomic Charges

     Atom                 Charge (a.u.)    Spin (a.u.)
  --------------------------------------------------------
      1 C                    -0.724656       0.033790
      2 C                     0.676061       0.017278
      3 C                     0.674330       0.017270
      4 C                    -0.332861       0.019858
      5 C                    -0.333505       0.019826
      6 C                    -0.726108       0.033794
      7 C                    -0.656156       0.089756
      8 C                     0.053520       0.121401
      9 C                     0.052848       0.121482
     10 C                    -0.653892       0.089708
     11 O                    -0.497238       0.227807
     12 O                    -0.497517       0.227838
     13 H                     0.228434      -0.002360
     14 H                     0.228838      -0.002357
     15 Cl                    0.550808       0.002360
     16 Cl                    0.550030       0.002372
     17 H                     0.203556      -0.009910
     18 H                     0.203509      -0.009911
  --------------------------------------------------------
  Sum of atomic charges =    -1.000000

                    Cartesian Multipole Moments
 -----------------------------------------------------------------
    Charge (ESU x 10^10)
                -4.8032
    Dipole Moment (Debye)
         X     -21.1919      Y      18.1726      Z      -4.1978
       Tot      28.2305
    Quadrupole Moments (Debye-Ang)
        XX    -203.5940     XY      87.9254     YY    -186.2500
        XZ     -16.0749     YZ      31.5170     ZZ    -123.3483

 Total job time:  45.93s(wall), 219.43s(cpu)
        *  Thank you very much for using Q-Chem.  Have a nice day.  *
