 Gaussian 16, Revision A.03,
 Gaussian 16:  ES64L-G16RevA.03 25-Dec-2016

 --------------------------------------
 #P UB3LYP/6-311++G(d,p) nosym opt freq
 --------------------------------------

 -------
 Radical
 -------
 Symbolic Z-matrix:
 Charge = -1 Multiplicity = 2

 SCF Done:  E(UB3LYP) =  -1454.58449657     A.U. after   23 cycles
 SCF Done:  E(UB3LYP) =  -1454.58449602     A.U. after   12 cycles
 Optimization completed.
    -- Stationary point found.
 Normal termination of Gaussian 16 at Sun Jan  7 20:19:08 2024.

 ----------------------------------------------------------------------
 #P Geom=AllCheck Guess=TCheck SCRF=Check GenChk UB3LYP/6-311++G(d,p) F
 req
 ----------------------------------------------------------------------

 Structure from the checkpoint file:  "232-rad.chk"
 -------
 Radical
 -------
 Charge = -1 Multiplicity = 2

                          Input orientation:
 ---------------------------------------------------------------------
 Center     Atomic      Atomic             Coordinates (Angstroms)
 Number     Number       Type             X           Y           Z
 ---------------------------------------------------------------------
      1          6           0        5.911796   -5.213608    1.114722
      2          6           0        6.801224   -5.084613    0.068498
      3          6           0        6.589454   -4.098393   -0.918050
      4          6           0        4.789535   -4.374120    1.217145
      5          6           0        4.576418   -3.381532    0.224253
      6          6           0        5.493440   -3.265314   -0.834168
      7          6           0        3.860692   -4.542545    2.351211
      8          6           0        2.744329   -3.636294    2.363371
      9          6           0        2.537594   -2.673413    1.400222
     10          6           0        3.416084   -2.471716    0.279825
     11          8           0        4.044913   -5.422319    3.232482
     12          8           0        3.222471   -1.591666   -0.599163
     13          1           0        6.057872   -5.964565    1.881207
     14          1           0        5.314372   -2.502560   -1.581763
     15         17           0        7.709627   -3.907695   -2.269690
     16         17           0        8.194639   -6.166437   -0.010217
     17          1           0        2.049015   -3.746887    3.190695
     18          1           0        1.676774   -2.013122    1.456470
 ---------------------------------------------------------------------

 SCF Done:  E(UB3LYP) =  -1454.58449602     A.U. after    1 cycles

 Alpha  occ. eigenvalues -- -101.45536-101.45536 -18.95338 -18.95337 -10.13621
 Alpha  occ. eigenvalues --  -10.13574 -10.10171 -10.10170 -10.07401 -10.07399
 Alpha  occ. eigenvalues --  -10.06671 -10.06626 -10.04721 -10.04660  -9.36996
 Alpha  occ. eigenvalues --   -9.36995  -7.13443  -7.13443  -7.12493  -7.12493
 Alpha  occ. eigenvalues --   -7.12448  -7.12447  -0.87815  -0.87539  -0.80446
 Alpha  occ. eigenvalues --   -0.75340  -0.73354  -0.68092  -0.64332  -0.61874
 Alpha  occ. eigenvalues --   -0.55824  -0.51735  -0.49617  -0.45370  -0.39648
 Alpha  occ. eigenvalues --   -0.39086  -0.37065  -0.34357  -0.32886  -0.31488
 Alpha  occ. eigenvalues --   -0.31372  -0.31312  -0.28286  -0.28235  -0.28097
 Alpha  occ. eigenvalues --   -0.25581  -0.24791  -0.24449  -0.24111  -0.22738
 Alpha  occ. eigenvalues --   -0.21373  -0.20908  -0.15597  -0.14884  -0.13730
 Alpha  occ. eigenvalues --   -0.12056  -0.11502  -0.03417
 Alpha virt. eigenvalues --    0.07035   0.08496   0.08804   0.09693   0.10591
 Alpha virt. eigenvalues --    0.10908   0.12038   0.13188   0.13994   0.15192
 Alpha virt. eigenvalues --    0.15237   0.16153   0.16405   0.16631   0.17235

  Beta  occ. eigenvalues -- -101.45534-101.45534 -18.94645 -18.94644 -10.13577
  Beta  occ. eigenvalues --  -10.13529 -10.10067 -10.10066 -10.07412 -10.07411
  Beta  occ. eigenvalues --  -10.06596 -10.06550 -10.04573 -10.04511  -9.36994
  Beta  occ. eigenvalues --   -9.36993  -7.13444  -7.13444  -7.12486  -7.12485
  Beta  occ. eigenvalues --   -7.12447  -7.12447  -0.86647  -0.86328  -0.80371
  Beta  occ. eigenvalues --   -0.75303  -0.73120  -0.67610  -0.64190  -0.61665
  Beta  occ. eigenvalues --   -0.54886  -0.51648  -0.49279  -0.45091  -0.39546
  Beta  occ. eigenvalues --   -0.38859  -0.36815  -0.34137  -0.32856  -0.31134
  Beta  occ. eigenvalues --   -0.31101  -0.31060  -0.28132  -0.27402  -0.26885
  Beta  occ. eigenvalues --   -0.24664  -0.24581  -0.23810  -0.22691  -0.22643
  Beta  occ. eigenvalues --   -0.20889  -0.20678  -0.14290  -0.13144  -0.12453
  Beta  occ. eigenvalues --   -0.11404  -0.10863
  Beta virt. eigenvalues --    0.03373   0.07580   0.08526   0.09705   0.10020
  Beta virt. eigenvalues --    0.10602   0.10916   0.12060   0.13204   0.14015
  Beta virt. eigenvalues --    0.15254   0.15343   0.16330   0.16655   0.16957

 Mulliken charges and spin densities:
               1          2
     1  C   -0.762361   0.021171
     2  C    0.767416   0.020947
     3  C    0.767353   0.020947
     4  C   -0.317049   0.039118
     5  C   -0.316859   0.039117
     6  C   -0.762366   0.021169
     7  C   -0.850071   0.052361
     8  C    0.153509   0.124663
     9  C    0.153634   0.124669
    10  C   -0.850062   0.052361
    11  O   -0.393857   0.252340
    12  O   -0.393868   0.252339
    13  H    0.213088  -0.002261
    14  H    0.213077  -0.002261
    15  Cl   0.536947   0.001855
    16  Cl   0.536903   0.001856
    17  H    0.152285  -0.010195
    18  H    0.152281  -0.010195
 Sum of Mulliken charges =  -1.00000   1.00000

 Dipole moment (field-independent basis, Debye):
    X=            -22.3246    Y=             18.5707    Z=             -3.5532  Tot=             29.2555
 Quadrupole moment (field-independent basis, Debye-Ang):
   XX=           -219.5040   YY=           -188.7700   ZZ=           -122.8741
   XY=             95.6825   XZ=            -10.6533   YZ=             26.8221

  Exact polarizability: 195.871 -52.215 152.315 -51.675 -34.798 174.632
 Approx polarizability: 287.137 -79.969 260.823 -63.905 -83.857 291.758

                      1                      2                      3
                      A                      A                      A
 Frequencies --     60.2321                93.1846               131.7090
 Red. masses --     20.7718                 5.7464                13.0225
 Frc consts  --      0.0444                 0.0294                 0.1331
 IR Inten    --      0.0000                 2.7849                 8.8091

                      4                      5                      6
                      A                      A                      A
 Frequencies --    171.4837               195.2427               214.0511
 Red. masses --     13.7781                30.9005                 5.9841
 Frc consts  --      0.2387                 0.6940                 0.1615
 IR Inten    --      0.1173                 0.6270                 0.0000

                      7                      8                      9
                      A                      A                      A
 Frequencies --    297.8285               298.4603               305.1348
 Red. masses --     17.8308                16.7394                 8.3651
 Frc consts  --      0.9319                 0.8785                 0.4589
 IR Inten    --      0.4514                 1.2622                 0.2557

                     10                     11                     12
                      A                      A                      A
 Frequencies --    338.4945               437.5646               443.0217
 Red. masses --      4.9759                 3.3614                11.1983
 Frc consts  --      0.3359                 0.3792                 1.2950
 IR Inten    --      0.0000                 5.1016                18.6685

                     13                     14                     15
                      A                      A                      A
 Frequencies --    455.7910               481.6536               540.8908
 Red. masses --      8.1324                12.2345                 7.9667
 Frc consts  --      0.9954                 1.6723                 1.3732
 IR Inten    --      2.3242                 6.7333                 3.6968

                     16                     17                     18
                      A                      A                      A
 Frequencies --    548.2993               618.0098               629.8214
 Red. masses --      7.5505                 4.4580                 2.3676
 Frc consts  --      1.3374                 1.0032                 0.5533
 IR Inten    --      0.0011                 2.0179                 1.4774

                     19                     20                     21
                      A                      A                      A
 Frequencies --    642.6176               648.8175               727.4928
 Red. masses --      5.6212                 7.4858                 6.7887
 Frc consts  --      1.3677                 1.8567                 2.1169
 IR Inten    --      0.0002                56.4164                 0.0206

                     22                     23                     24
                      A                      A                      A
 Frequencies --    781.7072               788.3130               830.0349
 Red. masses --      5.7394                 7.3067                 1.8759
 Frc consts  --      2.0664                 2.6753                 0.7615
 IR Inten    --      0.0003                43.3145                50.5893

                     25                     26                     27
                      A                      A                      A
 Frequencies --    877.9983               911.3842               935.4683
 Red. masses --      7.7303                 1.3715                 1.4157
 Frc consts  --      3.5110                 0.6712                 0.7299
 IR Inten    --     66.4491                 0.0000                19.6974

                     28                     29                     30
                      A                      A                      A
 Frequencies --    938.2816              1061.3437              1089.0871
 Red. masses --      1.2810                 2.1860                 4.9880
 Frc consts  --      0.6645                 1.4508                 3.4858
 IR Inten    --      0.0000                 3.6803                10.3501

                     31                     32                     33
                      A                      A                      A
 Frequencies --   1106.8239              1171.9197              1216.3891
 Red. masses --      1.6559                 2.6087                 3.4093
 Frc consts  --      1.1952                 2.1109                 2.9721
 IR Inten    --     19.4256                29.9511                17.7249

                     34                     35                     36
                      A                      A                      A
 Frequencies --   1228.5504              1256.8469              1341.8410
 Red. masses --      1.2775                 3.0451                10.3330
 Frc consts  --      1.1360                 2.8341                10.9618
 IR Inten    --      4.6182                22.9810                 3.5053

                     37                     38                     39
                      A                      A                      A
 Frequencies --   1378.1283              1427.8457              1445.5830
 Red. masses --      2.7242                 6.6081                 2.9066
 Frc consts  --      3.0484                 7.9376                 3.5786
 IR Inten    --      0.0013                81.1454               147.9201

                     40                     41                     42
                      A                      A                      A
 Frequencies --   1496.5443              1525.8966              1528.0972
 Red. masses --      8.3627                 8.9766                 6.6580
 Frc consts  --     11.0350                12.3144                 9.1601
 IR Inten    --      0.3656                47.3532               579.3225

                     43                     44                     45
                      A                      A                      A
 Frequencies --   1605.7580              1622.1517              3138.5224
 Red. masses --      7.5888                 8.1173                 1.0852
 Frc consts  --     11.5288                12.5847                 6.2984
 IR Inten    --     26.1964                17.9131                20.2857

                     46                     47                     48
                      A                      A                      A
 Frequencies --   3159.3989              3195.8162              3197.5455
 Red. masses --      1.0936                 1.0900                 1.0904
 Frc consts  --      6.4316                 6.5590                 6.5687
 IR Inten    --     41.9408                 0.5385                 8.9307

 - Thermochemistry -
 -------------------
 Temperature   298.150 Kelvin.  Pressure   1.00000 Atm.
 Atom     1 has atomic number  6 and mass  12.00000

 Molecular mass:   225.95883 amu.
 Principal axes and moments of inertia in atomic units:
                           1         2         3
     Eigenvalues --  2045.938744602.326206648.26449
           X            0.83064   0.15009   0.53620
           Y           -0.29440  -0.69900   0.65171
           Z           -0.47262   0.69919   0.53643
 This molecule is an asymmetric top.
 Rotational symmetry number  1.
 Warning -- assumption of classical behavior for rotation
           may cause significant error
 Rotational temperatures (Kelvin)      0.04233     0.01882     0.01303
 Rotational constants (GHZ):           0.88211     0.39214     0.27146
 Zero-point vibrational energy     290316.2 (Joules/Mol)
                                   69.38724 (Kcal/Mol)
 Warning -- explicit consideration of  17 degrees of freedom as
           vibrations may cause significant error
 Vibrational temperatures:     86.66   134.07   189.50   246.73   280.91
          (Kelvin)            307.97   428.51   429.42   439.02   487.02
                              629.56   637.41   655.78   692.99   778.22
                              788.88   889.18   906.17   924.58   933.50
                             1046.70  1124.70  1134.21  1194.24  1263.24
                             1311.28  1345.93  1349.98  1527.04  1566.95
                             1592.47  1686.13  1750.11  1767.61  1808.32
                             1930.61  1982.82  2054.35  2079.87  2153.19
                             2195.42  2198.59  2310.33  2333.91  4515.63
                             4545.67  4598.07  4600.55

 Zero-point correction=                           0.110576 (Hartree/Particle)
 Thermal correction to Energy=                    0.121722
 Thermal correction to Enthalpy=                  0.122666
 Thermal correction to Gibbs Free Energy=         0.071931
 Sum of electronic and zero-point Energies=          -1454.473920
 Sum of electronic and thermal Energies=             -1454.462774
 Sum of electronic and thermal Enthalpies=           -1454.461830
 Sum of electronic and thermal Free Energies=        -1454.512566

                     E (Thermal)             CV                S
                      KCal/Mol        Cal/Mol-Kelvin    Cal/Mol-Kelvin
 Total                   76.382             42.560            106.782
 Electronic               0.000              0.000              1.377
 Translational            0.889              2.981             42.148
 Rotational               0.889              2.981             32.504
 Vibrational             74.604             36.599             30.753
 Vibration     1          0.597              1.973              4.450
 Vibration     2          0.602              1.954              3.592
 Vibration     3          0.612              1.922              2.921
 Vibration     4          0.626              1.878              2.419
 Vibration     5          0.636              1.847              2.177
 Vibration     6          0.644              1.820              2.009
 Vibration     7          0.691              1.678              1.429
 Vibration     8          0.692              1.677              1.426
 Vibration     9          0.696              1.664              1.389
 Vibration    10          0.719              1.599              1.219
 Vibration    11          0.798              1.388              0.834
 Vibration    12          0.803              1.376              0.817
 Vibration    13          0.814              1.348              0.778
 Vibration    14          0.838              1.291              0.706
 Vibration    15          0.896              1.160              0.563
 Vibration    16          0.904              1.143              0.548
 Vibration    17          0.978              0.994              0.420

 Optimization completed.
    -- Stationary point found.
 Normal termination of Gaussian 16 at Sun Jan  7 20:44:30 2024.
