 Gaussian 16, Revision A.03,
 Gaussian 16:  ES64L-G16RevA.03 25-Dec-2016

 ----------------------------------------------------------------
 #P UB3LYP/6-311++G(d,p) SCRF=(PCM,Solvent=n,n-DiMethylFormamide)
 ----------------------------------------------------------------

 ------------------
 Radical PCM in DMF
 ------------------
 Symbolic Z-matrix:
 Charge = -1 Multiplicity = 2

                         Standard orientation:
 ---------------------------------------------------------------------
 Center     Atomic      Atomic             Coordinates (Angstroms)
 Number     Number       Type             X           Y           Z
 ---------------------------------------------------------------------
      1          6           0        3.513384   -1.734007    0.105179
      2          6           0        4.811408   -1.274794    0.201903
      3          6           0        5.068620    0.114035    0.215158
      4          6           0        2.424090   -0.838473    0.018432
      5          6           0        2.683825    0.563140    0.031772
      6          6           0        4.020260    1.008322    0.131353
      7          6           0        1.065919   -1.375119   -0.082684
      8          6           0       -0.007831   -0.386049   -0.166181
      9          6           0        0.248803    1.015864   -0.153566
     10          6           0        1.606752    1.552973   -0.055456
     11          6           0       -1.343037   -0.836129   -0.270987
     12          6           0       -2.368986    0.069107   -0.355782
     13          6           0       -2.140707    1.457410   -0.347980
     14          6           0       -0.841463    1.908626   -0.245143
     15          8           0        0.833644   -2.610388   -0.098207
     16          8           0        1.834470    2.787520   -0.048463
     17          1           0        4.187590    2.079285    0.139322
     18          1           0       -0.618804    2.969127   -0.233383
     19          1           0        3.287055   -2.793996    0.092972
     20          1           0       -1.528416   -1.903000   -0.291765
     21          1           0       -2.973224    2.147313   -0.413083
     22          1           0        6.089680    0.475991    0.291540
     23          8           0       -3.676950   -0.436336   -0.563687
     24          6           0       -4.653228   -0.214129    0.345501
     25          6           0       -5.934704   -0.876569   -0.109272
     26          8           0       -4.525389    0.411145    1.367004
     27          1           0        5.635253   -1.979395    0.267992
     28          1           0       -5.787885   -1.957940   -0.166810
     29          1           0       -6.204122   -0.529536   -1.109250
     30          1           0       -6.731953   -0.648625    0.595812
 ---------------------------------------------------------------------

 SCF Done:  E(UB3LYP) =  -917.044918734     A.U. after   18 cycles

 The electronic state is 2-A.
 Alpha  occ. eigenvalues --  -19.18481 -19.12698 -19.07853 -19.07801 -10.31897
 Alpha  occ. eigenvalues --  -10.24166 -10.22718 -10.22587 -10.18168 -10.18083
 Alpha  occ. eigenvalues --  -10.17974 -10.17846 -10.17763 -10.17644 -10.17495
 Alpha  occ. eigenvalues --  -10.17445 -10.17433 -10.17381 -10.17125 -10.17109
 Alpha  occ. eigenvalues --   -1.12404  -1.04256  -1.00610  -1.00340  -0.86864
 Alpha  occ. eigenvalues --   -0.85557  -0.79533  -0.77082  -0.75548  -0.75169
 Alpha  occ. eigenvalues --   -0.73549  -0.67596  -0.65244  -0.63447  -0.59832
 Alpha  occ. eigenvalues --   -0.59054  -0.55914  -0.53665  -0.51738  -0.50197
 Alpha  occ. eigenvalues --   -0.49242  -0.49153  -0.47379  -0.46214  -0.45885
 Alpha  occ. eigenvalues --   -0.43700  -0.42858  -0.42616  -0.42338  -0.41878
 Alpha  occ. eigenvalues --   -0.41580  -0.41474  -0.40458  -0.39161  -0.38631
 Alpha  occ. eigenvalues --   -0.38311  -0.36923  -0.35906  -0.35362  -0.34351
 Alpha  occ. eigenvalues --   -0.33753  -0.32819  -0.29751  -0.26989  -0.26309
 Alpha  occ. eigenvalues --   -0.25804  -0.24966  -0.24929  -0.24000  -0.14438
 Alpha virt. eigenvalues --   -0.05730  -0.02607  -0.01160  -0.00499  -0.00354
 Alpha virt. eigenvalues --    0.00096   0.01137   0.01581   0.02285   0.03232
 Alpha virt. eigenvalues --    0.03463   0.03964   0.04344   0.04555   0.04995

  Beta  occ. eigenvalues --  -19.18478 -19.12699 -19.07313 -19.07234 -10.31892
  Beta  occ. eigenvalues --  -10.24116 -10.22552 -10.22404 -10.18114 -10.18083
  Beta  occ. eigenvalues --  -10.17884 -10.17854 -10.17754 -10.17561 -10.17425
  Beta  occ. eigenvalues --  -10.17391 -10.17369 -10.17332 -10.17126 -10.17100
  Beta  occ. eigenvalues --   -1.12390  -1.04248  -0.99656  -0.99342  -0.86631
  Beta  occ. eigenvalues --   -0.85418  -0.79214  -0.76915  -0.75357  -0.74992
  Beta  occ. eigenvalues --   -0.73414  -0.66980  -0.65035  -0.63220  -0.59718
  Beta  occ. eigenvalues --   -0.58907  -0.55663  -0.53488  -0.51608  -0.50142
  Beta  occ. eigenvalues --   -0.49181  -0.49072  -0.47106  -0.46092  -0.45821
  Beta  occ. eigenvalues --   -0.43649  -0.42679  -0.42361  -0.42041  -0.41461
  Beta  occ. eigenvalues --   -0.41101  -0.40937  -0.40219  -0.39071  -0.38517
  Beta  occ. eigenvalues --   -0.36675  -0.35976  -0.35742  -0.35228  -0.33883
  Beta  occ. eigenvalues --   -0.33365  -0.32316  -0.29732  -0.25936  -0.24949
  Beta  occ. eigenvalues --   -0.24842  -0.24438  -0.24415  -0.23487
  Beta virt. eigenvalues --   -0.08527  -0.04818  -0.01763  -0.00890  -0.00479
  Beta virt. eigenvalues --   -0.00160   0.00102   0.01142   0.01593   0.02286
  Beta virt. eigenvalues --    0.03266   0.03525   0.03977   0.04369   0.04735

 Mulliken charges and spin densities:
               1          2
     1  C    0.069838   0.032510
     2  C   -0.454654   0.030519
     3  C   -0.455163   0.039782
     4  C    0.289579   0.027297
     5  C    0.178264   0.029206
     6  C    0.099319   0.024130
     7  C   -0.673613   0.105558
     8  C    0.436901   0.058759
     9  C    0.198845   0.040438
    10  C   -0.524091   0.094003
    11  C    0.060291   0.024052
    12  C   -0.722116   0.031712
    13  C    0.140311   0.046007
    14  C    0.157328   0.018723
    15  O   -0.452460   0.211092
    16  O   -0.451712   0.200394
    17  H    0.167217  -0.001235
    18  H    0.178125  -0.000938
    19  H    0.164295  -0.001815
    20  H    0.188731  -0.001874
    21  H    0.216125  -0.003632
    22  H    0.182072  -0.003221
    23  O   -0.025365   0.000826
    24  C    0.148398   0.000205
    25  C   -0.539608   0.000737
    26  O   -0.311684  -0.000670
    27  H    0.183216  -0.002657
    28  H    0.189694   0.000050
    29  H    0.188028   0.000075
    30  H    0.173890  -0.000032
 Sum of Mulliken charges =  -1.00000   1.00000

 Dipole moment (field-independent basis, Debye):
    X=             -5.4386    Y=             -1.4113    Z=             -1.7720  Tot=              5.8915
 Quadrupole moment (field-independent basis, Debye-Ang):
   XX=           -116.5052   YY=           -147.2114   ZZ=           -126.3833
   XY=             -1.0409   XZ=             11.0413   YZ=             -2.8752

 Normal termination of Gaussian 16 at Sun Jan 14 01:16:50 2024.
