 Q-Chem 5.4, Q-Chem, Inc., Pleasanton, CA (2021)
 Q-Chem 5.4.0 for Intel X86 EM64T Linux

User input:
--------------------------------------------------------------
$molecule
0 1
C                  0.0496400000      1.7013130000     -0.0000480000
C                 -1.2177320000      0.9082910000     -0.0007990000
C                 -1.2060420000     -0.4436970000      0.0001900000
C                  0.0748570000     -1.2146860000      0.0020100000
C                  1.3547220000     -0.4230690000      0.0029190000
C                  1.3430030000      0.9319450000      0.0019110000
O                  0.0573660000      2.9080610000     -0.0011130000
O                  0.1034410000     -2.4211220000      0.0028840000
C                  2.5365310000      1.7083180000      0.0026430000
C                  2.5615010000     -1.1786810000      0.0048270000
N                  3.5049420000      2.3367040000      0.0032490000
N                  3.5406450000     -1.7902070000      0.0063830000
Cl                -2.6644430000      1.8333760000     -0.0029780000
Cl                -2.6365430000     -1.3936580000     -0.0005890000
$end

$rem
BASIS  =  6-311++G(d,p)
GUI  =  2
JOB_TYPE  =  SP
METHOD  =  B3LYP
SCF_CONVERGENCE  = 8
SOLVENT_METHOD = sm12
$end

$smx
solvent dimethylformamide
charges CM5
$end

--------------------------------------------------------------

             Standard Nuclear Orientation (Angstroms)
    I     Atom           X                Y                Z
 ----------------------------------------------------------------
    1      C       0.0496400000     1.7013130000    -0.0000480000
    2      C      -1.2177320000     0.9082910000    -0.0007990000
    3      C      -1.2060420000    -0.4436970000     0.0001900000
    4      C       0.0748570000    -1.2146860000     0.0020100000
    5      C       1.3547220000    -0.4230690000     0.0029190000
    6      C       1.3430030000     0.9319450000     0.0019110000
    7      O       0.0573660000     2.9080610000    -0.0011130000
    8      O       0.1034410000    -2.4211220000     0.0028840000
    9      C       2.5365310000     1.7083180000     0.0026430000
   10      C       2.5615010000    -1.1786810000     0.0048270000
   11      N       3.5049420000     2.3367040000     0.0032490000
   12      N       3.5406450000    -1.7902070000     0.0063830000
   13      Cl     -2.6644430000     1.8333760000    -0.0029780000
   14      Cl     -2.6365430000    -1.3936580000    -0.0005890000
 ----------------------------------------------------------------

   14   -1485.3007015249      3.71e-09  Convergence criterion met
 Total energy in the final basis set =    -1485.3095912294

                    Orbital Energies (a.u.)
 --------------------------------------------------------------

 Alpha MOs
 -- Occupied --
********-101.6013 -19.1864 -19.1864 -14.3715 -14.3715 -10.3429 -10.3429
-10.3100 -10.3093 -10.3081 -10.3074 -10.2671 -10.2671  -9.5158  -9.5157
 -7.2808  -7.2808  -7.2709  -7.2709  -7.2693  -7.2693  -1.1259  -1.1233
 -0.9759  -0.9638  -0.9614  -0.9171  -0.9035  -0.8186  -0.7898  -0.7065
 -0.6857  -0.6153  -0.6001  -0.5801  -0.5242  -0.5173  -0.5039  -0.4909
 -0.4817  -0.4741  -0.4500  -0.4210  -0.4200  -0.4133  -0.4101  -0.3997
 -0.3922  -0.3794  -0.3705  -0.3497  -0.3455  -0.3394  -0.3310  -0.3061

          Ground-State Mulliken Net Atomic Charges

     Atom                 Charge (a.u.)
  ----------------------------------------
      1 C                    -1.554366
      2 C                     0.940307
      3 C                     0.942126
      4 C                    -1.554261
      5 C                     2.942223
      6 C                     2.942824
      7 O                    -0.202179
      8 O                    -0.202235
      9 C                    -2.092852
     10 C                    -2.093012
     11 N                    -0.509826
     12 N                    -0.509787
     13 Cl                    0.475440
     14 Cl                    0.475599
  ----------------------------------------
  Sum of atomic charges =     0.000000

                    Cartesian Multipole Moments
 -----------------------------------------------------------------
    Charge (ESU x 10^10)
                -0.0000
    Dipole Moment (Debye)
         X      -5.5012      Y      -0.0477      Z      -0.0057
       Tot       5.5014
    Quadrupole Moments (Debye-Ang)
        XX    -111.5630     XY      -1.3299     YY    -112.1418
        XZ      -0.0320     YZ       0.0171     ZZ     -87.5936

 Total job time:  164.89s(wall), 1053.68s(cpu)
        *  Thank you very much for using Q-Chem.  Have a nice day.  *
