 Q-Chem 5.4, Q-Chem, Inc., Pleasanton, CA (2021)
 Q-Chem 5.4.0 for Intel X86 EM64T Linux

User input:
--------------------------------------------------------------
$molecule
-2 1
C                 -1.2654030000      2.4486610000     -2.9041900000
C                 -2.1493230000      2.2735940000     -1.7849460000
C                  0.0935600000      2.1633230000     -2.5365710000
C                  0.4621870000      1.4946140000     -1.3729600000
C                 -0.5343030000      0.9036790000     -0.4981930000
C                 -1.8013910000      1.6026930000     -0.6168280000
C                 -0.2865220000     -0.2204060000      0.4536370000
C                 -1.3145290000     -0.8241230000      1.2825340000
C                  0.9817110000     -0.9049080000      0.6279360000
C                  1.2841630000     -1.5709280000      1.8119840000
C                  0.3522620000     -1.7615170000      2.8883080000
C                 -0.9925270000     -1.4939520000      2.4587000000
O                 -1.6155290000      2.9535460000     -4.0223600000
O                  0.6566600000     -2.2645970000      4.0205920000
C                  1.9002690000      1.7601460000     -0.8792080000
C                  1.9484230000      3.1568710000     -0.2150550000
C                  3.0000500000      1.6838870000     -1.9547880000
C                  1.8666980000     -1.2657320000     -0.5840650000
C                  1.4265300000     -2.6455850000     -1.1286500000
C                  3.3831890000     -1.2984650000     -0.3167400000
C                 -2.7310080000     -1.0842160000      0.7254470000
C                 -3.8663310000     -1.0831870000      1.7658140000
C                 -2.7321040000     -2.4424090000     -0.0149420000
C                 -2.6321770000      1.9555650000      0.6360630000
C                 -2.1129520000      3.2922180000      1.2163200000
C                 -4.1526720000      2.0645550000      0.4181280000
H                 -3.0989600000      2.7967580000     -1.8518220000
H                  0.8539700000      2.6065510000     -3.1736940000
H                  2.2354200000     -2.0848510000      1.9196210000
H                 -1.7752910000     -1.9451880000      3.0617140000
H                  2.1421860000      1.0565500000     -0.0878430000
H                  2.9460170000      3.3539330000      0.2026250000
H                  1.2213170000      3.2189380000      0.5973020000
H                  1.7125620000      3.9425070000     -0.9395720000
H                  2.9782920000      0.7359770000     -2.4975460000
H                  3.9912930000      1.7893860000     -1.4962650000
H                  2.8920630000      2.4865000000     -2.6903820000
H                  1.6735130000     -0.5633920000     -1.3897920000
H                  1.5821200000     -3.4289010000     -0.3803170000
H                  1.9965230000     -2.9062550000     -2.0317760000
H                  0.3657540000     -2.6334790000     -1.3876620000
H                  3.6479300000     -2.1093170000      0.3683510000
H                  3.7424520000     -0.3656670000      0.1242210000
H                  3.9327800000     -1.4654420000     -1.2516210000
H                 -2.9624820000     -0.3409330000     -0.0326870000
H                 -4.8398610000     -1.1647990000      1.2664030000
H                 -3.8704890000     -0.1707620000      2.3666700000
H                 -3.7790650000     -1.9301640000      2.4530240000
H                 -3.7164090000     -2.6401360000     -0.4625380000
H                 -2.4903150000     -3.2607050000      0.6707640000
H                 -1.9894100000     -2.4413510000     -0.8154840000
H                 -2.4505620000      1.2142540000      1.4095910000
H                 -2.6537350000      3.5521700000      2.1373440000
H                 -2.2406040000      4.1063040000      0.4957240000
H                 -1.0503970000      3.2167750000      1.4565990000
H                 -4.6650920000      2.2077450000      1.3776920000
H                 -4.5641510000      1.1694410000     -0.0541290000
H                 -4.4046450000      2.9184440000     -0.2179630000
$end

$rem
BASIS  =  6-311++G(d,p)
GUI  =  2
JOB_TYPE  =  SP
METHOD  =  B3LYP
SCF_CONVERGENCE  = 8
SOLVENT_METHOD = sm12
$end

$smx
solvent dimethylformamide
charges CM5
$end

--------------------------------------------------------------

             Standard Nuclear Orientation (Angstroms)
    I     Atom           X                Y                Z
 ----------------------------------------------------------------
    1      C      -1.2654030000     2.4486610000    -2.9041900000
    2      C      -2.1493230000     2.2735940000    -1.7849460000
    3      C       0.0935600000     2.1633230000    -2.5365710000
    4      C       0.4621870000     1.4946140000    -1.3729600000
    5      C      -0.5343030000     0.9036790000    -0.4981930000
    6      C      -1.8013910000     1.6026930000    -0.6168280000
    7      C      -0.2865220000    -0.2204060000     0.4536370000
    8      C      -1.3145290000    -0.8241230000     1.2825340000
    9      C       0.9817110000    -0.9049080000     0.6279360000
   10      C       1.2841630000    -1.5709280000     1.8119840000
   11      C       0.3522620000    -1.7615170000     2.8883080000
   12      C      -0.9925270000    -1.4939520000     2.4587000000
   13      O      -1.6155290000     2.9535460000    -4.0223600000
   14      O       0.6566600000    -2.2645970000     4.0205920000
   15      C       1.9002690000     1.7601460000    -0.8792080000
   16      C       1.9484230000     3.1568710000    -0.2150550000
   17      C       3.0000500000     1.6838870000    -1.9547880000
   18      C       1.8666980000    -1.2657320000    -0.5840650000
   19      C       1.4265300000    -2.6455850000    -1.1286500000
   20      C       3.3831890000    -1.2984650000    -0.3167400000
   21      C      -2.7310080000    -1.0842160000     0.7254470000
   22      C      -3.8663310000    -1.0831870000     1.7658140000
   23      C      -2.7321040000    -2.4424090000    -0.0149420000
   24      C      -2.6321770000     1.9555650000     0.6360630000
   25      C      -2.1129520000     3.2922180000     1.2163200000
   26      C      -4.1526720000     2.0645550000     0.4181280000
   27      H      -3.0989600000     2.7967580000    -1.8518220000
   28      H       0.8539700000     2.6065510000    -3.1736940000
   29      H       2.2354200000    -2.0848510000     1.9196210000
   30      H      -1.7752910000    -1.9451880000     3.0617140000
   31      H       2.1421860000     1.0565500000    -0.0878430000
   32      H       2.9460170000     3.3539330000     0.2026250000
   33      H       1.2213170000     3.2189380000     0.5973020000
   34      H       1.7125620000     3.9425070000    -0.9395720000
   35      H       2.9782920000     0.7359770000    -2.4975460000
   36      H       3.9912930000     1.7893860000    -1.4962650000
   37      H       2.8920630000     2.4865000000    -2.6903820000
   38      H       1.6735130000    -0.5633920000    -1.3897920000
   39      H       1.5821200000    -3.4289010000    -0.3803170000
   40      H       1.9965230000    -2.9062550000    -2.0317760000
   41      H       0.3657540000    -2.6334790000    -1.3876620000
   42      H       3.6479300000    -2.1093170000     0.3683510000
   43      H       3.7424520000    -0.3656670000     0.1242210000
   44      H       3.9327800000    -1.4654420000    -1.2516210000
   45      H      -2.9624820000    -0.3409330000    -0.0326870000
   46      H      -4.8398610000    -1.1647990000     1.2664030000
   47      H      -3.8704890000    -0.1707620000     2.3666700000
   48      H      -3.7790650000    -1.9301640000     2.4530240000
   49      H      -3.7164090000    -2.6401360000    -0.4625380000
   50      H      -2.4903150000    -3.2607050000     0.6707640000
   51      H      -1.9894100000    -2.4413510000    -0.8154840000
   52      H      -2.4505620000     1.2142540000     1.4095910000
   53      H      -2.6537350000     3.5521700000     2.1373440000
   54      H      -2.2406040000     4.1063040000     0.4957240000
   55      H      -1.0503970000     3.2167750000     1.4565990000
   56      H      -4.6650920000     2.2077450000     1.3776920000
   57      H      -4.5641510000     1.1694410000    -0.0541290000
   58      H      -4.4046450000     2.9184440000    -0.2179630000
 ----------------------------------------------------------------

   16   -1084.5039364092      6.66e-09  Convergence criterion met
 Total energy in the final basis set =    -1084.7515149541

                    Orbital Energies (a.u.)
 --------------------------------------------------------------

 Alpha MOs
 -- Occupied --
-19.0376 -19.0376 -10.1957 -10.1957 -10.1795 -10.1795 -10.1792 -10.1791
-10.1680 -10.1679 -10.1678 -10.1678 -10.1658 -10.1657 -10.1656 -10.1656
-10.1650 -10.1649 -10.1649 -10.1648 -10.1625 -10.1622 -10.1358 -10.1357
-10.1357 -10.1356  -0.9533  -0.9532  -0.8494  -0.8279  -0.8180  -0.8040
 -0.7792  -0.7691  -0.7238  -0.7095  -0.7064  -0.6917  -0.6909  -0.6889
 -0.6860  -0.6670  -0.6271  -0.6129  -0.6043  -0.5873  -0.5626  -0.5437
 -0.5340  -0.5306  -0.4983  -0.4865  -0.4595  -0.4568  -0.4553  -0.4463
 -0.4386  -0.4385  -0.4381  -0.4353  -0.4324  -0.4158  -0.4136  -0.4118
 -0.4080  -0.4006  -0.3954  -0.3933  -0.3875  -0.3856  -0.3841  -0.3788
 -0.3721  -0.3663  -0.3628  -0.3615  -0.3590  -0.3584  -0.3460  -0.3449
 -0.3446  -0.3440  -0.3433  -0.3353  -0.3334  -0.3285  -0.3212  -0.3173
 -0.3038  -0.2987  -0.2555  -0.2215  -0.2183  -0.2048  -0.2032  -0.1972
 -0.1357

          Ground-State Mulliken Net Atomic Charges

     Atom                 Charge (a.u.)
  ----------------------------------------
      1 C                    -1.931649
      2 C                    -0.833123
      3 C                    -0.811534
      4 C                    -0.878210
      5 C                    -0.938244
      6 C                    -0.802353
      7 C                    -0.947033
      8 C                    -0.781048
      9 C                    -0.896277
     10 C                    -0.805612
     11 C                    -1.933601
     12 C                    -0.842957
     13 O                    -0.421832
     14 O                    -0.421723
     15 C                     0.875077
     16 C                     0.158521
     17 C                     0.804896
     18 C                     0.891774
     19 C                     0.160423
     20 C                     0.804386
     21 C                     0.841216
     22 C                     0.820834
     23 C                     0.064839
     24 C                     0.845754
     25 C                     0.071484
     26 C                     0.820306
     27 H                    -0.060214
     28 H                    -0.057713
     29 H                    -0.058060
     30 H                    -0.060812
     31 H                    -0.299288
     32 H                     0.347963
     33 H                     0.007449
     34 H                     0.189011
     35 H                     0.272010
     36 H                     0.327426
     37 H                     0.232615
     38 H                    -0.299281
     39 H                     0.189072
     40 H                     0.348231
     41 H                     0.006067
     42 H                     0.232239
     43 H                     0.271274
     44 H                     0.327620
     45 H                    -0.240754
     46 H                     0.329555
     47 H                     0.255226
     48 H                     0.232950
     49 H                     0.344318
     50 H                     0.192397
     51 H                    -0.028828
     52 H                    -0.239944
     53 H                     0.344834
     54 H                     0.192831
     55 H                    -0.030434
     56 H                     0.329351
     57 H                     0.255694
     58 H                     0.232882
  ----------------------------------------
  Sum of atomic charges =    -2.000000

                    Cartesian Multipole Moments
 -----------------------------------------------------------------
    Charge (ESU x 10^10)
                -9.6064
    Dipole Moment (Debye)
         X       4.3836      Y      -3.2970      Z       0.0742
       Tot       5.4856
    Quadrupole Moments (Debye-Ang)
        XX    -197.6640     XY      21.2459     YY    -231.7129
        XZ     -27.8007     YZ      69.5744     ZZ    -286.9302

 Total job time:  5784.82s(wall), 29611.72s(cpu)
        *  Thank you very much for using Q-Chem.  Have a nice day.  *
