 Gaussian 16, Revision A.03,
 Gaussian 16:  ES64L-G16RevA.03 25-Dec-2016

 ----------------------------------------------------------------
 #P UB3LYP/6-311++G(d,p) SCRF=(PCM,Solvent=n,n-DiMethylFormamide)
 ----------------------------------------------------------------

 -------
 Reduced
 -------
 Symbolic Z-matrix:
 Charge = -2 Multiplicity = 1

                         Standard orientation:
 ---------------------------------------------------------------------
 Center     Atomic      Atomic             Coordinates (Angstroms)
 Number     Number       Type             X           Y           Z
 ---------------------------------------------------------------------
      1          6           0       -0.353495    0.610582    0.466664
      2          6           0       -1.449809    1.459938    0.240525
      3          6           0       -2.700997    0.941685   -0.125536
      4          6           0       -2.922955   -0.471807   -0.274000
      5          6           0       -1.770736   -1.323831   -0.074937
      6          6           0       -0.530116   -0.780982    0.298401
      7          8           0        0.832977    1.137659    0.956962
      8          8           0       -4.072843   -0.963174   -0.581101
      9          6           0       -1.273082    2.953096    0.419719
     10          6           0       -3.879261    1.853069   -0.370357
     11          6           0       -2.006708   -2.797048   -0.290036
     12         16           0        0.854079   -1.891326    0.665113
     13          6           0        2.212119   -1.268426   -0.438863
     14          6           0        3.425279   -0.644467    0.270595
     15          6           0        3.933198    0.654892   -0.428358
     16          8           0        5.159147    0.749553   -0.660315
     17          8           0        3.031406    1.511611   -0.669009
     18          1           0       -0.268329    3.175074    0.778288
     19          1           0       -1.999210    3.360031    1.136427
     20          1           0       -1.429416    3.493703   -0.523749
     21          1           0       -3.661808    2.630094   -1.117997
     22          1           0       -4.204140    2.381331    0.540525
     23          1           0       -4.712679    1.241418   -0.723269
     24          1           0       -2.734823   -2.923797   -1.097114
     25          1           0       -2.456918   -3.273411    0.594962
     26          1           0       -1.079282   -3.327229   -0.515319
     27          1           0        1.743170   -0.536703   -1.094478
     28          1           0        2.520086   -2.117725   -1.055957
     29          1           0        4.248629   -1.360055    0.350395
     30          1           0        3.130270   -0.354977    1.283637
     31          1           0        1.533067    1.268063    0.266650
 ---------------------------------------------------------------------

 SCF Done:  E(UB3LYP) =  -1165.33625663     A.U. after   17 cycles

 The electronic state is 1-A.
 Alpha  occ. eigenvalues --  -88.82575 -19.09871 -19.06354 -19.06063 -19.02251
 Alpha  occ. eigenvalues --  -10.25175 -10.18759 -10.18486 -10.18009 -10.17396
 Alpha  occ. eigenvalues --  -10.15494 -10.14965 -10.14584 -10.14200 -10.13912
 Alpha  occ. eigenvalues --  -10.13849 -10.13487  -7.91171  -5.87561  -5.87193
 Alpha  occ. eigenvalues --   -5.86566  -1.02342  -1.00382  -0.94141  -0.93715
 Alpha  occ. eigenvalues --   -0.81859  -0.78729  -0.75981  -0.71496  -0.70416
 Alpha  occ. eigenvalues --   -0.68680  -0.63709  -0.62568  -0.59118  -0.54566
 Alpha  occ. eigenvalues --   -0.52682  -0.49947  -0.48561  -0.47732  -0.44885
 Alpha  occ. eigenvalues --   -0.43813  -0.41964  -0.41123  -0.40693  -0.39757
 Alpha  occ. eigenvalues --   -0.39409  -0.39018  -0.38809  -0.37766  -0.37152
 Alpha  occ. eigenvalues --   -0.37058  -0.36686  -0.35914  -0.35498  -0.33554
 Alpha  occ. eigenvalues --   -0.33076  -0.32386  -0.32078  -0.30146  -0.27447
 Alpha  occ. eigenvalues --   -0.26710  -0.25504  -0.24140  -0.24044  -0.22193
 Alpha  occ. eigenvalues --   -0.20273  -0.19453  -0.15095
 Alpha virt. eigenvalues --   -0.00423   0.00242   0.00963   0.01472   0.02222
 Alpha virt. eigenvalues --    0.02530   0.02838   0.03033   0.03720   0.03900
 Alpha virt. eigenvalues --    0.04636   0.04695   0.04918   0.05128   0.05784

  Beta  occ. eigenvalues --  -88.82575 -19.09871 -19.06354 -19.06063 -19.02251
  Beta  occ. eigenvalues --  -10.25175 -10.18759 -10.18486 -10.18009 -10.17396
  Beta  occ. eigenvalues --  -10.15494 -10.14965 -10.14584 -10.14200 -10.13912
  Beta  occ. eigenvalues --  -10.13849 -10.13487  -7.91171  -5.87561  -5.87193
  Beta  occ. eigenvalues --   -5.86566  -1.02342  -1.00382  -0.94141  -0.93715
  Beta  occ. eigenvalues --   -0.81859  -0.78729  -0.75981  -0.71496  -0.70416
  Beta  occ. eigenvalues --   -0.68680  -0.63709  -0.62568  -0.59118  -0.54566
  Beta  occ. eigenvalues --   -0.52682  -0.49947  -0.48561  -0.47732  -0.44885
  Beta  occ. eigenvalues --   -0.43813  -0.41964  -0.41123  -0.40693  -0.39757
  Beta  occ. eigenvalues --   -0.39409  -0.39018  -0.38809  -0.37766  -0.37152
  Beta  occ. eigenvalues --   -0.37058  -0.36686  -0.35914  -0.35498  -0.33554
  Beta  occ. eigenvalues --   -0.33076  -0.32386  -0.32078  -0.30146  -0.27447
  Beta  occ. eigenvalues --   -0.26710  -0.25504  -0.24140  -0.24044  -0.22193
  Beta  occ. eigenvalues --   -0.20273  -0.19453  -0.15095
  Beta virt. eigenvalues --   -0.00423   0.00242   0.00963   0.01472   0.02222
  Beta virt. eigenvalues --    0.02530   0.02838   0.03033   0.03720   0.03900
  Beta virt. eigenvalues --    0.04636   0.04695   0.04918   0.05128   0.05784

 Mulliken charges and spin densities:
               1          2
     1  C   -1.026871  -0.000000
     2  C    1.037705   0.000000
     3  C    0.569861   0.000000
     4  C   -1.737204  -0.000000
     5  C    0.200382  -0.000000
     6  C    1.064456   0.000000
     7  O   -0.333072   0.000000
     8  O   -0.635265   0.000000
     9  C   -0.463554   0.000000
    10  C   -0.575785  -0.000000
    11  C   -0.357983   0.000000
    12  S   -0.437506  -0.000000
    13  C   -0.363029  -0.000000
    14  C   -0.356191   0.000000
    15  C    0.048383  -0.000000
    16  O   -0.529125  -0.000000
    17  O   -0.543509   0.000000
    18  H    0.175763   0.000000
    19  H    0.133974  -0.000000
    20  H    0.147074  -0.000000
    21  H    0.133454   0.000000
    22  H    0.141811  -0.000000
    23  H    0.173123   0.000000
    24  H    0.154030  -0.000000
    25  H    0.155508   0.000000
    26  H    0.110221  -0.000000
    27  H    0.195278  -0.000000
    28  H    0.225627  -0.000000
    29  H    0.180200   0.000000
    30  H    0.159413   0.000000
    31  H    0.352832   0.000000
 Sum of Mulliken charges =  -2.00000   0.00000

 Dipole moment (field-independent basis, Debye):
    X=             -3.0580    Y=             -1.5992    Z=              1.9714  Tot=              3.9743
 Quadrupole moment (field-independent basis, Debye-Ang):
   XX=           -257.4941   YY=           -135.6742   ZZ=           -124.3130
   XY=            -35.9013   XZ=              3.0477   YZ=              3.6063

 Normal termination of Gaussian 16 at Sun Jan 21 07:49:43 2024.
