 Gaussian 16, Revision A.03,
 Gaussian 16:  ES64L-G16RevA.03 25-Dec-2016

 ---------------------------------------------------------
 #P UB3LYP/genecp SCRF=(PCM,Solvent=n,n-DiMethylFormamide)
 ---------------------------------------------------------

 ------------------
 Quinone PCM in DMF
 ------------------
 Symbolic Z-matrix:
 Charge =  0 Multiplicity = 1

                         Standard orientation:
 ---------------------------------------------------------------------
 Center     Atomic      Atomic             Coordinates (Angstroms)
 Number     Number       Type             X           Y           Z
 ---------------------------------------------------------------------
      1          6           0       -0.387246   -2.018773   -0.000027
      2          6           0       -1.842706   -1.768090   -0.000430
      3          6           0       -2.408086   -0.549617   -0.000198
      4          6           0       -1.491413    0.646095    0.000383
      5          6           0        0.002734    0.413765    0.000107
      6          6           0        0.525849   -0.828921    0.000081
      7          8           0       -1.925259    1.779808    0.001125
      8          8           0        0.037114   -3.158396    0.000227
      9         53           0        2.565599   -1.290183    0.000025
     10         53           0        1.138515    2.174519   -0.000139
     11          1           0       -2.427899   -2.677923   -0.000728
     12          6           0       -3.925057   -0.324927   -0.000133
     13          6           0       -4.684366   -1.665338   -0.001080
     14          6           0       -4.340855    0.460815   -1.269308
     15          6           0       -4.341083    0.459017    1.270082
     16          1           0       -4.462571   -2.264962    0.886056
     17          1           0       -4.462350   -2.263783   -0.888958
     18          1           0       -5.758287   -1.465181   -0.001025
     19          1           0       -4.052026   -0.080386   -2.175121
     20          1           0       -3.893206    1.452700   -1.296799
     21          1           0       -5.428490    0.574386   -1.281651
     22          1           0       -4.052432   -0.083600    2.175099
     23          1           0       -5.428731    0.572599    1.282397
     24          1           0       -3.893479    1.450875    1.299070
 ---------------------------------------------------------------------

 SCF Done:  E(UB3LYP) =  -1133.25400887     A.U. after   15 cycles

 The electronic state is 1-A.
 Alpha  occ. eigenvalues --  -19.15313 -19.15106 -10.30544 -10.30097 -10.26137
 Alpha  occ. eigenvalues --  -10.25971 -10.22817 -10.21176 -10.20906 -10.16518
 Alpha  occ. eigenvalues --  -10.16302 -10.16301  -6.86394  -6.86325  -4.88888
 Alpha  occ. eigenvalues --   -4.88821  -4.87707  -4.87638  -4.87559  -4.87488
 Alpha  occ. eigenvalues --   -1.93704  -1.93635  -1.93330  -1.93262  -1.93217
 Alpha  occ. eigenvalues --   -1.93148  -1.92195  -1.92192  -1.92125  -1.92121
 Alpha  occ. eigenvalues --   -1.08978  -1.08478  -0.88310  -0.84629  -0.79266
 Alpha  occ. eigenvalues --   -0.74787  -0.70956  -0.70483  -0.69315  -0.68984
 Alpha  occ. eigenvalues --   -0.62744  -0.61027  -0.55883  -0.54264  -0.50327
 Alpha  occ. eigenvalues --   -0.48458  -0.46880  -0.46776  -0.44848  -0.44716
 Alpha  occ. eigenvalues --   -0.43691  -0.43091  -0.41649  -0.39397  -0.38868
 Alpha  occ. eigenvalues --   -0.38637  -0.37344  -0.36527  -0.35449  -0.34710
 Alpha  occ. eigenvalues --   -0.34370  -0.30552  -0.30195  -0.29651  -0.29106
 Alpha  occ. eigenvalues --   -0.29091  -0.26180  -0.25881
 Alpha virt. eigenvalues --   -0.14407  -0.07218  -0.04271  -0.02254  -0.01573
 Alpha virt. eigenvalues --   -0.00697   0.01071   0.01405   0.01883   0.03294
 Alpha virt. eigenvalues --    0.03718   0.03804   0.03828   0.05436   0.05777

  Beta  occ. eigenvalues --  -19.15313 -19.15106 -10.30544 -10.30097 -10.26137
  Beta  occ. eigenvalues --  -10.25971 -10.22817 -10.21176 -10.20906 -10.16518
  Beta  occ. eigenvalues --  -10.16302 -10.16301  -6.86394  -6.86325  -4.88888
  Beta  occ. eigenvalues --   -4.88821  -4.87707  -4.87638  -4.87559  -4.87488
  Beta  occ. eigenvalues --   -1.93704  -1.93635  -1.93330  -1.93262  -1.93217
  Beta  occ. eigenvalues --   -1.93148  -1.92195  -1.92192  -1.92125  -1.92121
  Beta  occ. eigenvalues --   -1.08978  -1.08478  -0.88310  -0.84629  -0.79266
  Beta  occ. eigenvalues --   -0.74787  -0.70956  -0.70483  -0.69315  -0.68984
  Beta  occ. eigenvalues --   -0.62744  -0.61027  -0.55883  -0.54264  -0.50327
  Beta  occ. eigenvalues --   -0.48458  -0.46880  -0.46776  -0.44848  -0.44716
  Beta  occ. eigenvalues --   -0.43691  -0.43091  -0.41649  -0.39397  -0.38868
  Beta  occ. eigenvalues --   -0.38637  -0.37344  -0.36527  -0.35449  -0.34710
  Beta  occ. eigenvalues --   -0.34370  -0.30552  -0.30195  -0.29651  -0.29106
  Beta  occ. eigenvalues --   -0.29091  -0.26180  -0.25881
  Beta virt. eigenvalues --   -0.14407  -0.07218  -0.04271  -0.02254  -0.01573
  Beta virt. eigenvalues --   -0.00697   0.01071   0.01405   0.01883   0.03294
  Beta virt. eigenvalues --    0.03718   0.03804   0.03828   0.05436   0.05777

 Mulliken charges and spin densities:
               1          2
     1  C   -1.140381   0.000000
     2  C   -0.279556  -0.000000
     3  C    1.326724   0.000000
     4  C   -0.987519   0.000000
     5  C    0.097680   0.000000
     6  C    0.988670  -0.000000
     7  O   -0.155910   0.000000
     8  O   -0.211112   0.000000
     9  I   -0.000874   0.000000
    10  I   -0.005215  -0.000000
    11  H    0.242690  -0.000000
    12  C    0.518646  -0.000000
    13  C   -0.476676  -0.000000
    14  C   -0.692020  -0.000000
    15  C   -0.691821  -0.000000
    16  H    0.144323   0.000000
    17  H    0.144357   0.000000
    18  H    0.186070  -0.000000
    19  H    0.150237   0.000000
    20  H    0.176300  -0.000000
    21  H    0.169415   0.000000
    22  H    0.150219   0.000000
    23  H    0.169423   0.000000
    24  H    0.176331   0.000000
 Sum of Mulliken charges =  -0.00000   0.00000

 Dipole moment (field-independent basis, Debye):
    X=             -2.4432    Y=              0.2543    Z=             -0.0021  Tot=              2.4564
 Quadrupole moment (field-independent basis, Debye-Ang):
   XX=           -108.8197   YY=           -138.3853   ZZ=           -124.5630
   XY=              9.6635   XZ=              0.0027   YZ=             -0.0018

 Normal termination of Gaussian 16 at Mon Jan 22 18:32:06 2024.
