 Gaussian 16, Revision A.03,
 Gaussian 16:  ES64L-G16RevA.03 25-Dec-2016

 ----------------------------------------------------------------------
 #P UB3LYP/6-311++G(d,p) nosym opt freq SCRF=(PCM,Solvent=n,n-DiMethylF
 ormamide)
 ----------------------------------------------------------------------

 --------
 Oxidized
 --------
 Symbolic Z-matrix:
 Charge =  0 Multiplicity = 1

 SCF Done:  E(UB3LYP) =  -806.949018677     A.U. after   14 cycles
 SCF Done:  E(UB3LYP) =  -806.949360696     A.U. after   12 cycles
 SCF Done:  E(UB3LYP) =  -806.949436373     A.U. after   11 cycles
 SCF Done:  E(UB3LYP) =  -806.949444302     A.U. after   10 cycles
 SCF Done:  E(UB3LYP) =  -806.949447931     A.U. after   10 cycles
 SCF Done:  E(UB3LYP) =  -806.949450631     A.U. after   10 cycles
 SCF Done:  E(UB3LYP) =  -806.949450663     A.U. after    9 cycles
 SCF Done:  E(UB3LYP) =  -806.949450763     A.U. after    8 cycles
 Optimization completed.
    -- Stationary point found.
 Normal termination of Gaussian 16 at Sat Feb 10 12:09:21 2024.

 ----------------------------------------------------------------------
 #P Geom=AllCheck Guess=TCheck SCRF=Check GenChk UB3LYP/6-311++G(d,p) F
 req
 ----------------------------------------------------------------------

 Structure from the checkpoint file:  "107.chk"
 --------
 Oxidized
 --------
 Charge =  0 Multiplicity = 1

                          Input orientation:
 ---------------------------------------------------------------------
 Center     Atomic      Atomic             Coordinates (Angstroms)
 Number     Number       Type             X           Y           Z
 ---------------------------------------------------------------------
      1          6           0       -0.539253   -2.201328    1.001427
      2          6           0        0.841324   -2.490862    0.845446
      3          6           0        1.778466   -1.486061    0.720441
      4          6           0        1.336275   -0.013852    0.749163
      5          6           0       -0.044321    0.275679    0.904978
      6          6           0       -0.981463   -0.729122    1.029983
      7          8           0       -1.420594   -3.067738    1.117006
      8          8           0        2.217573    0.852553    0.633217
      9          7           0       -2.300229   -0.611881    1.181790
     10          7           0        3.097221   -1.603302    0.568541
     11          6           0       -3.175262    0.584930    1.262250
     12          6           0       -4.602884    0.043149    1.435863
     13          6           0       -2.803462    1.442082    2.486155
     14          6           0       -3.094718    1.398930   -0.042296
     15          6           0        3.972230   -2.800116    0.487853
     16          6           0        3.891709   -3.614333    1.792264
     17          6           0        5.399857   -2.258330    0.314295
     18          6           0        3.600385   -3.657056   -0.736187
     19          1           0        1.110480   -3.536356    0.830409
     20          1           0       -0.313493    1.321172    0.919884
     21          1           0       -2.755483   -1.519511    1.249727
     22          1           0        3.552480   -0.695671    0.500647
     23          1           0       -4.891731   -0.579367    0.584476
     24          1           0       -5.308887    0.872381    1.504846
     25          1           0       -4.687180   -0.552072    2.349319
     26          1           0       -2.876104    0.850889    3.402153
     27          1           0       -3.496366    2.283167    2.564334
     28          1           0       -1.793261    1.847010    2.419325
     29          1           0       -3.366558    0.776174   -0.897954
     30          1           0       -2.098687    1.806256   -0.218136
     31          1           0       -3.794208    2.236586    0.008850
     32          1           0        2.895679   -4.021682    1.968059
     33          1           0        4.163573   -2.991723    2.648021
     34          1           0        4.591191   -4.451986    1.740961
     35          1           0        5.688736   -1.635966    1.165783
     36          1           0        5.484139   -1.662952   -0.599059
     37          1           0        6.105844   -3.087562    0.245149
     38          1           0        2.590177   -4.061974   -0.669400
     39          1           0        4.293270   -4.498143   -0.814522
     40          1           0        3.673017   -3.065712   -1.652088
 ---------------------------------------------------------------------

 SCF Done:  E(UB3LYP) =  -806.949450763     A.U. after    1 cycles

 Alpha  occ. eigenvalues --  -19.11412 -19.11411 -14.35706 -14.35706 -10.26806
 Alpha  occ. eigenvalues --  -10.26806 -10.24998 -10.24997 -10.23757 -10.23756
 Alpha  occ. eigenvalues --  -10.17124 -10.17124 -10.16910 -10.16910 -10.16661
 Alpha  occ. eigenvalues --  -10.16661 -10.16659 -10.16659  -1.04848  -1.04553
 Alpha  occ. eigenvalues --   -0.96643  -0.96634  -0.84284  -0.82167  -0.79857
 Alpha  occ. eigenvalues --   -0.75217  -0.70323  -0.70308  -0.70029  -0.70028
 Alpha  occ. eigenvalues --   -0.68465  -0.64306  -0.60976  -0.59750  -0.56568
 Alpha  occ. eigenvalues --   -0.54829  -0.52025  -0.50926  -0.48708  -0.47428
 Alpha  occ. eigenvalues --   -0.46658  -0.46289  -0.45134  -0.44607  -0.44299
 Alpha  occ. eigenvalues --   -0.44276  -0.44218  -0.43070  -0.41697  -0.40834
 Alpha  occ. eigenvalues --   -0.40228  -0.40029  -0.39451  -0.39425  -0.38267
 Alpha  occ. eigenvalues --   -0.37808  -0.37790  -0.36768  -0.36350  -0.36170
 Alpha  occ. eigenvalues --   -0.34651  -0.34577  -0.33729  -0.32696  -0.28201
 Alpha  occ. eigenvalues --   -0.27133  -0.24933  -0.22153
 Alpha virt. eigenvalues --   -0.10479  -0.01038  -0.00415  -0.00081   0.00880
 Alpha virt. eigenvalues --    0.01430   0.01863   0.01936   0.02134   0.02155
 Alpha virt. eigenvalues --    0.02890   0.03197   0.03542   0.03588   0.04097

  Beta  occ. eigenvalues --  -19.11412 -19.11411 -14.35706 -14.35706 -10.26806
  Beta  occ. eigenvalues --  -10.26806 -10.24998 -10.24997 -10.23757 -10.23756
  Beta  occ. eigenvalues --  -10.17124 -10.17124 -10.16910 -10.16910 -10.16661
  Beta  occ. eigenvalues --  -10.16661 -10.16659 -10.16659  -1.04848  -1.04553
  Beta  occ. eigenvalues --   -0.96643  -0.96634  -0.84284  -0.82167  -0.79857
  Beta  occ. eigenvalues --   -0.75217  -0.70323  -0.70308  -0.70029  -0.70028
  Beta  occ. eigenvalues --   -0.68465  -0.64306  -0.60976  -0.59750  -0.56568
  Beta  occ. eigenvalues --   -0.54829  -0.52025  -0.50926  -0.48708  -0.47428
  Beta  occ. eigenvalues --   -0.46658  -0.46289  -0.45134  -0.44607  -0.44299
  Beta  occ. eigenvalues --   -0.44276  -0.44218  -0.43070  -0.41697  -0.40834
  Beta  occ. eigenvalues --   -0.40228  -0.40029  -0.39451  -0.39425  -0.38267
  Beta  occ. eigenvalues --   -0.37808  -0.37790  -0.36768  -0.36350  -0.36170
  Beta  occ. eigenvalues --   -0.34651  -0.34577  -0.33729  -0.32696  -0.28201
  Beta  occ. eigenvalues --   -0.27133  -0.24933  -0.22153
  Beta virt. eigenvalues --   -0.10479  -0.01038  -0.00415  -0.00081   0.00880
  Beta virt. eigenvalues --    0.01430   0.01863   0.01936   0.02134   0.02155
  Beta virt. eigenvalues --    0.02890   0.03197   0.03542   0.03588   0.04097

 Mulliken charges and spin densities:
               1          2
     1  C   -0.396828   0.000000
     2  C   -0.099586  -0.000000
     3  C    0.115787  -0.000000
     4  C   -0.396831   0.000000
     5  C   -0.099586  -0.000000
     6  C    0.115794   0.000000
     7  O   -0.372279   0.000000
     8  O   -0.372279   0.000000
     9  N    0.103798   0.000000
    10  N    0.103798   0.000000
    11  C   -0.097055  -0.000000
    12  C   -0.495124  -0.000000
    13  C   -0.417586   0.000000
    14  C   -0.417447  -0.000000
    15  C   -0.097057  -0.000000
    16  C   -0.417411  -0.000000
    17  C   -0.495122   0.000000
    18  C   -0.417623   0.000000
    19  H    0.253696  -0.000000
    20  H    0.253695   0.000000
    21  H    0.389615   0.000000
    22  H    0.389615   0.000000
    23  H    0.162650  -0.000000
    24  H    0.165850  -0.000000
    25  H    0.162542  -0.000000
    26  H    0.167476  -0.000000
    27  H    0.178240   0.000000
    28  H    0.125260  -0.000000
    29  H    0.167460  -0.000000
    30  H    0.125245  -0.000000
    31  H    0.178283   0.000000
    32  H    0.125225   0.000000
    33  H    0.167458  -0.000000
    34  H    0.178287  -0.000000
    35  H    0.162650   0.000000
    36  H    0.162542  -0.000000
    37  H    0.165850  -0.000000
    38  H    0.125282   0.000000
    39  H    0.178235  -0.000000
    40  H    0.167477  -0.000000
 Sum of Mulliken charges =  -0.00000   0.00000

 Dipole moment (field-independent basis, Debye):
    X=              0.0000    Y=              0.0000    Z=              0.0001  Tot=              0.0001
 Quadrupole moment (field-independent basis, Debye-Ang):
   XX=            -82.3075   YY=           -117.2998   ZZ=           -111.5300
   XY=            -28.0159   XZ=             -2.9861   YZ=              3.3256

  Exact polarizability: 399.761  12.408 252.995 -24.730  -2.451 191.546
 Approx polarizability: 453.259  58.956 285.490 -29.797  -8.124 208.709

                      1                      2                      3
                      A                      A                      A
 Frequencies --     27.3094                50.6078                64.5739
 Red. masses --      4.3509                 2.6744                 3.6975
 Frc consts  --      0.0019                 0.0040                 0.0091
 IR Inten    --      6.1673                 0.0508                 0.0000

                      4                      5                      6
                      A                      A                      A
 Frequencies --     81.3775                89.7285               101.7816
 Red. masses --      3.6474                 3.8155                 6.2684
 Frc consts  --      0.0142                 0.0181                 0.0383
 IR Inten    --      0.0000                 2.2085                 5.5091

                      7                      8                      9
                      A                      A                      A
 Frequencies --    135.4669               167.4493               172.6674
 Red. masses --      4.0073                 2.2739                 2.0233
 Frc consts  --      0.0433                 0.0376                 0.0355
 IR Inten    --      0.0000                 0.2251                 0.0000

                     10                     11                     12
                      A                      A                      A
 Frequencies --    206.7715               209.2554               210.7573
 Red. masses --      1.3576                 2.6860                 1.6302
 Frc consts  --      0.0342                 0.0693                 0.0427
 IR Inten    --      0.2815                 0.0000                 0.0000

                     13                     14                     15
                      A                      A                      A
 Frequencies --    230.2740               236.0973               265.2747
 Red. masses --      1.1967                 1.2587                 2.3655
 Frc consts  --      0.0374                 0.0413                 0.0981
 IR Inten    --      3.9997                 0.0000                 8.8867

                     16                     17                     18
                      A                      A                      A
 Frequencies --    277.5827               277.8041               284.1833
 Red. masses --      1.0701                 1.0564                 2.4109
 Frc consts  --      0.0486                 0.0480                 0.1147
 IR Inten    --      0.0000                 0.3206                 0.0000

                     19                     20                     21
                      A                      A                      A
 Frequencies --    312.4533               346.6880               350.2210
 Red. masses --      3.5168                 2.5024                 2.5343
 Frc consts  --      0.2023                 0.1772                 0.1831
 IR Inten    --     18.1667                 0.0259                 0.0000

                     22                     23                     24
                      A                      A                      A
 Frequencies --    386.6545               395.1244               437.7718
 Red. masses --      2.6355                 2.4940                 2.8074
 Frc consts  --      0.2321                 0.2294                 0.3170
 IR Inten    --      0.0000                 0.2233                 0.1093

                     25                     26                     27
                      A                      A                      A
 Frequencies --    442.0886               445.3425               454.8073
 Red. masses --      3.8629                 3.1907                 3.7405
 Frc consts  --      0.4448                 0.3728                 0.4559
 IR Inten    --      0.0000                 0.0000                83.6149

                     28                     29                     30
                      A                      A                      A
 Frequencies --    472.6441               504.5187               542.8891
 Red. masses --      4.0784                 3.0599                 3.7572
 Frc consts  --      0.5368                 0.4589                 0.6524
 IR Inten    --      0.0000                 6.7210                 3.4886

                     31                     32                     33
                      A                      A                      A
 Frequencies --    558.2267               571.1424               633.3802
 Red. masses --      7.7555                 5.8902                 4.9436
 Frc consts  --      1.4239                 1.1321                 1.1685
 IR Inten    --      0.0000                 0.0000                 0.0000

                     34                     35                     36
                      A                      A                      A
 Frequencies --    664.9998               666.1134               703.7338
 Red. masses --      1.1053                 1.0955                 5.9041
 Frc consts  --      0.2880                 0.2864                 1.7227
 IR Inten    --      0.0001               240.5795                 0.3828

                     37                     38                     39
                      A                      A                      A
 Frequencies --    744.9528               759.6578               770.3847
 Red. masses --      5.5087                 2.2075                 6.1488
 Frc consts  --      1.8012                 0.7506                 2.1501
 IR Inten    --      0.0000                 0.0000                 5.8087

                     40                     41                     42
                      A                      A                      A
 Frequencies --    782.2912               786.8288               807.3973
 Red. masses --      3.6714                 3.5229                 1.9139
 Frc consts  --      1.3238                 1.2850                 0.7351
 IR Inten    --      9.9808                 0.0000                 0.0000

                     43                     44                     45
                      A                      A                      A
 Frequencies --    830.5764               880.1889               921.6711
 Red. masses --      1.6139                 2.8918                 2.2626
 Frc consts  --      0.6560                 1.3200                 1.1324
 IR Inten    --    111.4585                56.5037                 0.0000

                     46                     47                     48
                      A                      A                      A
 Frequencies --    923.9790               924.0022               932.6523
 Red. masses --      1.7286                 1.7290                 1.6631
 Frc consts  --      0.8695                 0.8697                 0.8523
 IR Inten    --      0.0000                 0.0247                 5.5925

                     49                     50                     51
                      A                      A                      A
 Frequencies --    940.7161               950.3047               968.5390
 Red. masses --      1.8682                 2.8501                 1.1967
 Frc consts  --      0.9741                 1.5165                 0.6614
 IR Inten    --      0.0000                19.3452                 0.0000

                     52                     53                     54
                      A                      A                      A
 Frequencies --    968.5745              1048.5315              1048.5801
 Red. masses --      1.1968                 1.3957                 1.3956
 Frc consts  --      0.6615                 0.9041                 0.9041
 IR Inten    --      0.0408                 0.0004                 4.2187

                     55                     56                     57
                      A                      A                      A
 Frequencies --   1058.7598              1058.8076              1214.3268
 Red. masses --      1.4146                 1.4199                 2.3890
 Frc consts  --      0.9343                 0.9379                 2.0756
 IR Inten    --     10.1594                 0.0001                13.4600

                     58                     59                     60
                      A                      A                      A
 Frequencies --   1214.6649              1226.3718              1226.8567
 Red. masses --      1.7496                 2.0993                 2.4271
 Frc consts  --      1.5209                 1.8602                 2.1524
 IR Inten    --      0.0000                 0.0001               490.9041

                     61                     62                     63
                      A                      A                      A
 Frequencies --   1240.6159              1240.6363              1263.0126
 Red. masses --      2.7879                 2.7886                 2.1214
 Frc consts  --      2.5281                 2.5289                 1.9938
 IR Inten    --      0.0000                44.7827                 0.0000

                     64                     65                     66
                      A                      A                      A
 Frequencies --   1268.7899              1300.7932              1327.1574
 Red. masses --      3.3937                 2.8857                 1.6797
 Frc consts  --      3.2189                 2.8768                 1.7431
 IR Inten    --    284.0137                 0.0000               316.0272

                     67                     68                     69
                      A                      A                      A
 Frequencies --   1365.7192              1385.5528              1400.7035
 Red. masses --      5.4560                 5.3032                 1.2213
 Frc consts  --      5.9958                 5.9984                 1.4118
 IR Inten    --    235.0299                 0.0000                31.7252

                     70                     71                     72
                      A                      A                      A
 Frequencies --   1400.7129              1401.1198              1401.1608
 Red. masses --      1.2220                 1.2330                 1.2314
 Frc consts  --      1.4126                 1.4262                 1.4244
 IR Inten    --      0.0022                 0.0031                27.4893

                     73                     74                     75
                      A                      A                      A
 Frequencies --   1427.3018              1427.5168              1474.6417
 Red. masses --      1.2238                 1.2216                 1.0475
 Frc consts  --      1.4689                 1.4667                 1.3421
 IR Inten    --     50.7420                 0.0003                 0.0268

                     76                     77                     78
                      A                      A                      A
 Frequencies --   1474.6456              1480.6996              1480.7139
 Red. masses --      1.0475                 1.0436                 1.0436
 Frc consts  --      1.3420                 1.3480                 1.3481
 IR Inten    --      0.6753                 0.0005                 0.4319

                     79                     80                     81
                      A                      A                      A
 Frequencies --   1481.4911              1481.8066              1492.9126
 Red. masses --      1.0510                 1.0459                 1.0692
 Frc consts  --      1.3590                 1.3531                 1.4040
 IR Inten    --     55.4664                 0.0000                 0.0000

                     82                     83                     84
                      A                      A                      A
 Frequencies --   1493.2191              1496.9981              1497.0159
 Red. masses --      1.0651                 1.0542                 1.0541
 Frc consts  --      1.3992                 1.3920                 1.3919
 IR Inten    --     83.8656                19.7456                 0.0067

                     85                     86                     87
                      A                      A                      A
 Frequencies --   1509.3376              1509.8635              1531.1147
 Red. masses --      1.0717                 1.0642                 2.2957
 Frc consts  --      1.4384                 1.4294                 3.1708
 IR Inten    --      0.0000                32.3603              3170.5124

                     88                     89                     90
                      A                      A                      A
 Frequencies --   1557.1942              1584.8847              1612.8175
 Red. masses --      1.8808                 3.1482                 6.7424
 Frc consts  --      2.6871                 4.6592                10.3332
 IR Inten    --      0.0000              1838.3851                 0.0000

                     91                     92                     93
                      A                      A                      A
 Frequencies --   1623.5342              1668.0295              3028.2770
 Red. masses --      7.3432                10.8388                 1.0359
 Frc consts  --     11.4040                17.7679                 5.5969
 IR Inten    --      0.0000               145.7749                62.7532

                     94                     95                     96
                      A                      A                      A
 Frequencies --   3028.2848              3037.4029              3037.4101
 Red. masses --      1.0359                 1.0359                 1.0359
 Frc consts  --      5.5969                 5.6306                 5.6307
 IR Inten    --      0.0495                 0.0115                80.4710

                     97                     98                     99
                      A                      A                      A
 Frequencies --   3042.8672              3042.9673              3092.6310
 Red. masses --      1.0370                 1.0370                 1.1032
 Frc consts  --      5.6572                 5.6575                 6.2169
 IR Inten    --     35.1295                 0.0000                 1.7314

                    100                    101                    102
                      A                      A                      A
 Frequencies --   3092.6341              3102.2414              3102.2531
 Red. masses --      1.1032                 1.1028                 1.1028
 Frc consts  --      6.2169                 6.2533                 6.2533
 IR Inten    --     60.7549                 0.0239                57.4166

                    103                    104                    105
                      A                      A                      A
 Frequencies --   3103.2643              3103.2723              3113.5837
 Red. masses --      1.1026                 1.1026                 1.1010
 Frc consts  --      6.2560                 6.2560                 6.2888
 IR Inten    --     50.1070                 0.0144               113.8100

                    106                    107                    108
                      A                      A                      A
 Frequencies --   3113.5974              3119.0911              3119.0979
 Red. masses --      1.1010                 1.1007                 1.1007
 Frc consts  --      6.2887                 6.3090                 6.3090
 IR Inten    --      0.0001                 9.1207                 0.0029

                    109                    110                    111
                      A                      A                      A
 Frequencies --   3121.1591              3121.2079              3220.9774
 Red. masses --      1.1003                 1.1003                 1.0898
 Frc consts  --      6.3151                 6.3153                 6.6614
 IR Inten    --    132.8189                 0.0006                13.3567

                    112                    113                    114
                      A                      A                      A
 Frequencies --   3222.4584              3484.3564              3487.0801
 Red. masses --      1.0896                 1.0752                 1.0758
 Frc consts  --      6.6667                 7.6913                 7.7073
 IR Inten    --      0.0000                 0.0000               388.1371

 - Thermochemistry -
 -------------------
 Temperature   298.150 Kelvin.  Pressure   1.00000 Atm.
 Atom     1 has atomic number  6 and mass  12.00000

 Molecular mass:   250.16813 amu.
 Principal axes and moments of inertia in atomic units:
                           1         2         3
     Eigenvalues --  1848.813559381.15174**********
           X            0.91361   0.38997   0.11508
           Y           -0.39421   0.91889   0.01574
           Z           -0.09961  -0.05975   0.99323
 This molecule is an asymmetric top.
 Rotational symmetry number  1.
 Warning -- assumption of classical behavior for rotation
           may cause significant error
 Rotational temperatures (Kelvin)      0.04685     0.00923     0.00831
 Rotational constants (GHZ):           0.97616     0.19238     0.17322
 Zero-point vibrational energy     898426.6 (Joules/Mol)
                                  214.72912 (Kcal/Mol)
 Warning -- explicit consideration of  32 degrees of freedom as
           vibrations may cause significant error
 Vibrational temperatures:     39.29    72.81    92.91   117.08   129.10
          (Kelvin)            146.44   194.91   240.92   248.43   297.50
                              301.07   303.23   331.31   339.69   381.67
                              399.38   399.70   408.88   449.55   498.81
                              503.89   556.31   568.50   629.86   636.07
                              640.75   654.37   680.03   725.89   781.10
                              803.16   821.75   911.29   956.79   958.39
                             1012.52  1071.82  1092.98  1108.41  1125.54
                             1132.07  1161.66  1195.01  1266.40  1326.08
                             1329.40  1329.43  1341.88  1353.48  1367.28
                             1393.51  1393.56  1508.60  1508.67  1523.32
                             1523.39  1747.15  1747.63  1764.48  1765.17
                             1784.97  1785.00  1817.19  1825.51  1871.55
                             1909.48  1964.97  1993.50  2015.30  2015.31
                             2015.90  2015.96  2053.57  2053.88  2121.68
                             2121.69  2130.40  2130.42  2131.54  2131.99
                             2147.97  2148.41  2153.85  2153.87  2171.60
                             2172.36  2202.93  2240.46  2280.30  2320.48
                             2335.90  2399.92  4357.02  4357.03  4370.15
                             4370.16  4378.01  4378.15  4449.61  4449.61
                             4463.43  4463.45  4464.91  4464.92  4479.75
                             4479.77  4487.68  4487.69  4490.65  4490.72
                             4634.27  4636.40  5013.21  5017.13

 Zero-point correction=                           0.342193 (Hartree/Particle)
 Thermal correction to Energy=                    0.361938
 Thermal correction to Enthalpy=                  0.362882
 Thermal correction to Gibbs Free Energy=         0.295013
 Sum of electronic and zero-point Energies=           -806.607258
 Sum of electronic and thermal Energies=              -806.587513
 Sum of electronic and thermal Enthalpies=            -806.586569
 Sum of electronic and thermal Free Energies=         -806.654438

                     E (Thermal)             CV                S
                      KCal/Mol        Cal/Mol-Kelvin    Cal/Mol-Kelvin
 Total                  227.119             76.133            142.842
 Electronic               0.000              0.000              0.000
 Translational            0.889              2.981             42.451
 Rotational               0.889              2.981             33.557
 Vibrational            225.342             70.171             66.834
 Vibration     1          0.593              1.984              6.016
 Vibration     2          0.595              1.977              4.793
 Vibration     3          0.597              1.971              4.312
 Vibration     4          0.600              1.962              3.857
 Vibration     5          0.602              1.956              3.666
 Vibration     6          0.604              1.948              3.420
 Vibration     7          0.613              1.918              2.867
 Vibration     8          0.624              1.883              2.464
 Vibration     9          0.626              1.876              2.406
 Vibration    10          0.641              1.830              2.072
 Vibration    11          0.642              1.827              2.050
 Vibration    12          0.643              1.824              2.037
 Vibration    13          0.652              1.795              1.877
 Vibration    14          0.655              1.786              1.832
 Vibration    15          0.671              1.737              1.627
 Vibration    16          0.679              1.715              1.549
 Vibration    17          0.679              1.715              1.547
 Vibration    18          0.683              1.703              1.508
 Vibration    19          0.701              1.650              1.349
 Vibration    20          0.725              1.582              1.181
 Vibration    21          0.727              1.575              1.165
 Vibration    22          0.755              1.499              1.013
 Vibration    23          0.762              1.481              0.981
 Vibration    24          0.798              1.388              0.834
 Vibration    25          0.802              1.378              0.820
 Vibration    26          0.805              1.371              0.810
 Vibration    27          0.813              1.350              0.781
 Vibration    28          0.830              1.311              0.730
 Vibration    29          0.860              1.240              0.647
 Vibration    30          0.898              1.155              0.559
 Vibration    31          0.914              1.122              0.527
 Vibration    32          0.927              1.094              0.502

 Optimization completed.
    -- Stationary point found.
 Normal termination of Gaussian 16 at Sat Feb 10 14:37:56 2024.
