 Q-Chem 5.4, Q-Chem, Inc., Pleasanton, CA (2021)
 Q-Chem 5.4.0 for Intel X86 EM64T Linux

User input:
--------------------------------------------------------------
$molecule
0 1
C                  3.7175190000      2.2367760000     -0.4604120000
O                  2.3669060000      1.7955150000     -0.3748080000
C                  2.1007260000      0.4824010000     -0.2392550000
C                  3.1145800000     -0.4843000000     -0.1775200000
C                  2.8032890000     -1.8318380000     -0.0373440000
C                  1.4812920000     -2.2436990000      0.0439590000
C                  0.4584540000     -1.2971860000     -0.0155080000
C                 -0.9451190000     -1.8152850000      0.0785690000
O                 -1.1638520000     -3.0101420000      0.2006390000
C                 -2.0531190000     -0.8303900000      0.0184610000
C                 -3.3766140000     -1.2779600000      0.1036170000
C                 -4.4232170000     -0.3673510000      0.0487120000
C                 -4.1541230000      0.9977750000     -0.0918200000
C                 -2.8421310000      1.4473130000     -0.1767930000
C                 -1.7808500000      0.5376900000     -0.1224020000
C                 -0.3791160000      1.0686060000     -0.2179240000
O                 -0.2049630000      2.2688300000     -0.3394810000
C                  0.7381390000      0.0809040000     -0.1575950000
H                  4.2222090000      1.8146540000     -1.3355170000
H                  4.2785740000      1.9879610000      0.4462440000
H                  3.6587770000      3.3184230000     -0.5637550000
H                  4.1513880000     -0.1854550000     -0.2390250000
H                  3.6049820000     -2.5604050000      0.0080020000
H                  1.2154270000     -3.2865170000      0.1531930000
H                 -3.5566630000     -2.3402960000      0.2120460000
H                 -5.4480630000     -0.7146560000      0.1147380000
H                 -4.9715510000      1.7088300000     -0.1347080000
H                 -2.6128840000      2.4998000000     -0.2858310000
$end
$rem
MAX_SCF_CYCLES=200
BASIS  =  6-311++G(d,p)
GUI  =  2
JOB_TYPE  =  SP
METHOD  =  B3LYP
SOLVENT_METHOD = COSMO
$end
$solvent
dielectric 37.219
opticaldielectric 1.43
$end

--------------------------------------------------------------

             Standard Nuclear Orientation (Angstroms)
    I     Atom           X                Y                Z
 ----------------------------------------------------------------
    1      C       4.1508531662     1.8213219622    -0.0003724866
    2      O       2.7537455614     1.5487691880    -0.0000307505
    3      C       2.3222455501     0.2731115164     0.0001432312
    4      C       3.2056860413    -0.8158121805     0.0003616633
    5      C       2.7250211255    -2.1201784234     0.0004078624
    6      C       1.3600917966    -2.3669244705     0.0001969157
    7      C       0.4651595562    -1.2970099842     0.0000107465
    8      C      -0.9942854332    -1.6395219765    -0.0002718856
    9      O      -1.3635957479    -2.8031534526    -0.0006458987
   10      C      -1.9688956945    -0.5208486853    -0.0000746776
   11      C      -3.3398750670    -0.8030277152     0.0000650891
   12      C      -4.2629884908     0.2340174782     0.0002177012
   13      C      -3.8219777896     1.5611344211     0.0001856968
   14      C      -2.4621685006     1.8466979221     0.0000564719
   15      C      -1.5243590010     0.8088139813    -0.0000521804
   16      C      -0.0650961396     1.1643507014    -0.0000317152
   17      O       0.2606544888     2.3388844599    -0.0000294906
   18      C       0.9183346489     0.0417120924     0.0000112207
   19      H       4.6370124739     1.4205354851    -0.8957646170
   20      H       4.6373157657     1.4215018692     0.8952919328
   21      H       4.2303088988     2.9065763414    -0.0009639778
   22      H       4.2730904364    -0.6463722864     0.0004492786
   23      H       3.4281557021    -2.9455144388     0.0005763305
   24      H       0.9633344981    -3.3732391788     0.0002016956
   25      H      -3.6539199089    -1.8394195833     0.0000833110
   26      H      -5.3246975407     0.0147838185     0.0003408636
   27      H      -4.5429759446     2.3709422869     0.0002841869
   28      H      -2.1005334106     2.8671842858     0.0000281941
 ----------------------------------------------------------------

    9    -803.5009211793      3.29e-06  Convergence criterion met
 Total energy in the final basis set =     -803.5009211793
    5    -803.5194520315      3.48e-06  Convergence criterion met
 Total energy in the final basis set =     -803.5194520315

                    Orbital Energies (a.u.)
 --------------------------------------------------------------

 Alpha MOs
 -- Occupied --
-19.1710 -19.1306 -19.1244 -10.2827 -10.2816 -10.2658 -10.2237 -10.2096
-10.2091 -10.2056 -10.2045 -10.1979 -10.1950 -10.1947 -10.1939 -10.1938
-10.1929 -10.1884  -1.0921  -1.0664  -1.0606  -0.8909  -0.8786  -0.8103
 -0.7825  -0.7749  -0.7695  -0.7158  -0.6880  -0.6604  -0.6444  -0.6075
 -0.5831  -0.5616  -0.5597  -0.5187  -0.5051  -0.4962  -0.4859  -0.4832
 -0.4775  -0.4583  -0.4528  -0.4514  -0.4477  -0.4411  -0.4237  -0.4185
 -0.4004  -0.3959  -0.3892  -0.3752  -0.3720  -0.3652  -0.3517  -0.3417
 -0.2892  -0.2855  -0.2760  -0.2754  -0.2671  -0.2480

          Ground-State Mulliken Net Atomic Charges

     Atom                 Charge (a.u.)
  ----------------------------------------
      1 C                    -0.313463
      2 O                    -0.141681
      3 C                    -0.024202
      4 C                     0.000480
      5 C                    -0.393112
      6 C                     0.054904
      7 C                     0.504252
      8 C                    -0.512585
      9 O                    -0.295459
     10 C                    -0.133830
     11 C                     0.165399
     12 C                    -0.501694
     13 C                    -0.444179
     14 C                     0.166951
     15 C                     0.324659
     16 C                    -0.433944
     17 O                    -0.310174
     18 C                     0.218699
     19 H                     0.177987
     20 H                     0.177961
     21 H                     0.211588
     22 H                     0.230988
     23 H                     0.239962
     24 H                     0.187104
     25 H                     0.199342
     26 H                     0.223866
     27 H                     0.226921
     28 H                     0.193261
  ----------------------------------------
  Sum of atomic charges =     0.000000

                    Cartesian Multipole Moments
 -----------------------------------------------------------------
    Charge (ESU x 10^10)
                 0.0000
    Dipole Moment (Debye)
         X       2.8517      Y       0.0966      Z       0.0006
       Tot       2.8533
    Quadrupole Moments (Debye-Ang)
        XX     -60.5457     XY      -9.7452     YY    -113.3457
        XZ      -0.0054     YZ      -0.0047     ZZ    -106.0814

 Total job time:  95.01s(wall), 462.06s(cpu)
        *  Thank you very much for using Q-Chem.  Have a nice day.  *
