 Gaussian 16, Revision A.03,
 Gaussian 16:  ES64L-G16RevA.03 25-Dec-2016

 ----------------------------------------------------------------
 #P UB3LYP/6-311++G(d,p) SCRF=(PCM,Solvent=n,n-DiMethylFormamide)
 ----------------------------------------------------------------

 -------
 Reduced
 -------
 Symbolic Z-matrix:
 Charge = -2 Multiplicity = 1

                         Standard orientation:
 ---------------------------------------------------------------------
 Center     Atomic      Atomic             Coordinates (Angstroms)
 Number     Number       Type             X           Y           Z
 ---------------------------------------------------------------------
      1          6           0       -2.147455   -1.778173   -0.109979
      2          6           0       -3.502514   -1.609164    0.112288
      3          6           0       -4.027037   -0.304415    0.293776
      4          6           0       -1.249936   -0.685704   -0.162362
      5          6           0       -1.786683    0.642789    0.018400
      6          6           0       -3.173648    0.784424    0.243452
      7          6           0        0.170707   -0.948990   -0.400267
      8          6           0        0.954152    0.243675   -0.428332
      9          6           0        0.435074    1.537786   -0.269065
     10          6           0       -0.934142    1.831130   -0.031373
     11          8           0        0.631278   -2.137139   -0.563386
     12          8           0       -1.398925    3.021271    0.126993
     13          1           0       -1.715093   -2.764077   -0.252740
     14          1           0       -3.539504    1.798578    0.375838
     15          8           0        2.326712    0.139649   -0.724461
     16          1           0       -4.163785   -2.473834    0.148051
     17          1           0       -5.092076   -0.161628    0.470268
     18          1           0        1.123786    2.378144   -0.328558
     19          6           0        3.228789    0.191775    0.374998
     20          6           0        4.634338    0.259230   -0.221545
     21          6           0        3.051291   -1.001118    1.317702
     22          1           0        3.040172    1.118438    0.942974
     23          1           0        5.394926    0.351395    0.560800
     24          1           0        4.726032    1.118875   -0.892391
     25          1           0        4.844199   -0.647105   -0.799373
     26          1           0        3.755437   -0.934198    2.157248
     27          1           0        3.205158   -1.935994    0.773083
     28          1           0        2.030614   -1.018305    1.705471
 ---------------------------------------------------------------------

 SCF Done:  E(UB3LYP) =  -728.718486012     A.U. after   17 cycles

 The electronic state is 1-A.
 Alpha  occ. eigenvalues --  -19.10333 -19.01434 -19.01029 -10.20797 -10.16905
 Alpha  occ. eigenvalues --  -10.16794 -10.16518 -10.14997 -10.14850 -10.14753
 Alpha  occ. eigenvalues --  -10.14427 -10.14322 -10.14139 -10.13572 -10.13457
 Alpha  occ. eigenvalues --  -10.11546  -1.01577  -0.93099  -0.92609  -0.82279
 Alpha  occ. eigenvalues --   -0.77488  -0.74790  -0.72022  -0.69475  -0.67762
 Alpha  occ. eigenvalues --   -0.63746  -0.59251  -0.58290  -0.55160  -0.52679
 Alpha  occ. eigenvalues --   -0.49088  -0.47522  -0.44810  -0.44056  -0.43005
 Alpha  occ. eigenvalues --   -0.42416  -0.40497  -0.39666  -0.37875  -0.37605
 Alpha  occ. eigenvalues --   -0.37533  -0.36845  -0.35984  -0.35408  -0.34787
 Alpha  occ. eigenvalues --   -0.34277  -0.32409  -0.31712  -0.31525  -0.30417
 Alpha  occ. eigenvalues --   -0.29811  -0.24914  -0.22733  -0.22036  -0.20623
 Alpha  occ. eigenvalues --   -0.19457  -0.19014  -0.10747
 Alpha virt. eigenvalues --   -0.00385   0.00015   0.00698   0.01256   0.01543
 Alpha virt. eigenvalues --    0.02283   0.02616   0.02732   0.04311   0.04550
 Alpha virt. eigenvalues --    0.04860   0.05030   0.05200   0.06475   0.06784

  Beta  occ. eigenvalues --  -19.10333 -19.01434 -19.01029 -10.20797 -10.16905
  Beta  occ. eigenvalues --  -10.16794 -10.16518 -10.14997 -10.14850 -10.14753
  Beta  occ. eigenvalues --  -10.14427 -10.14322 -10.14139 -10.13572 -10.13457
  Beta  occ. eigenvalues --  -10.11546  -1.01577  -0.93099  -0.92609  -0.82279
  Beta  occ. eigenvalues --   -0.77488  -0.74790  -0.72022  -0.69475  -0.67762
  Beta  occ. eigenvalues --   -0.63746  -0.59251  -0.58290  -0.55160  -0.52679
  Beta  occ. eigenvalues --   -0.49088  -0.47522  -0.44810  -0.44056  -0.43005
  Beta  occ. eigenvalues --   -0.42416  -0.40497  -0.39666  -0.37875  -0.37605
  Beta  occ. eigenvalues --   -0.37533  -0.36845  -0.35984  -0.35408  -0.34787
  Beta  occ. eigenvalues --   -0.34277  -0.32409  -0.31712  -0.31525  -0.30417
  Beta  occ. eigenvalues --   -0.29811  -0.24914  -0.22733  -0.22036  -0.20623
  Beta  occ. eigenvalues --   -0.19457  -0.19014  -0.10747
  Beta virt. eigenvalues --   -0.00385   0.00015   0.00698   0.01256   0.01543
  Beta virt. eigenvalues --    0.02283   0.02616   0.02732   0.04311   0.04550
  Beta virt. eigenvalues --    0.04860   0.05030   0.05200   0.06475   0.06784

 Mulliken charges and spin densities:
               1          2
     1  C   -0.010412   0.000000
     2  C   -0.494970   0.000000
     3  C   -0.461673  -0.000000
     4  C    0.298828  -0.000000
     5  C    0.480701  -0.000000
     6  C    0.022690   0.000000
     7  C   -0.763575  -0.000000
     8  C   -0.294214   0.000000
     9  C    0.645728   0.000000
    10  C   -0.635104   0.000000
    11  O   -0.674614   0.000000
    12  O   -0.705480   0.000000
    13  H    0.145427  -0.000000
    14  H    0.142889  -0.000000
    15  O   -0.132768   0.000000
    16  H    0.159361  -0.000000
    17  H    0.157413  -0.000000
    18  H    0.138053  -0.000000
    19  C    0.015378  -0.000000
    20  C   -0.504322   0.000000
    21  C   -0.508285   0.000000
    22  H    0.113541   0.000000
    23  H    0.141439  -0.000000
    24  H    0.146403   0.000000
    25  H    0.143137  -0.000000
    26  H    0.125070   0.000000
    27  H    0.157321   0.000000
    28  H    0.152039  -0.000000
 Sum of Mulliken charges =  -2.00000  -0.00000

 Dipole moment (field-independent basis, Debye):
    X=              5.1485    Y=             -3.3488    Z=              3.4156  Tot=              7.0276
 Quadrupole moment (field-independent basis, Debye-Ang):
   XX=           -123.4963   YY=           -155.9986   ZZ=           -109.4455
   XY=             19.1703   XZ=              6.5630   YZ=             -5.1809

 Normal termination of Gaussian 16 at Sun Jan 21 08:58:45 2024.
