 Gaussian 16, Revision A.03,
 Gaussian 16:  ES64L-G16RevA.03 25-Dec-2016

 ----------------------------------------------------------------------
 #P UB3LYP/6-311++G(d,p) nosym opt freq SCRF=(PCM,Solvent=n,n-DiMethylF
 ormamide)
 ----------------------------------------------------------------------

 -------
 Radical
 -------
 Symbolic Z-matrix:
 Charge = -1 Multiplicity = 2

 SCF Done:  E(UB3LYP) =  -1454.65742124     A.U. after   19 cycles
 SCF Done:  E(UB3LYP) =  -1454.65757704     A.U. after   14 cycles
 SCF Done:  E(UB3LYP) =  -1454.65759642     A.U. after   13 cycles
 SCF Done:  E(UB3LYP) =  -1454.65759002     A.U. after   12 cycles
 SCF Done:  E(UB3LYP) =  -1454.65760113     A.U. after   12 cycles
 Optimization completed.
    -- Stationary point found.
 Normal termination of Gaussian 16 at Sun Feb 11 00:53:17 2024.

 ----------------------------------------------------------------------
 #P Geom=AllCheck Guess=TCheck SCRF=Check GenChk UB3LYP/6-311++G(d,p) F
 req
 ----------------------------------------------------------------------

 Structure from the checkpoint file:  "231-rad.chk"
 -------
 Radical
 -------
 Charge = -1 Multiplicity = 2

                          Input orientation:
 ---------------------------------------------------------------------
 Center     Atomic      Atomic             Coordinates (Angstroms)
 Number     Number       Type             X           Y           Z
 ---------------------------------------------------------------------
      1          6           0        5.910290   -5.211341    1.071975
      2          6           0        6.782556   -5.077801    0.005757
      3          6           0        6.553274   -4.091659   -0.969298
      4          6           0        4.787735   -4.370127    1.197449
      5          6           0        4.556582   -3.377418    0.215503
      6          6           0        5.455459   -3.255553   -0.861953
      7          6           0        3.883159   -4.544534    2.346103
      8          6           0        2.757369   -3.641807    2.390536
      9          6           0        2.529496   -2.671198    1.427809
     10          6           0        3.398923   -2.470539    0.292556
     11          8           0        4.085014   -5.421905    3.221976
     12          8           0        3.191295   -1.586214   -0.575032
     13          1           0        6.073532   -5.966011    1.831126
     14          1           0        7.642257   -5.733354   -0.077598
     15          1           0        5.265530   -2.490842   -1.604823
     16         17           0        1.666679   -3.835718    3.752154
     17          1           0        7.236300   -3.986423   -1.804866
     18         17           0        1.138702   -1.605357    1.534927
 ---------------------------------------------------------------------

 SCF Done:  E(UB3LYP) =  -1454.65760113     A.U. after    1 cycles

 Alpha  occ. eigenvalues -- -101.55560-101.55554 -19.08896 -19.08891 -10.24168
 Alpha  occ. eigenvalues --  -10.24159 -10.23658 -10.23603 -10.18571 -10.18525
 Alpha  occ. eigenvalues --  -10.17943 -10.17895 -10.17752 -10.17748  -9.47014
 Alpha  occ. eigenvalues --   -9.47008  -7.23458  -7.23453  -7.22543  -7.22538
 Alpha  occ. eigenvalues --   -7.22439  -7.22434  -1.01789  -1.01475  -0.89704
 Alpha  occ. eigenvalues --   -0.86559  -0.84915  -0.79580  -0.75878  -0.73353
 Alpha  occ. eigenvalues --   -0.68356  -0.62292  -0.61339  -0.57156  -0.53157
 Alpha  occ. eigenvalues --   -0.50718  -0.47942  -0.46628  -0.44172  -0.43461
 Alpha  occ. eigenvalues --   -0.43395  -0.42782  -0.41980  -0.40804  -0.39636
 Alpha  occ. eigenvalues --   -0.37907  -0.36617  -0.34903  -0.34704  -0.33595
 Alpha  occ. eigenvalues --   -0.32914  -0.30609  -0.27826  -0.26344  -0.25981
 Alpha  occ. eigenvalues --   -0.25319  -0.25207  -0.16672
 Alpha virt. eigenvalues --   -0.04139  -0.02747  -0.01240   0.00076   0.01624
 Alpha virt. eigenvalues --    0.02046   0.02760   0.03613   0.03763   0.04792
 Alpha virt. eigenvalues --    0.04950   0.05099   0.06594   0.06780   0.06867

  Beta  occ. eigenvalues -- -101.55552-101.55547 -19.08282 -19.08276 -10.24027
  Beta  occ. eigenvalues --  -10.24018 -10.23464 -10.23406 -10.18540 -10.18493
  Beta  occ. eigenvalues --  -10.17919 -10.17871 -10.17742 -10.17738  -9.47007
  Beta  occ. eigenvalues --   -9.47002  -7.23463  -7.23458  -7.22510  -7.22505
  Beta  occ. eigenvalues --   -7.22436  -7.22430  -1.00745  -1.00396  -0.89357
  Beta  occ. eigenvalues --   -0.86442  -0.84750  -0.79225  -0.75704  -0.73144
  Beta  occ. eigenvalues --   -0.67465  -0.62135  -0.61014  -0.56877  -0.52952
  Beta  occ. eigenvalues --   -0.50481  -0.47645  -0.46533  -0.43357  -0.43253
  Beta  occ. eigenvalues --   -0.42734  -0.42514  -0.41480  -0.40479  -0.37571
  Beta  occ. eigenvalues --   -0.37358  -0.36512  -0.34825  -0.33368  -0.32984
  Beta  occ. eigenvalues --   -0.32835  -0.30564  -0.25710  -0.25701  -0.25406
  Beta  occ. eigenvalues --   -0.24739  -0.24414
  Beta virt. eigenvalues --   -0.10042  -0.03338  -0.01589  -0.01113   0.00103
  Beta virt. eigenvalues --    0.01638   0.02096   0.02829   0.03626   0.04631
  Beta virt. eigenvalues --    0.04856   0.05144   0.06002   0.06722   0.06807

 Mulliken charges and spin densities:
               1          2
     1  C   -0.058731   0.031577
     2  C   -0.437292   0.018665
     3  C   -0.437649   0.018654
     4  C    0.566186   0.026265
     5  C    0.566980   0.026240
     6  C   -0.059701   0.031578
     7  C   -1.849102   0.088209
     8  C    0.958639   0.103613
     9  C    0.962908   0.103381
    10  C   -1.848245   0.088518
    11  O   -0.406969   0.227161
    12  O   -0.407629   0.227075
    13  H    0.178724  -0.002326
    14  H    0.189352  -0.001586
    15  H    0.178822  -0.002327
    16  Cl   0.357205   0.008459
    17  H    0.189327  -0.001585
    18  Cl   0.357174   0.008428
 Sum of Mulliken charges =  -1.00000   1.00000

 Dipole moment (field-independent basis, Debye):
    X=            -13.9291    Y=             15.5749    Z=             -8.4560  Tot=             22.5411
 Quadrupole moment (field-independent basis, Debye-Ang):
   XX=           -136.9425   YY=           -165.5665   ZZ=           -128.9687
   XY=             48.0917   XZ=            -30.1639   YZ=             44.8691

  Exact polarizability: 257.624 -73.222 222.841 -62.948 -64.809 253.566
 Approx polarizability: 270.958 -76.743 259.364 -55.895 -86.367 288.808

                      1                      2                      3
                      A                      A                      A
 Frequencies --     69.3654                80.0941               139.2085
 Red. masses --     10.1874                11.3140                 5.3454
 Frc consts  --      0.0289                 0.0428                 0.0610
 IR Inten    --     10.9418                 0.3806                 0.0011

                      4                      5                      6
                      A                      A                      A
 Frequencies --    171.8968               213.6495               219.8625
 Red. masses --      9.1117                30.0457                 8.8207
 Frc consts  --      0.1586                 0.8080                 0.2512
 IR Inten    --      5.9362                 0.3991                 4.8770

                      7                      8                      9
                      A                      A                      A
 Frequencies --    276.7343               292.9433               342.0111
 Red. masses --      7.1414                 9.4490                15.6138
 Frc consts  --      0.3222                 0.4778                 1.0761
 IR Inten    --      0.5930                 0.1098                 1.1389

                     10                     11                     12
                      A                      A                      A
 Frequencies --    351.7256               379.4266               390.3194
 Red. masses --     17.4161                10.7927                 9.3551
 Frc consts  --      1.2694                 0.9155                 0.8397
 IR Inten    --      0.2715                22.7151                 0.0081

                     13                     14                     15
                      A                      A                      A
 Frequencies --    448.7438               492.8598               514.4992
 Red. masses --      3.3589                13.7750                 5.0367
 Frc consts  --      0.3985                 1.9715                 0.7855
 IR Inten    --      2.5681                16.3980                 0.0001

                     16                     17                     18
                      A                      A                      A
 Frequencies --    545.0942               643.4731               678.1553
 Red. masses --      8.3320                 7.4233                 5.7066
 Frc consts  --      1.4586                 1.8110                 1.5463
 IR Inten    --      2.8517                47.6680                 0.0108

                     19                     20                     21
                      A                      A                      A
 Frequencies --    698.0680               702.8368               786.4928
 Red. masses --      8.2355                 3.1110                 5.3535
 Frc consts  --      2.3645                 0.9054                 1.9511
 IR Inten    --      1.0153                81.0063                 0.1493

                     22                     23                     24
                      A                      A                      A
 Frequencies --    791.4833               807.2038               859.3998
 Red. masses --      1.6528                 8.4103                11.6281
 Frc consts  --      0.6100                 3.2287                 5.0600
 IR Inten    --     53.2224               143.9789               239.7592

                     25                     26                     27
                      A                      A                      A
 Frequencies --    870.7988               893.9912               991.3779
 Red. masses --      7.4763                 1.4320                 1.3701
 Frc consts  --      3.3402                 0.6743                 0.7934
 IR Inten    --      2.5785                 0.0073                 3.0017

                     28                     29                     30
                      A                      A                      A
 Frequencies --   1008.4053              1041.6489              1109.6572
 Red. masses --      1.2968                 2.3413                 2.4997
 Frc consts  --      0.7769                 1.4967                 1.8135
 IR Inten    --      0.0151                 8.0213                 8.1020

                     31                     32                     33
                      A                      A                      A
 Frequencies --   1119.0501              1158.9685              1174.7831
 Red. masses --      3.7285                 1.4042                 2.7626
 Frc consts  --      2.7509                 1.1113                 2.2464
 IR Inten    --     33.4121                10.4965               121.2584

                     34                     35                     36
                      A                      A                      A
 Frequencies --   1224.9848              1245.3733              1347.8401
 Red. masses --      3.1892                 1.9079                 3.1988
 Frc consts  --      2.8196                 1.7434                 3.4239
 IR Inten    --      8.2495               208.7746                99.1189

                     37                     38                     39
                      A                      A                      A
 Frequencies --   1354.1755              1447.3101              1470.0470
 Red. masses --      9.8861                 4.9062                 3.1946
 Frc consts  --     10.6813                 6.0551                 4.0675
 IR Inten    --      0.3788                17.9861               280.4342

                     40                     41                     42
                      A                      A                      A
 Frequencies --   1492.0227              1514.9272              1550.1530
 Red. masses --      3.7344                 6.6457                 6.8932
 Frc consts  --      4.8981                 8.9861                 9.7594
 IR Inten    --     24.2794              1357.4629                 0.0306

                     43                     44                     45
                      A                      A                      A
 Frequencies --   1608.8343              1632.3817              3165.1503
 Red. masses --      8.2899                 5.9347                 1.0865
 Frc consts  --     12.6421                 9.3174                 6.4130
 IR Inten    --     29.0374                 3.5377                 8.6465

                     46                     47                     48
                      A                      A                      A
 Frequencies --   3178.7733              3194.2735              3197.4230
 Red. masses --      1.0909                 1.0921                 1.0948
 Frc consts  --      6.4943                 6.5651                 6.5944
 IR Inten    --     19.8115                10.5844                31.5204

 - Thermochemistry -
 -------------------
 Temperature   298.150 Kelvin.  Pressure   1.00000 Atm.
 Atom     1 has atomic number  6 and mass  12.00000

 Molecular mass:   225.95883 amu.
 Principal axes and moments of inertia in atomic units:
                           1         2         3
     Eigenvalues --  2025.495423982.210176007.68167
           X            0.82276  -0.16417   0.54416
           Y           -0.29104   0.70066   0.65144
           Z           -0.48821  -0.69435   0.52870
 This molecule is an asymmetric top.
 Rotational symmetry number  1.
 Warning -- assumption of classical behavior for rotation
           may cause significant error
 Rotational temperatures (Kelvin)      0.04276     0.02175     0.01442
 Rotational constants (GHZ):           0.89101     0.45320     0.30041
 Zero-point vibrational energy     292414.6 (Joules/Mol)
                                   69.88876 (Kcal/Mol)
 Warning -- explicit consideration of  16 degrees of freedom as
           vibrations may cause significant error
 Vibrational temperatures:     99.80   115.24   200.29   247.32   307.39
          (Kelvin)            316.33   398.16   421.48   492.08   506.05
                              545.91   561.58   645.64   709.12   740.25
                              784.27   925.81   975.71  1004.36  1011.23
                             1131.59  1138.77  1161.39  1236.48  1252.89
                             1286.25  1426.37  1450.87  1498.70  1596.55
                             1610.06  1667.50  1690.25  1762.48  1791.81
                             1939.24  1948.36  2082.36  2115.07  2146.69
                             2179.64  2230.32  2314.75  2348.63  4553.95
                             4573.55  4595.85  4600.38

 Zero-point correction=                           0.111375 (Hartree/Particle)
 Thermal correction to Energy=                    0.122444
 Thermal correction to Enthalpy=                  0.123388
 Thermal correction to Gibbs Free Energy=         0.072932
 Sum of electronic and zero-point Energies=          -1454.546226
 Sum of electronic and thermal Energies=             -1454.535157
 Sum of electronic and thermal Enthalpies=           -1454.534213
 Sum of electronic and thermal Free Energies=        -1454.584670

                     E (Thermal)             CV                S
                      KCal/Mol        Cal/Mol-Kelvin    Cal/Mol-Kelvin
 Total                   76.835             42.116            106.194
 Electronic               0.000              0.000              1.377
 Translational            0.889              2.981             42.148
 Rotational               0.889              2.981             32.249
 Vibrational             75.057             36.155             30.420
 Vibration     1          0.598              1.969              4.171
 Vibration     2          0.600              1.963              3.889
 Vibration     3          0.615              1.914              2.815
 Vibration     4          0.626              1.877              2.415
 Vibration     5          0.644              1.820              2.012
 Vibration     6          0.647              1.811              1.960
 Vibration     7          0.678              1.716              1.554
 Vibration     8          0.688              1.687              1.457
 Vibration     9          0.721              1.591              1.203
 Vibration    10          0.728              1.572              1.158
 Vibration    11          0.749              1.514              1.041
 Vibration    12          0.758              1.491              0.999
 Vibration    13          0.808              1.364              0.800
 Vibration    14          0.849              1.266              0.676
 Vibration    15          0.870              1.218              0.623
 Vibration    16          0.900              1.150              0.554

 Optimization completed.
    -- Stationary point found.
 Normal termination of Gaussian 16 at Sun Feb 11 01:15:18 2024.
