 Q-Chem 5.4, Q-Chem, Inc., Pleasanton, CA (2021)
 Q-Chem 5.4.0 for Intel X86 EM64T Linux

User input:
--------------------------------------------------------------
$molecule
0 1
C                 -1.3509150000      1.9274880000      0.8183630000
C                 -2.6652790000      1.3991290000      0.3112820000
C                 -2.6761330000      0.2378820000     -0.3610790000
C                 -1.4554690000     -0.5334660000     -0.6606590000
C                 -0.1243980000     -0.0058370000     -0.1949090000
C                 -0.1125040000      1.1544140000      0.4923570000
O                 -1.5263510000     -1.5820690000     -1.2814450000
H                 -3.5905860000     -0.2077950000     -0.7342320000
O                 -1.3106260000      2.9458190000      1.4810820000
I                  1.6735270000      2.0070080000      1.2120960000
C                  1.0856490000     -0.8215370000     -0.5353740000
C                 -3.8878360000      2.2433320000      0.5999300000
C                 -3.9376260000      3.4508890000     -0.3631160000
C                 -5.2017420000      1.4545540000      0.5591140000
H                  0.7953840000     -1.7078980000     -1.0963490000
H                  1.6121530000     -1.1267050000      0.3734220000
H                  1.7911250000     -0.2333420000     -1.1290860000
H                 -3.7521480000      2.6450730000      1.6088710000
H                 -4.7855750000      4.0928850000     -0.1103950000
H                 -4.0618230000      3.1156620000     -1.3971810000
H                 -3.0298880000      4.0524160000     -0.2976470000
H                 -6.0270070000      2.0990090000      0.8716980000
H                 -5.1772230000      0.5912990000      1.2292340000
H                 -5.4339090000      1.0979600000     -0.4489160000
$end

$rem
BASIS  =  6-311++G(d,p)
GUI  =  2
JOB_TYPE  =  SP
METHOD  =  B3LYP
SCF_CONVERGENCE  = 8
SOLVENT_METHOD = sm12
$end

$smx
solvent dimethylformamide
charges CM5
$end

--------------------------------------------------------------

             Standard Nuclear Orientation (Angstroms)
    I     Atom           X                Y                Z
 ----------------------------------------------------------------
    1      C      -1.3509150000     1.9274880000     0.8183630000
    2      C      -2.6652790000     1.3991290000     0.3112820000
    3      C      -2.6761330000     0.2378820000    -0.3610790000
    4      C      -1.4554690000    -0.5334660000    -0.6606590000
    5      C      -0.1243980000    -0.0058370000    -0.1949090000
    6      C      -0.1125040000     1.1544140000     0.4923570000
    7      O      -1.5263510000    -1.5820690000    -1.2814450000
    8      H      -3.5905860000    -0.2077950000    -0.7342320000
    9      O      -1.3106260000     2.9458190000     1.4810820000
   10      I       1.6735270000     2.0070080000     1.2120960000
   11      C       1.0856490000    -0.8215370000    -0.5353740000
   12      C      -3.8878360000     2.2433320000     0.5999300000
   13      C      -3.9376260000     3.4508890000    -0.3631160000
   14      C      -5.2017420000     1.4545540000     0.5591140000
   15      H       0.7953840000    -1.7078980000    -1.0963490000
   16      H       1.6121530000    -1.1267050000     0.3734220000
   17      H       1.7911250000    -0.2333420000    -1.1290860000
   18      H      -3.7521480000     2.6450730000     1.6088710000
   19      H      -4.7855750000     4.0928850000    -0.1103950000
   20      H      -4.0618230000     3.1156620000    -1.3971810000
   21      H      -3.0298880000     4.0524160000    -0.2976470000
   22      H      -6.0270070000     2.0990090000     0.8716980000
   23      H      -5.1772230000     0.5912990000     1.2292340000
   24      H      -5.4339090000     1.0979600000    -0.4489160000
 ----------------------------------------------------------------

   16   -7457.7834279279      3.24e-09  Convergence criterion met
 Total energy in the final basis set =    -7457.7975807318

                    Orbital Energies (a.u.)
 --------------------------------------------------------------

 Alpha MOs
 -- Occupied --
********-176.3072-165.7108-165.7089-165.7086 -35.8036 -31.2967 -31.2912
-31.2905 -22.9472 -22.9460 -22.9456 -22.9417 -22.9417 -19.1465 -19.1434
-10.2959 -10.2897 -10.2487 -10.2299 -10.2227 -10.2069 -10.1942 -10.1784
-10.1664 -10.1642  -6.3530  -4.7651  -4.7515  -4.7499  -2.0311  -2.0269
 -2.0258  -2.0139  -2.0139  -1.0813  -1.0746  -0.8780  -0.8385  -0.7821
 -0.7418  -0.6983  -0.6917  -0.6717  -0.6240  -0.5947  -0.5691  -0.5405
 -0.5014  -0.4765  -0.4685  -0.4573  -0.4552  -0.4393  -0.4351  -0.4219
 -0.4159  -0.4085  -0.4026  -0.3892  -0.3811  -0.3651  -0.3550  -0.3457
 -0.3249  -0.3009  -0.2973  -0.2845  -0.2677  -0.2618

          Ground-State Mulliken Net Atomic Charges

     Atom                 Charge (a.u.)
  ----------------------------------------
      1 C                    -1.716536
      2 C                     1.371826
      3 C                    -0.083022
      4 C                    -1.430007
      5 C                     1.000722
      6 C                    -0.030258
      7 O                    -0.295382
      8 H                     0.273049
      9 O                    -0.194577
     10 I                     0.067614
     11 C                    -0.018274
     12 C                     0.178413
     13 C                    -0.683175
     14 C                    -0.221855
     15 H                     0.173647
     16 H                     0.218608
     17 H                     0.217593
     18 H                     0.179037
     19 H                     0.183731
     20 H                     0.152197
     21 H                     0.134388
     22 H                     0.211067
     23 H                     0.151095
     24 H                     0.160099
  ----------------------------------------
  Sum of atomic charges =     0.000000

                    Cartesian Multipole Moments
 -----------------------------------------------------------------
    Charge (ESU x 10^10)
                 0.0000
    Dipole Moment (Debye)
         X      -1.2933      Y       0.1544      Z      -0.2643
       Tot       1.3291
    Quadrupole Moments (Debye-Ang)
        XX     -85.2881     XY      -6.5563     YY    -109.9247
        XZ      -1.4725     YZ      -7.4663     ZZ    -104.4859

 Total job time:  414.94s(wall), 3095.31s(cpu)
        *  Thank you very much for using Q-Chem.  Have a nice day.  *
