 Q-Chem 5.4, Q-Chem, Inc., Pleasanton, CA (2021)
 Q-Chem 5.4.0 for Intel X86 EM64T Linux

User input:
--------------------------------------------------------------
$molecule
0 1
C                 -1.5538400000      0.3212260000      0.9082720000
C                 -2.0416940000      1.4316730000      0.3284070000
C                 -1.0738680000      2.3692710000     -0.3342830000
O                 -1.4650370000      3.3921870000     -0.8762140000
C                  0.3651990000      2.0311970000     -0.3195760000
C                  0.8530520000      0.9207500000      0.2602880000
C                 -0.1147940000     -0.0169490000      0.9228020000
O                  0.2763860000     -1.0398100000      1.4648290000
H                  1.0013910000      2.7542750000     -0.8167550000
C                  2.3034930000      0.5270220000      0.3057970000
C                  3.2885330000      1.4832280000     -0.3687350000
C                  4.7393720000      0.9965710000     -0.2695690000
C                  5.7450280000      1.9415660000     -0.9377740000
C                  7.1934490000      1.4476630000     -0.8362230000
C                  8.2588030000      2.4041510000     -1.4051990000
C                  9.6690650000      1.9005760000     -1.0666920000
C                  8.1122800000      2.6151030000     -2.9192080000
C                 -3.4921220000      1.8254550000      0.2829860000
C                 -4.4770780000      0.8696660000      0.9582300000
C                 -5.9278850000      1.3564670000      0.8592950000
C                 -6.9334710000      0.4118550000      1.5281480000
C                 -8.3818490000      0.9059410000      1.4268770000
C                 -9.4471710000     -0.0502110000      1.9964740000
C                -10.8574630000      0.4535170000      1.6583220000
C                 -9.3001540000     -0.2607870000      3.5104870000
H                 -2.1900170000     -0.4017950000      1.4055510000
H                  2.3911940000     -0.4752110000     -0.1314970000
H                  2.5775440000      0.3836030000      1.3582600000
H                  3.2116360000      2.4777930000      0.0869210000
H                  3.0222940000      1.6058630000     -1.4254920000
H                  4.8195490000      0.0013310000     -0.7249380000
H                  5.0075460000      0.8693620000      0.7868860000
H                  5.6693920000      2.9346100000     -0.4754590000
H                  5.4648020000      2.0717630000     -1.9891420000
H                  7.2832150000      0.4761470000     -1.3417480000
H                  7.4247830000      1.2607070000      0.2201030000
H                  8.1249220000      3.3783510000     -0.9145500000
H                  9.8045340000      1.7883890000      0.0131890000
H                 10.4354350000      2.5913790000     -1.4305210000
H                  9.8564450000      0.9248080000     -1.5286530000
H                  8.8874790000      3.2887680000     -3.2961850000
H                  7.1447620000      3.0483300000     -3.1841880000
H                  8.2113880000      1.6638990000     -3.4546350000
H                 -3.7663830000      1.9682930000     -0.7695070000
H                 -3.5796840000      2.8279360000      0.7197280000
H                 -4.2105220000      0.7474560000      2.0149580000
H                 -4.4004570000     -0.1251090000      0.5029850000
H                 -6.1963470000      1.4833070000     -0.1971300000
H                 -6.0078030000      2.3518900000      1.3143070000
H                 -6.6529370000      0.2819840000      2.5794740000
H                 -6.8581280000     -0.5813630000      1.0661570000
H                 -8.6134770000      1.0926050000      0.3705640000
H                 -8.4713160000      1.8776260000      1.9321310000
H                 -9.3136250000     -1.0245640000      1.5060360000
H                -11.6238250000     -0.2370630000      2.0225880000
H                -10.9932830000      0.5654540000      0.5784590000
H                -11.0445200000      1.4294350000      2.1201000000
H                -10.0753370000     -0.9342190000      3.8879130000
H                 -9.3989080000      0.6905750000      4.0456970000
H                 -8.3326170000     -0.6941120000      3.7752400000
$end

$rem
BASIS  =  6-311++G(d,p)
GUI  =  2
JOB_TYPE  =  SP
METHOD  =  B3LYP
SCF_CONVERGENCE  = 8
SOLVENT_METHOD = sm12
$end

$smx
solvent dimethylformamide
charges CM5
$end

--------------------------------------------------------------

             Standard Nuclear Orientation (Angstroms)
    I     Atom           X                Y                Z
 ----------------------------------------------------------------
    1      C      -1.5538400000     0.3212260000     0.9082720000
    2      C      -2.0416940000     1.4316730000     0.3284070000
    3      C      -1.0738680000     2.3692710000    -0.3342830000
    4      O      -1.4650370000     3.3921870000    -0.8762140000
    5      C       0.3651990000     2.0311970000    -0.3195760000
    6      C       0.8530520000     0.9207500000     0.2602880000
    7      C      -0.1147940000    -0.0169490000     0.9228020000
    8      O       0.2763860000    -1.0398100000     1.4648290000
    9      H       1.0013910000     2.7542750000    -0.8167550000
   10      C       2.3034930000     0.5270220000     0.3057970000
   11      C       3.2885330000     1.4832280000    -0.3687350000
   12      C       4.7393720000     0.9965710000    -0.2695690000
   13      C       5.7450280000     1.9415660000    -0.9377740000
   14      C       7.1934490000     1.4476630000    -0.8362230000
   15      C       8.2588030000     2.4041510000    -1.4051990000
   16      C       9.6690650000     1.9005760000    -1.0666920000
   17      C       8.1122800000     2.6151030000    -2.9192080000
   18      C      -3.4921220000     1.8254550000     0.2829860000
   19      C      -4.4770780000     0.8696660000     0.9582300000
   20      C      -5.9278850000     1.3564670000     0.8592950000
   21      C      -6.9334710000     0.4118550000     1.5281480000
   22      C      -8.3818490000     0.9059410000     1.4268770000
   23      C      -9.4471710000    -0.0502110000     1.9964740000
   24      C     -10.8574630000     0.4535170000     1.6583220000
   25      C      -9.3001540000    -0.2607870000     3.5104870000
   26      H      -2.1900170000    -0.4017950000     1.4055510000
   27      H       2.3911940000    -0.4752110000    -0.1314970000
   28      H       2.5775440000     0.3836030000     1.3582600000
   29      H       3.2116360000     2.4777930000     0.0869210000
   30      H       3.0222940000     1.6058630000    -1.4254920000
   31      H       4.8195490000     0.0013310000    -0.7249380000
   32      H       5.0075460000     0.8693620000     0.7868860000
   33      H       5.6693920000     2.9346100000    -0.4754590000
   34      H       5.4648020000     2.0717630000    -1.9891420000
   35      H       7.2832150000     0.4761470000    -1.3417480000
   36      H       7.4247830000     1.2607070000     0.2201030000
   37      H       8.1249220000     3.3783510000    -0.9145500000
   38      H       9.8045340000     1.7883890000     0.0131890000
   39      H      10.4354350000     2.5913790000    -1.4305210000
   40      H       9.8564450000     0.9248080000    -1.5286530000
   41      H       8.8874790000     3.2887680000    -3.2961850000
   42      H       7.1447620000     3.0483300000    -3.1841880000
   43      H       8.2113880000     1.6638990000    -3.4546350000
   44      H      -3.7663830000     1.9682930000    -0.7695070000
   45      H      -3.5796840000     2.8279360000     0.7197280000
   46      H      -4.2105220000     0.7474560000     2.0149580000
   47      H      -4.4004570000    -0.1251090000     0.5029850000
   48      H      -6.1963470000     1.4833070000    -0.1971300000
   49      H      -6.0078030000     2.3518900000     1.3143070000
   50      H      -6.6529370000     0.2819840000     2.5794740000
   51      H      -6.8581280000    -0.5813630000     1.0661570000
   52      H      -8.6134770000     1.0926050000     0.3705640000
   53      H      -8.4713160000     1.8776260000     1.9321310000
   54      H      -9.3136250000    -1.0245640000     1.5060360000
   55      H     -11.6238250000    -0.2370630000     2.0225880000
   56      H     -10.9932830000     0.5654540000     0.5784590000
   57      H     -11.0445200000     1.4294350000     2.1201000000
   58      H     -10.0753370000    -0.9342190000     3.8879130000
   59      H      -9.3989080000     0.6905750000     4.0456970000
   60      H      -8.3326170000    -0.6941120000     3.7752400000
 ----------------------------------------------------------------

   14   -1010.7636877844      3.60e-09  Convergence criterion met
 Total energy in the final basis set =    -1010.7846959452

                    Orbital Energies (a.u.)
 --------------------------------------------------------------

 Alpha MOs
 -- Occupied --
-19.1327 -19.1327 -10.2777 -10.2776 -10.2135 -10.2135 -10.1972 -10.1972
-10.1798 -10.1798 -10.1740 -10.1740 -10.1689 -10.1689 -10.1646 -10.1646
-10.1633 -10.1633 -10.1627 -10.1627 -10.1567 -10.1567 -10.1562 -10.1562
 -1.0642  -1.0622  -0.8646  -0.8310  -0.8188  -0.8148  -0.7953  -0.7813
 -0.7509  -0.7360  -0.7077  -0.6940  -0.6842  -0.6841  -0.6620  -0.6410
 -0.6108  -0.6067  -0.5845  -0.5776  -0.5705  -0.5598  -0.5587  -0.5177
 -0.4923  -0.4875  -0.4860  -0.4714  -0.4682  -0.4654  -0.4535  -0.4501
 -0.4419  -0.4411  -0.4389  -0.4324  -0.4308  -0.4278  -0.4180  -0.4154
 -0.4107  -0.4060  -0.3920  -0.3901  -0.3860  -0.3852  -0.3771  -0.3768
 -0.3705  -0.3703  -0.3564  -0.3550  -0.3490  -0.3480  -0.3396  -0.3382
 -0.3292  -0.3291  -0.3231  -0.3230  -0.3202  -0.3202  -0.3111  -0.3099
 -0.2994  -0.2833  -0.2803  -0.2692

          Ground-State Mulliken Net Atomic Charges

     Atom                 Charge (a.u.)
  ----------------------------------------
      1 C                    -0.695926
      2 C                     1.057640
      3 C                    -1.456097
      4 O                    -0.285440
      5 C                    -0.695857
      6 C                     1.057720
      7 C                    -1.456127
      8 O                    -0.285442
      9 H                     0.261594
     10 C                     0.032578
     11 C                     0.894386
     12 C                    -0.137852
     13 C                     0.231006
     14 C                    -1.027346
     15 C                     0.149627
     16 C                    -0.696102
     17 C                    -0.639359
     18 C                     0.032466
     19 C                     0.894540
     20 C                    -0.138017
     21 C                     0.231134
     22 C                    -1.027347
     23 C                     0.149651
     24 C                    -0.696126
     25 C                    -0.639354
     26 H                     0.261592
     27 H                     0.195583
     28 H                     0.196233
     29 H                     0.139293
     30 H                     0.139700
     31 H                     0.128880
     32 H                     0.109153
     33 H                     0.124246
     34 H                     0.068902
     35 H                     0.101754
     36 H                     0.124926
     37 H                     0.111969
     38 H                     0.149378
     39 H                     0.151428
     40 H                     0.137019
     41 H                     0.145064
     42 H                     0.150104
     43 H                     0.137590
     44 H                     0.196294
     45 H                     0.195531
     46 H                     0.139728
     47 H                     0.139259
     48 H                     0.109156
     49 H                     0.128884
     50 H                     0.068892
     51 H                     0.124255
     52 H                     0.124937
     53 H                     0.101738
     54 H                     0.111971
     55 H                     0.151428
     56 H                     0.149377
     57 H                     0.137018
     58 H                     0.145065
     59 H                     0.137592
     60 H                     0.150109
  ----------------------------------------
  Sum of atomic charges =     0.000000

                    Cartesian Multipole Moments
 -----------------------------------------------------------------
    Charge (ESU x 10^10)
                -0.0000
    Dipole Moment (Debye)
         X      -0.0000      Y       0.0000      Z       0.0001
       Tot       0.0001
    Quadrupole Moments (Debye-Ang)
        XX    -142.5677     XY       7.1245     YY    -166.5880
        XZ      -3.3004     YZ       8.1613     ZZ    -156.9194

 Total job time:  3288.55s(wall), 22194.38s(cpu)
        *  Thank you very much for using Q-Chem.  Have a nice day.  *
