 Gaussian 16, Revision A.03,
 Gaussian 16:  ES64L-G16RevA.03 25-Dec-2016

 --------------------------------------
 #P UB3LYP/6-311++G(d,p) nosym opt freq
 --------------------------------------

 -------
 Reduced
 -------
 Symbolic Z-matrix:
 Charge = -2 Multiplicity = 1

 SCF Done:  E(UB3LYP) =  -799.689335932     A.U. after   26 cycles
 SCF Done:  E(UB3LYP) =  -799.689335906     A.U. after   15 cycles
 SCF Done:  E(UB3LYP) =  -799.689335980     A.U. after   14 cycles
 Optimization completed.
    -- Stationary point found.
 Normal termination of Gaussian 16 at Wed Dec 27 21:08:33 2023.

 ----------------------------------------------------------------------
 #P Geom=AllCheck Guess=TCheck SCRF=Check GenChk UB3LYP/6-311++G(d,p) F
 req
 ----------------------------------------------------------------------

 Structure from the checkpoint file:  "167-an.chk"
 -------
 Reduced
 -------
 Charge = -2 Multiplicity = 1

                          Input orientation:
 ---------------------------------------------------------------------
 Center     Atomic      Atomic             Coordinates (Angstroms)
 Number     Number       Type             X           Y           Z
 ---------------------------------------------------------------------
      1          7           0        3.568998   -1.273136    0.179448
      2          6           0        2.873470   -0.075090   -0.063414
      3          6           0        3.570985    1.096226   -0.330659
      4          6           0        2.880131    2.324867   -0.505650
      5          6           0        1.510632    2.368039   -0.402427
      6          6           0        0.746455    1.192359   -0.145998
      7          6           0       -0.685986    1.317588   -0.080163
      8          8           0       -1.260651    2.482761   -0.242733
      9          6           0       -1.421520    0.098447    0.146262
     10          6           0       -2.864139    0.096334    0.231854
     11          7           0       -3.545563    1.326636    0.244721
     12          6           0       -3.570459   -1.095021    0.339957
     13          6           0       -2.885926   -2.338099    0.400615
     14          6           0       -1.512855   -2.373125    0.362163
     15          6           0       -0.741481   -1.181133    0.235310
     16          6           0        0.691223   -1.305744    0.174361
     17          8           0        1.260797   -2.482622    0.244097
     18          6           0        1.430246   -0.078621    0.011135
     19          1           0        2.887879   -2.060529    0.163226
     20          1           0        4.382380   -1.384880   -0.411453
     21          1           0        4.659764    1.065467   -0.356959
     22          1           0        3.446104    3.233676   -0.707987
     23          1           0        0.955206    3.291648   -0.518305
     24          1           0       -4.419772    1.299740   -0.263512
     25          1           0       -2.881182    2.076156   -0.039943
     26          1           0       -4.655980   -1.056849    0.425133
     27          1           0       -3.458032   -3.260888    0.492010
     28          1           0       -0.960726   -3.304209    0.418916
 ---------------------------------------------------------------------

 SCF Done:  E(UB3LYP) =  -799.689335980     A.U. after    2 cycles

 Alpha  occ. eigenvalues --  -18.77973 -18.77972 -14.05007 -14.05006  -9.95599
 Alpha  occ. eigenvalues --   -9.95599  -9.93569  -9.93568  -9.91877  -9.91877
 Alpha  occ. eigenvalues --   -9.90884  -9.90884  -9.90229  -9.90228  -9.90110
 Alpha  occ. eigenvalues --   -9.90110  -9.89599  -9.89598  -0.69903  -0.69488
 Alpha  occ. eigenvalues --   -0.65007  -0.64807  -0.57748  -0.56634  -0.51525
 Alpha  occ. eigenvalues --   -0.47202  -0.46835  -0.46279  -0.39917  -0.37104
 Alpha  occ. eigenvalues --   -0.36288  -0.31760  -0.29343  -0.28926  -0.26344
 Alpha  occ. eigenvalues --   -0.24633  -0.23521  -0.21670  -0.20644  -0.19279
 Alpha  occ. eigenvalues --   -0.19175  -0.16944  -0.16851  -0.14450  -0.14042
 Alpha  occ. eigenvalues --   -0.12627  -0.12440  -0.11794  -0.11500  -0.09620
 Alpha  occ. eigenvalues --   -0.08431  -0.08344  -0.08215  -0.06651  -0.04869
 Alpha  occ. eigenvalues --   -0.03832   0.01733   0.02167   0.03526   0.03889
 Alpha  occ. eigenvalues --    0.04650   0.05166   0.13507
 Alpha virt. eigenvalues --    0.16385   0.16399   0.17726   0.17785   0.19638
 Alpha virt. eigenvalues --    0.20211   0.21422   0.21542   0.22444   0.23355
 Alpha virt. eigenvalues --    0.24206   0.24498   0.26147   0.26490   0.26636

  Beta  occ. eigenvalues --  -18.77973 -18.77972 -14.05007 -14.05006  -9.95599
  Beta  occ. eigenvalues --   -9.95599  -9.93569  -9.93568  -9.91877  -9.91877
  Beta  occ. eigenvalues --   -9.90884  -9.90884  -9.90229  -9.90228  -9.90110
  Beta  occ. eigenvalues --   -9.90110  -9.89599  -9.89598  -0.69903  -0.69488
  Beta  occ. eigenvalues --   -0.65007  -0.64807  -0.57748  -0.56634  -0.51525
  Beta  occ. eigenvalues --   -0.47202  -0.46835  -0.46279  -0.39917  -0.37104
  Beta  occ. eigenvalues --   -0.36288  -0.31760  -0.29343  -0.28926  -0.26344
  Beta  occ. eigenvalues --   -0.24633  -0.23521  -0.21670  -0.20644  -0.19279
  Beta  occ. eigenvalues --   -0.19175  -0.16944  -0.16851  -0.14450  -0.14042
  Beta  occ. eigenvalues --   -0.12627  -0.12440  -0.11794  -0.11500  -0.09620
  Beta  occ. eigenvalues --   -0.08431  -0.08344  -0.08215  -0.06651  -0.04869
  Beta  occ. eigenvalues --   -0.03832   0.01733   0.02167   0.03526   0.03889
  Beta  occ. eigenvalues --    0.04650   0.05166   0.13507
  Beta virt. eigenvalues --    0.16385   0.16399   0.17726   0.17785   0.19638
  Beta virt. eigenvalues --    0.20211   0.21422   0.21542   0.22444   0.23355
  Beta virt. eigenvalues --    0.24206   0.24498   0.26147   0.26490   0.26636

 Mulliken charges and spin densities:
               1          2
     1  N   -0.419514  -0.000000
     2  C    0.045982   0.000000
     3  C   -0.207163   0.000000
     4  C   -0.456260  -0.000000
     5  C   -0.310033  -0.000000
     6  C    0.712335   0.000000
     7  C   -0.912020  -0.000000
     8  O   -0.509477   0.000000
     9  C    0.360317  -0.000000
    10  C    0.045760   0.000000
    11  N   -0.419429  -0.000000
    12  C   -0.207123   0.000000
    13  C   -0.456354  -0.000000
    14  C   -0.309890   0.000000
    15  C    0.712016   0.000000
    16  C   -0.912339  -0.000000
    17  O   -0.509471   0.000000
    18  C    0.360464  -0.000000
    19  H    0.300203  -0.000000
    20  H    0.167332   0.000000
    21  H    0.033414   0.000000
    22  H    0.071528  -0.000000
    23  H    0.123632  -0.000000
    24  H    0.167330   0.000000
    25  H    0.300164  -0.000000
    26  H    0.033456   0.000000
    27  H    0.071520  -0.000000
    28  H    0.123620   0.000000
 Sum of Mulliken charges =  -2.00000   0.00000

 Dipole moment (field-independent basis, Debye):
    X=             -0.1048    Y=             -0.2382    Z=             -1.8896  Tot=              1.9074
 Quadrupole moment (field-independent basis, Debye-Ang):
   XX=           -166.1321   YY=           -161.9867   ZZ=           -122.2823
   XY=              1.3214   XZ=              2.2968   YZ=              5.0283

  Exact polarizability: 564.897  54.868 298.290 -30.367 -22.947 144.918
 Approx polarizability: 750.416  87.530 545.908 -41.157 -47.803 213.337

                      1                      2                      3
                      A                      A                      A
 Frequencies --     57.5018                73.2464               105.1704
 Red. masses --      6.7438                 4.5950                 6.3975
 Frc consts  --      0.0131                 0.0145                 0.0417
 IR Inten    --      5.1215                 0.3391                 5.0113

                      4                      5                      6
                      A                      A                      A
 Frequencies --    169.5717               202.8197               222.9271
 Red. masses --      6.7216                 4.2291                 5.1187
 Frc consts  --      0.1139                 0.1025                 0.1499
 IR Inten    --      3.9102                 4.0608                 7.8221

                      7                      8                      9
                      A                      A                      A
 Frequencies --    224.6333               276.1488               315.7288
 Red. masses --      4.0066                 3.9449                 5.6609
 Frc consts  --      0.1191                 0.1772                 0.3325
 IR Inten    --      6.4656                14.0681                 1.7094

                     10                     11                     12
                      A                      A                      A
 Frequencies --    361.0222               391.4206               396.5072
 Red. masses --      5.0128                 6.0276                10.1445
 Frc consts  --      0.3849                 0.5441                 0.9397
 IR Inten    --      3.9785                21.6718                 0.0866

                     13                     14                     15
                      A                      A                      A
 Frequencies --    398.4750               422.3572               424.9755
 Red. masses --      1.8950                 1.2411                 8.2080
 Frc consts  --      0.1773                 0.1304                 0.8734
 IR Inten    --    161.0830                27.5310                 4.4428

                     16                     17                     18
                      A                      A                      A
 Frequencies --    452.1992               454.6756               491.0849
 Red. masses --      2.1597                 5.1110                 4.1934
 Frc consts  --      0.2602                 0.6225                 0.5958
 IR Inten    --    171.1292                 1.2747                 0.6258

                     19                     20                     21
                      A                      A                      A
 Frequencies --    513.7705               529.4158               536.3427
 Red. masses --      6.4581                 4.8282                 3.9939
 Frc consts  --      1.0044                 0.7973                 0.6769
 IR Inten    --      0.0050                 4.9172                13.5058

                     22                     23                     24
                      A                      A                      A
 Frequencies --    581.0671               585.6855               598.5017
 Red. masses --      4.8409                 5.6195                 5.7412
 Frc consts  --      0.9630                 1.1357                 1.2117
 IR Inten    --      2.9995                 1.5601                23.9391

                     25                     26                     27
                      A                      A                      A
 Frequencies --    642.2956               679.2046               701.6341
 Red. masses --      2.5982                 1.6109                 6.5575
 Frc consts  --      0.6315                 0.4378                 1.9020
 IR Inten    --     52.7180               120.4159                 0.9482

                     28                     29                     30
                      A                      A                      A
 Frequencies --    708.2598               732.5249               758.3506
 Red. masses --      1.4245                 2.4210                 4.5099
 Frc consts  --      0.4210                 0.7654                 1.5281
 IR Inten    --     28.9501                11.3738                 9.4672

                     31                     32                     33
                      A                      A                      A
 Frequencies --    760.7496               778.8060               781.7701
 Red. masses --      1.6496                 5.4307                 1.8771
 Frc consts  --      0.5625                 1.9407                 0.6759
 IR Inten    --     24.4063                56.9013                 8.7875

                     34                     35                     36
                      A                      A                      A
 Frequencies --    823.5297               850.1855               878.6389
 Red. masses --      6.0626                 6.9979                 2.7735
 Frc consts  --      2.4225                 2.9802                 1.2615
 IR Inten    --      7.0844                32.0844                42.7365

                     37                     38                     39
                      A                      A                      A
 Frequencies --    912.5897               926.2574               926.8697
 Red. masses --      1.4095                 1.2514                 1.2884
 Frc consts  --      0.6916                 0.6326                 0.6521
 IR Inten    --    246.3013                26.5447                14.2826

                     40                     41                     42
                      A                      A                      A
 Frequencies --    937.0571               983.5867              1033.9494
 Red. masses --      2.0835                 3.1646                 4.6653
 Frc consts  --      1.0779                 1.8038                 2.9385
 IR Inten    --     38.0913                12.7054               178.5885

                     43                     44                     45
                      A                      A                      A
 Frequencies --   1054.3913              1057.9107              1128.5638
 Red. masses --      1.8316                 2.0673                 1.5531
 Frc consts  --      1.1997                 1.3631                 1.1655
 IR Inten    --    174.3591                 0.9332               178.5117

                     46                     47                     48
                      A                      A                      A
 Frequencies --   1156.1507              1162.8806              1168.3257
 Red. masses --      1.1649                 3.4381                 1.6842
 Frc consts  --      0.9174                 2.7393                 1.3545
 IR Inten    --      0.1403                 0.7136               166.0765

                     49                     50                     51
                      A                      A                      A
 Frequencies --   1197.0532              1218.9369              1241.5502
 Red. masses --      1.3627                 2.9018                 2.9351
 Frc consts  --      1.1504                 2.5403                 2.6657
 IR Inten    --     13.9607               187.9258                89.2486

                     52                     53                     54
                      A                      A                      A
 Frequencies --   1251.4232              1275.9540              1309.0108
 Red. masses --      2.8244                 4.0833                 4.3480
 Frc consts  --      2.6060                 3.9168                 4.3896
 IR Inten    --    104.4578                 0.1170                 0.1161

                     55                     56                     57
                      A                      A                      A
 Frequencies --   1350.6334              1369.6104              1382.7023
 Red. masses --      5.2634                 3.1568                 2.0778
 Frc consts  --      5.6570                 3.4889                 2.3405
 IR Inten    --    199.6345               621.5301                 3.7553

                     58                     59                     60
                      A                      A                      A
 Frequencies --   1433.1920              1443.4773              1460.4271
 Red. masses --      7.7110                 2.3189                 2.3557
 Frc consts  --      9.3319                 2.8468                 2.9602
 IR Inten    --      0.0510                16.1745                 1.0145

                     61                     62                     63
                      A                      A                      A
 Frequencies --   1467.8913              1488.8750              1538.5076
 Red. masses --      3.2663                 4.9732                 5.7431
 Frc consts  --      4.1466                 6.4953                 8.0094
 IR Inten    --    238.4974                 0.0710               438.7566

                     64                     65                     66
                      A                      A                      A
 Frequencies --   1581.4130              1582.4231              1586.8762
 Red. masses --      2.9167                 3.7318                 4.5915
 Frc consts  --      4.2976                 5.5057                 6.8123
 IR Inten    --     79.6311                 3.1011                 0.5802

                     67                     68                     69
                      A                      A                      A
 Frequencies --   1611.1002              1612.1881              3048.7281
 Red. masses --      1.4954                 1.5569                 1.0742
 Frc consts  --      2.2869                 2.3841                 5.8825
 IR Inten    --    174.4784                 3.3769                14.4805

                     70                     71                     72
                      A                      A                      A
 Frequencies --   3048.9097              3082.3304              3082.6405
 Red. masses --      1.0748                 1.0825                 1.0828
 Frc consts  --      5.8867                 6.0594                 6.0626
 IR Inten    --    417.4123               103.6341                 2.5232

                     73                     74                     75
                      A                      A                      A
 Frequencies --   3106.9522              3107.3027              3174.0331
 Red. masses --      1.0916                 1.0912                 1.0905
 Frc consts  --      6.2085                 6.2077                 6.4729
 IR Inten    --    217.6005                 0.6969                62.8488

                     76                     77                     78
                      A                      A                      A
 Frequencies --   3174.4140              3564.1734              3564.3494
 Red. masses --      1.0905                 1.0776                 1.0777
 Frc consts  --      6.4745                 8.0657                 8.0667
 IR Inten    --      0.0181                11.5400                 2.3520

 - Thermochemistry -
 -------------------
 Temperature   298.150 Kelvin.  Pressure   1.00000 Atm.
 Atom     1 has atomic number  7 and mass  14.00307

 Molecular mass:   238.07423 amu.
 Principal axes and moments of inertia in atomic units:
                           1         2         3
     Eigenvalues --  2366.574514966.826877321.50888
           X            0.98252  -0.17795   0.05471
           Y            0.17009   0.97748   0.12488
           Z           -0.07570  -0.11339   0.99066
 This molecule is an asymmetric top.
 Rotational symmetry number  1.
 Warning -- assumption of classical behavior for rotation
           may cause significant error
 Rotational temperatures (Kelvin)      0.03660     0.01744     0.01183
 Rotational constants (GHZ):           0.76260     0.36336     0.24650
 Zero-point vibrational energy     542427.6 (Joules/Mol)
                                  129.64330 (Kcal/Mol)
 Warning -- explicit consideration of  24 degrees of freedom as
           vibrations may cause significant error
 Vibrational temperatures:     82.73   105.39   151.32   243.98   291.81
          (Kelvin)            320.74   323.20   397.32   454.26   519.43
                              563.17   570.49   573.32   607.68   611.44
                              650.61   654.18   706.56   739.20   761.71
                              771.68   836.03   842.67   861.11   924.12
                              977.22  1009.49  1019.03  1053.94  1091.10
                             1094.55  1120.53  1124.79  1184.88  1223.23
                             1264.17  1313.01  1332.68  1333.56  1348.22
                             1415.16  1487.62  1517.03  1522.10  1623.75
                             1663.44  1673.13  1680.96  1722.29  1753.78
                             1786.31  1800.52  1835.81  1883.37  1943.26
                             1970.56  1989.40  2062.04  2076.84  2101.23
                             2111.97  2142.16  2213.57  2275.30  2276.75
                             2283.16  2318.01  2319.58  4386.44  4386.70
                             4434.79  4435.23  4470.21  4470.72  4566.73
                             4567.27  5128.05  5128.30

 Zero-point correction=                           0.206600 (Hartree/Particle)
 Thermal correction to Energy=                    0.220256
 Thermal correction to Enthalpy=                  0.221201
 Thermal correction to Gibbs Free Energy=         0.166991
 Sum of electronic and zero-point Energies=           -799.482736
 Sum of electronic and thermal Energies=              -799.469080
 Sum of electronic and thermal Enthalpies=            -799.468135
 Sum of electronic and thermal Free Energies=         -799.522345

                     E (Thermal)             CV                S
                      KCal/Mol        Cal/Mol-Kelvin    Cal/Mol-Kelvin
 Total                  138.213             57.194            114.094
 Electronic               0.000              0.000              0.000
 Translational            0.889              2.981             42.304
 Rotational               0.889              2.981             32.820
 Vibrational            136.436             51.233             38.970
 Vibration     1          0.596              1.975              4.541
 Vibration     2          0.599              1.967              4.064
 Vibration     3          0.605              1.945              3.356
 Vibration     4          0.625              1.880              2.440
 Vibration     5          0.639              1.836              2.107
 Vibration     6          0.649              1.806              1.935
 Vibration     7          0.649              1.804              1.921
 Vibration     8          0.678              1.718              1.557
 Vibration     9          0.703              1.644              1.332
 Vibration    10          0.735              1.553              1.118
 Vibration    11          0.759              1.489              0.995
 Vibration    12          0.763              1.478              0.976
 Vibration    13          0.765              1.473              0.968
 Vibration    14          0.785              1.422              0.884
 Vibration    15          0.787              1.416              0.875
 Vibration    16          0.811              1.356              0.789
 Vibration    17          0.813              1.351              0.782
 Vibration    18          0.847              1.270              0.681
 Vibration    19          0.869              1.219              0.625
 Vibration    20          0.884              1.185              0.589
 Vibration    21          0.891              1.170              0.573
 Vibration    22          0.938              1.072              0.483
 Vibration    23          0.943              1.062              0.475
 Vibration    24          0.956              1.035              0.452

 Optimization completed.
    -- Stationary point found.
 Normal termination of Gaussian 16 at Wed Dec 27 22:07:55 2023.
