 Q-Chem 5.4, Q-Chem, Inc., Pleasanton, CA (2021)
 Q-Chem 5.4.0 for Intel X86 EM64T Linux

User input:
--------------------------------------------------------------
$molecule
-2 1
N                  3.5689980000     -1.2731360000      0.1794480000
C                  2.8734700000     -0.0750900000     -0.0634140000
C                  3.5709850000      1.0962260000     -0.3306590000
C                  2.8801310000      2.3248670000     -0.5056500000
C                  1.5106320000      2.3680390000     -0.4024270000
C                  0.7464550000      1.1923590000     -0.1459980000
C                 -0.6859860000      1.3175880000     -0.0801630000
O                 -1.2606510000      2.4827610000     -0.2427330000
C                 -1.4215200000      0.0984470000      0.1462620000
C                 -2.8641390000      0.0963340000      0.2318540000
N                 -3.5455630000      1.3266360000      0.2447210000
C                 -3.5704590000     -1.0950210000      0.3399570000
C                 -2.8859260000     -2.3380990000      0.4006150000
C                 -1.5128550000     -2.3731250000      0.3621630000
C                 -0.7414810000     -1.1811330000      0.2353100000
C                  0.6912230000     -1.3057440000      0.1743610000
O                  1.2607970000     -2.4826220000      0.2440970000
C                  1.4302460000     -0.0786210000      0.0111350000
H                  2.8878790000     -2.0605290000      0.1632260000
H                  4.3823800000     -1.3848800000     -0.4114530000
H                  4.6597640000      1.0654670000     -0.3569590000
H                  3.4461040000      3.2336760000     -0.7079870000
H                  0.9552060000      3.2916480000     -0.5183050000
H                 -4.4197720000      1.2997400000     -0.2635120000
H                 -2.8811820000      2.0761560000     -0.0399430000
H                 -4.6559800000     -1.0568490000      0.4251330000
H                 -3.4580320000     -3.2608880000      0.4920100000
H                 -0.9607260000     -3.3042090000      0.4189160000
$end
$rem
MAX_SCF_CYCLES=200
BASIS  =  6-311++G(d,p)
GUI  =  2
JOB_TYPE  =  SP
METHOD  =  B3LYP
SOLVENT_METHOD = PCM
$end
$pcm
theory = CPCM
$end
$solvent
dielectric 37.219
opticaldielectric 1.43
$end

--------------------------------------------------------------

             Standard Nuclear Orientation (Angstroms)
    I     Atom           X                Y                Z
 ----------------------------------------------------------------
    1      N       3.5689980000    -1.2731360000     0.1794480000
    2      C       2.8734700000    -0.0750900000    -0.0634140000
    3      C       3.5709850000     1.0962260000    -0.3306590000
    4      C       2.8801310000     2.3248670000    -0.5056500000
    5      C       1.5106320000     2.3680390000    -0.4024270000
    6      C       0.7464550000     1.1923590000    -0.1459980000
    7      C      -0.6859860000     1.3175880000    -0.0801630000
    8      O      -1.2606510000     2.4827610000    -0.2427330000
    9      C      -1.4215200000     0.0984470000     0.1462620000
   10      C      -2.8641390000     0.0963340000     0.2318540000
   11      N      -3.5455630000     1.3266360000     0.2447210000
   12      C      -3.5704590000    -1.0950210000     0.3399570000
   13      C      -2.8859260000    -2.3380990000     0.4006150000
   14      C      -1.5128550000    -2.3731250000     0.3621630000
   15      C      -0.7414810000    -1.1811330000     0.2353100000
   16      C       0.6912230000    -1.3057440000     0.1743610000
   17      O       1.2607970000    -2.4826220000     0.2440970000
   18      C       1.4302460000    -0.0786210000     0.0111350000
   19      H       2.8878790000    -2.0605290000     0.1632260000
   20      H       4.3823800000    -1.3848800000    -0.4114530000
   21      H       4.6597640000     1.0654670000    -0.3569590000
   22      H       3.4461040000     3.2336760000    -0.7079870000
   23      H       0.9552060000     3.2916480000    -0.5183050000
   24      H      -4.4197720000     1.2997400000    -0.2635120000
   25      H      -2.8811820000     2.0761560000    -0.0399430000
   26      H      -4.6559800000    -1.0568490000     0.4251330000
   27      H      -3.4580320000    -3.2608880000     0.4920100000
   28      H      -0.9607260000    -3.3042090000     0.4189160000
 ----------------------------------------------------------------

    8    -799.9569522222      8.23e-06  Convergence criterion met
 Total energy in the final basis set =     -799.9569522222

                    Orbital Energies (a.u.)
 --------------------------------------------------------------

 Alpha MOs
 -- Occupied --
-19.0290 -19.0290 -14.2772 -14.2772 -10.1884 -10.1884 -10.1801 -10.1801
-10.1471 -10.1470 -10.1431 -10.1431 -10.1376 -10.1376 -10.1361 -10.1361
-10.1345 -10.1345  -0.9478  -0.9441  -0.8815  -0.8798  -0.8148  -0.7999
 -0.7517  -0.7072  -0.7047  -0.6963  -0.6374  -0.6041  -0.5970  -0.5495
 -0.5251  -0.5239  -0.4961  -0.4744  -0.4645  -0.4479  -0.4415  -0.4257
 -0.4248  -0.4021  -0.4018  -0.3879  -0.3787  -0.3667  -0.3599  -0.3564
 -0.3477  -0.3319  -0.3291  -0.3244  -0.3175  -0.3075  -0.2849  -0.2762
 -0.2306  -0.2166  -0.2127  -0.2051  -0.1931  -0.1867  -0.1099

          Ground-State Mulliken Net Atomic Charges

     Atom                 Charge (a.u.)
  ----------------------------------------
      1 N                    -0.491154
      2 C                     0.014404
      3 C                    -0.280137
      4 C                    -0.453769
      5 C                    -0.346858
      6 C                     0.467794
      7 C                    -0.605720
      8 O                    -0.656417
      9 C                     0.305501
     10 C                     0.015073
     11 N                    -0.491246
     12 C                    -0.283701
     13 C                    -0.453885
     14 C                    -0.345889
     15 C                     0.468418
     16 C                    -0.604255
     17 O                    -0.656900
     18 C                     0.301437
     19 H                     0.317036
     20 H                     0.259733
     21 H                     0.157158
     22 H                     0.173272
     23 H                     0.141953
     24 H                     0.259599
     25 H                     0.316642
     26 H                     0.157151
     27 H                     0.173109
     28 H                     0.141652
  ----------------------------------------
  Sum of atomic charges =    -2.000000

                    Cartesian Multipole Moments
 -----------------------------------------------------------------
    Charge (ESU x 10^10)
                -9.6064
    Dipole Moment (Debye)
         X      -0.1595      Y      -0.3614      Z      -2.8036
       Tot       2.8313
    Quadrupole Moments (Debye-Ang)
        XX    -136.5183     XY      10.2052     YY    -157.9799
        XZ      -0.4133     YZ       4.1374     ZZ    -121.2333

 Total job time:  113.41s(wall), 344.63s(cpu)
        *  Thank you very much for using Q-Chem.  Have a nice day.  *
