 Gaussian 16, Revision A.03,
 Gaussian 16:  ES64L-G16RevA.03 25-Dec-2016

 ----------------------------------------------------------------
 #P UB3LYP/6-311++G(d,p) SCRF=(PCM,Solvent=n,n-DiMethylFormamide)
 ----------------------------------------------------------------

 ------------------
 Radical PCM in DMF
 ------------------
 Symbolic Z-matrix:
 Charge = -1 Multiplicity = 2

                         Standard orientation:
 ---------------------------------------------------------------------
 Center     Atomic      Atomic             Coordinates (Angstroms)
 Number     Number       Type             X           Y           Z
 ---------------------------------------------------------------------
      1          8           0        0.289859    2.656283    0.000139
      2          6           0        0.314681    1.365665   -0.000024
      3          6           0       -0.916080    0.597277   -0.000158
      4          6           0       -2.192174    1.225860   -0.000150
      5          6           0       -3.350097    0.451241    0.000099
      6          6           0       -3.279953   -0.947462    0.000270
      7          6           0       -2.037712   -1.580364    0.000156
      8          6           0       -0.883809   -0.805302   -0.000119
      9          8           0        0.310944   -1.507253   -0.000302
     10          6           0        1.513227   -0.811975   -0.000236
     11          6           0        2.667274   -1.571199   -0.000395
     12          6           0        3.926402   -0.934336   -0.000137
     13          6           0        3.982223    0.461391    0.000339
     14          6           0        2.817129    1.221048    0.000437
     15          6           0        1.535895    0.606804    0.000077
     16          8           0       -2.266233    2.580534   -0.000365
     17          1           0       -4.310367    0.954836    0.000157
     18          1           0       -4.178495   -1.553260    0.000490
     19          8           0       -1.957294   -2.962338    0.000294
     20          1           0        2.583090   -2.652601   -0.000676
     21          1           0        4.833424   -1.528531   -0.000272
     22          1           0        4.946634    0.961601    0.000597
     23          1           0        2.845657    2.303691    0.000784
     24          1           0       -1.302870    2.887441   -0.000431
     25          1           0       -1.017316   -3.182867    0.000269
 ---------------------------------------------------------------------

 SCF Done:  E(UB3LYP) =  -801.447416080     A.U. after   19 cycles

 The electronic state is 2-A.
 Alpha  occ. eigenvalues --  -19.17740 -19.15028 -19.12228 -19.06972 -10.23681
 Alpha  occ. eigenvalues --  -10.23377 -10.22433 -10.22314 -10.21129 -10.17411
 Alpha  occ. eigenvalues --  -10.17234 -10.16933 -10.16688 -10.16633 -10.16556
 Alpha  occ. eigenvalues --  -10.16336 -10.16248  -1.09581  -1.05336  -1.04247
 Alpha  occ. eigenvalues --   -0.98349  -0.85536  -0.84562  -0.77493  -0.76237
 Alpha  occ. eigenvalues --   -0.74058  -0.72097  -0.65609  -0.64726  -0.60040
 Alpha  occ. eigenvalues --   -0.59290  -0.55652  -0.55205  -0.53925  -0.52039
 Alpha  occ. eigenvalues --   -0.47859  -0.47373  -0.46597  -0.46318  -0.43213
 Alpha  occ. eigenvalues --   -0.42526  -0.41650  -0.40860  -0.40662  -0.40230
 Alpha  occ. eigenvalues --   -0.39839  -0.39125  -0.37003  -0.36828  -0.35914
 Alpha  occ. eigenvalues --   -0.35021  -0.34709  -0.33348  -0.30503  -0.26182
 Alpha  occ. eigenvalues --   -0.25544  -0.24421  -0.24092  -0.20074  -0.11156
 Alpha virt. eigenvalues --   -0.02125  -0.00481  -0.00379   0.00521   0.00855
 Alpha virt. eigenvalues --    0.01730   0.01968   0.02470   0.03945   0.04200
 Alpha virt. eigenvalues --    0.04471   0.04569   0.05136   0.06654   0.06751

  Beta  occ. eigenvalues --  -19.17607 -19.15047 -19.12150 -19.06480 -10.23560
  Beta  occ. eigenvalues --  -10.23210 -10.22502 -10.22145 -10.20634 -10.17531
  Beta  occ. eigenvalues --  -10.17318 -10.16733 -10.16692 -10.16672 -10.16416
  Beta  occ. eigenvalues --  -10.16361 -10.15986  -1.09355  -1.05349  -1.04033
  Beta  occ. eigenvalues --   -0.97412  -0.85317  -0.84324  -0.77082  -0.75958
  Beta  occ. eigenvalues --   -0.73810  -0.71956  -0.65261  -0.64303  -0.59862
  Beta  occ. eigenvalues --   -0.59006  -0.55400  -0.55031  -0.53683  -0.51948
  Beta  occ. eigenvalues --   -0.47773  -0.47191  -0.46442  -0.45650  -0.43027
  Beta  occ. eigenvalues --   -0.42374  -0.41429  -0.40664  -0.40159  -0.40061
  Beta  occ. eigenvalues --   -0.39139  -0.39008  -0.36900  -0.35785  -0.35558
  Beta  occ. eigenvalues --   -0.34915  -0.33326  -0.33204  -0.29977  -0.25383
  Beta  occ. eigenvalues --   -0.24189  -0.24039  -0.23059  -0.19635
  Beta virt. eigenvalues --   -0.05038  -0.01430  -0.00372   0.00408   0.00522
  Beta virt. eigenvalues --    0.00862   0.01752   0.02462   0.02555   0.03969
  Beta virt. eigenvalues --    0.04210   0.04471   0.04671   0.06507   0.06752

 Mulliken charges and spin densities:
               1          2
     1  O   -0.573438   0.179486
     2  C   -0.069647   0.307874
     3  C    1.240554  -0.090589
     4  C   -0.091019   0.137839
     5  C   -0.061460  -0.068625
     6  C   -0.052527   0.156661
     7  C   -1.012417  -0.054530
     8  C   -0.325936   0.098513
     9  O   -0.171870   0.029766
    10  C   -1.224401   0.074873
    11  C   -0.370476  -0.028416
    12  C   -0.464827   0.210926
    13  C   -0.259303  -0.079914
    14  C    0.146537   0.233977
    15  C    1.273229  -0.087823
    16  O   -0.408304   0.021226
    17  H    0.188346   0.003745
    18  H    0.197833  -0.012104
    19  O   -0.311197  -0.003048
    20  H    0.179933  -0.000144
    21  H    0.175393  -0.015351
    22  H    0.168868   0.004998
    23  H    0.179234  -0.014728
    24  H    0.345569  -0.004517
    25  H    0.301325  -0.000096
 Sum of Mulliken charges =  -1.00000   1.00000

 Dipole moment (field-independent basis, Debye):
    X=              2.3086    Y=             -6.5662    Z=             -0.0001  Tot=              6.9602
 Quadrupole moment (field-independent basis, Debye-Ang):
   XX=           -117.0088   YY=           -126.6372   ZZ=           -106.2107
   XY=             -1.6751   XZ=             -0.0007   YZ=              0.0004

 Normal termination of Gaussian 16 at Sat Jan 13 19:19:19 2024.
