 Q-Chem 5.4, Q-Chem, Inc., Pleasanton, CA (2021)
 Q-Chem 5.4.0 for Intel X86 EM64T Linux

User input:
--------------------------------------------------------------
$molecule
0 1
C                  0.1667190000      3.7960990000     -0.2079950000
C                 -0.9435890000      3.6787720000     -1.0384350000
C                 -1.0046290000      2.6502930000     -1.9805320000
C                  1.2166770000      2.8818360000     -0.3225590000
C                  1.1581360000      1.8459890000     -1.2692340000
C                  0.0414190000      1.7365620000     -2.0959760000
C                  2.3995900000      2.9919750000      0.5502890000
C                  3.4945910000      1.9936900000      0.3832880000
C                  3.4574510000      0.9804010000     -0.5169010000
C                  2.2807370000      0.8554670000     -1.4025350000
O                  2.5411800000      3.8562180000      1.4082880000
O                  2.2115330000     -0.0403210000     -2.2326460000
H                  0.2368660000      4.5850850000      0.5307630000
H                 -1.7602280000      4.3862620000     -0.9532100000
H                 -1.8705050000      2.5606650000     -2.6267170000
H                  0.0101320000      0.9329240000     -2.8211520000
O                  4.5324950000      2.1797380000      1.2150990000
H                  4.3053500000      2.9563510000      1.7611260000
C                  4.5838010000     -0.0025900000     -0.6729460000
C                  5.5927500000      0.4342430000     -1.7587920000
C                  6.7086500000     -0.5905800000     -2.0420980000
C                  7.5092720000     -0.1549650000     -3.2861210000
C                  8.5032040000     -1.1915130000     -3.8273300000
C                  9.1899160000     -0.7325660000     -5.1204270000
C                 10.1297900000     -1.7646190000     -5.7724710000
C                 10.5899470000     -1.2761190000     -7.1533610000
C                  7.6153780000     -0.8046160000     -0.8206730000
C                 11.3415430000     -2.0989720000     -4.8902660000
H                  4.1612410000     -0.9708110000     -0.9537160000
H                  5.0885460000     -0.1136710000      0.2880690000
H                  6.0438920000      1.3906310000     -1.4669320000
H                  5.0402020000      0.6145310000     -2.6863160000
H                  6.2231500000     -1.5478910000     -2.2801600000
H                  8.0447730000      0.7767080000     -3.0567910000
H                  6.7989640000      0.0930300000     -4.0845560000
H                  7.9713790000     -2.1334320000     -4.0175730000
H                  9.2590020000     -1.4125320000     -3.0681190000
H                  9.7566280000      0.1884740000     -4.9247110000
H                  8.4157360000     -0.4610100000     -5.8492320000
H                  9.5546920000     -2.6894640000     -5.9196650000
H                  9.7381110000     -1.0771120000     -7.8105430000
H                 11.2269640000     -2.0172170000     -7.6454300000
H                 11.1669670000     -0.3485940000     -7.0666670000
H                  8.3861690000     -1.5532640000     -1.0171820000
H                  7.0516090000     -1.1474520000      0.0501810000
H                  8.1184980000      0.1291490000     -0.5448930000
H                 11.0465280000     -2.5239710000     -3.9278470000
H                 11.9359150000     -1.1998490000     -4.6910990000
H                 11.9951660000     -2.8248730000     -5.3831800000
$end

$rem
BASIS  =  6-311++G(d,p)
GUI  =  2
JOB_TYPE  =  SP
METHOD  =  B3LYP
SCF_CONVERGENCE  = 8
SOLVENT_METHOD = sm12
$end

$smx
solvent dimethylformamide
charges CM5
$end

--------------------------------------------------------------

             Standard Nuclear Orientation (Angstroms)
    I     Atom           X                Y                Z
 ----------------------------------------------------------------
    1      C       0.1667190000     3.7960990000    -0.2079950000
    2      C      -0.9435890000     3.6787720000    -1.0384350000
    3      C      -1.0046290000     2.6502930000    -1.9805320000
    4      C       1.2166770000     2.8818360000    -0.3225590000
    5      C       1.1581360000     1.8459890000    -1.2692340000
    6      C       0.0414190000     1.7365620000    -2.0959760000
    7      C       2.3995900000     2.9919750000     0.5502890000
    8      C       3.4945910000     1.9936900000     0.3832880000
    9      C       3.4574510000     0.9804010000    -0.5169010000
   10      C       2.2807370000     0.8554670000    -1.4025350000
   11      O       2.5411800000     3.8562180000     1.4082880000
   12      O       2.2115330000    -0.0403210000    -2.2326460000
   13      H       0.2368660000     4.5850850000     0.5307630000
   14      H      -1.7602280000     4.3862620000    -0.9532100000
   15      H      -1.8705050000     2.5606650000    -2.6267170000
   16      H       0.0101320000     0.9329240000    -2.8211520000
   17      O       4.5324950000     2.1797380000     1.2150990000
   18      H       4.3053500000     2.9563510000     1.7611260000
   19      C       4.5838010000    -0.0025900000    -0.6729460000
   20      C       5.5927500000     0.4342430000    -1.7587920000
   21      C       6.7086500000    -0.5905800000    -2.0420980000
   22      C       7.5092720000    -0.1549650000    -3.2861210000
   23      C       8.5032040000    -1.1915130000    -3.8273300000
   24      C       9.1899160000    -0.7325660000    -5.1204270000
   25      C      10.1297900000    -1.7646190000    -5.7724710000
   26      C      10.5899470000    -1.2761190000    -7.1533610000
   27      C       7.6153780000    -0.8046160000    -0.8206730000
   28      C      11.3415430000    -2.0989720000    -4.8902660000
   29      H       4.1612410000    -0.9708110000    -0.9537160000
   30      H       5.0885460000    -0.1136710000     0.2880690000
   31      H       6.0438920000     1.3906310000    -1.4669320000
   32      H       5.0402020000     0.6145310000    -2.6863160000
   33      H       6.2231500000    -1.5478910000    -2.2801600000
   34      H       8.0447730000     0.7767080000    -3.0567910000
   35      H       6.7989640000     0.0930300000    -4.0845560000
   36      H       7.9713790000    -2.1334320000    -4.0175730000
   37      H       9.2590020000    -1.4125320000    -3.0681190000
   38      H       9.7566280000     0.1884740000    -4.9247110000
   39      H       8.4157360000    -0.4610100000    -5.8492320000
   40      H       9.5546920000    -2.6894640000    -5.9196650000
   41      H       9.7381110000    -1.0771120000    -7.8105430000
   42      H      11.2269640000    -2.0172170000    -7.6454300000
   43      H      11.1669670000    -0.3485940000    -7.0666670000
   44      H       8.3861690000    -1.5532640000    -1.0171820000
   45      H       7.0516090000    -1.1474520000     0.0501810000
   46      H       8.1184980000     0.1291490000    -0.5448930000
   47      H      11.0465280000    -2.5239710000    -3.9278470000
   48      H      11.9359150000    -1.1998490000    -4.6910990000
   49      H      11.9951660000    -2.8248730000    -5.3831800000
 ----------------------------------------------------------------

   15   -1003.7648364842      8.74e-09  Convergence criterion met
 Total energy in the final basis set =    -1003.7864699524

                    Orbital Energies (a.u.)
 --------------------------------------------------------------

 Alpha MOs
 -- Occupied --
-19.1787 -19.1484 -19.1260 -10.2923 -10.2782 -10.2672 -10.2108 -10.2094
-10.2043 -10.2008 -10.1989 -10.1971 -10.1970 -10.1768 -10.1740 -10.1732
-10.1682 -10.1629 -10.1627 -10.1622 -10.1570 -10.1564 -10.1556  -1.1087
 -1.0666  -1.0593  -0.8922  -0.8454  -0.8234  -0.8082  -0.7868  -0.7793
 -0.7555  -0.7286  -0.6935  -0.6843  -0.6779  -0.6613  -0.6488  -0.6203
 -0.6050  -0.5912  -0.5735  -0.5643  -0.5562  -0.5418  -0.5181  -0.4963
 -0.4816  -0.4803  -0.4723  -0.4646  -0.4630  -0.4525  -0.4518  -0.4463
 -0.4404  -0.4362  -0.4253  -0.4223  -0.4194  -0.4084  -0.4065  -0.3964
 -0.3921  -0.3851  -0.3823  -0.3784  -0.3758  -0.3693  -0.3639  -0.3593
 -0.3539  -0.3474  -0.3353  -0.3275  -0.3233  -0.3218  -0.3159  -0.3075
 -0.3008  -0.2888  -0.2793  -0.2764  -0.2568

          Ground-State Mulliken Net Atomic Charges

     Atom                 Charge (a.u.)
  ----------------------------------------
      1 C                     0.331444
      2 C                     0.432500
      3 C                     0.397311
      4 C                     0.572163
      5 C                    -0.729565
      6 C                    -0.002095
      7 C                    -1.201887
      8 C                    -0.640196
      9 C                     1.638201
     10 C                    -1.591910
     11 O                    -0.292207
     12 O                    -0.277023
     13 H                     0.216790
     14 H                     0.330145
     15 H                     0.316141
     16 H                     0.184917
     17 O                    -0.186660
     18 H                     0.291958
     19 C                     0.054286
     20 C                    -1.013425
     21 C                     1.280402
     22 C                    -0.576790
     23 C                     0.097226
     24 C                    -0.839433
     25 C                     0.339507
     26 C                    -0.597931
     27 C                    -0.636213
     28 C                    -0.635163
     29 H                     0.187169
     30 H                     0.210957
     31 H                     0.139822
     32 H                     0.100473
     33 H                     0.078733
     34 H                     0.119221
     35 H                     0.097546
     36 H                     0.131065
     37 H                     0.023049
     38 H                     0.110206
     39 H                     0.113624
     40 H                     0.108493
     41 H                     0.148649
     42 H                     0.162103
     43 H                     0.137027
     44 H                     0.159948
     45 H                     0.138463
     46 H                     0.132720
     47 H                     0.149135
     48 H                     0.136076
     49 H                     0.153031
  ----------------------------------------
  Sum of atomic charges =     0.000000

                    Cartesian Multipole Moments
 -----------------------------------------------------------------
    Charge (ESU x 10^10)
                -0.0000
    Dipole Moment (Debye)
         X      -2.5053      Y       1.6272      Z      -0.2403
       Tot       2.9970
    Quadrupole Moments (Debye-Ang)
        XX    -141.6648     XY      -7.4837     YY    -138.1223
        XZ       5.0013     YZ      -5.5693     ZZ    -145.3013

 Total job time:  2522.83s(wall), 17937.84s(cpu)
        *  Thank you very much for using Q-Chem.  Have a nice day.  *
