 Gaussian 16, Revision A.03,
 Gaussian 16:  ES64L-G16RevA.03 25-Dec-2016

 ----------------------------------------------------------------
 #P UB3LYP/6-311++G(d,p) SCRF=(PCM,Solvent=n,n-DiMethylFormamide)
 ----------------------------------------------------------------

 ------------------
 Radical PCM in DMF
 ------------------
 Symbolic Z-matrix:
 Charge = -1 Multiplicity = 2

                         Standard orientation:
 ---------------------------------------------------------------------
 Center     Atomic      Atomic             Coordinates (Angstroms)
 Number     Number       Type             X           Y           Z
 ---------------------------------------------------------------------
      1          8           0       -0.804243    2.737871   -0.396551
      2          6           0       -0.765774    1.501006   -0.193734
      3          6           0       -2.055426    0.744848   -0.116952
      4          8           0       -2.309271   -0.000127    1.094140
      5          6           0       -2.055450   -0.744775   -0.117656
      6          6           0       -0.765858   -1.500880   -0.194046
      7          8           0       -0.804249   -2.737859   -0.396423
      8          6           0        0.442292   -0.723310   -0.044185
      9          6           0        1.687733   -1.396609    0.047305
     10          6           0        2.876673   -0.711472    0.145789
     11          6           0        2.876771    0.711351    0.145668
     12          6           0        1.687867    1.396572    0.047175
     13          6           0        0.442385    0.723381   -0.044140
     14          1           0       -2.922507    1.287898   -0.488801
     15          1           0       -2.922755   -1.287393   -0.489468
     16          1           0        1.665303   -2.480859    0.035089
     17          1           0        3.814573   -1.253542    0.223924
     18          1           0        3.814739    1.253309    0.223720
     19          1           0        1.665478    2.480827    0.034856
 ---------------------------------------------------------------------

 SCF Done:  E(UB3LYP) =  -610.602338818     A.U. after   18 cycles

 The electronic state is 2-A.
 Alpha  occ. eigenvalues --  -19.14566 -19.08533 -19.08531 -10.22827 -10.22825
 Alpha  occ. eigenvalues --  -10.22674 -10.22646 -10.17145 -10.17109 -10.17016
 Alpha  occ. eigenvalues --  -10.16988 -10.16941 -10.16925  -1.08143  -1.00830
 Alpha  occ. eigenvalues --   -1.00766  -0.85254  -0.77280  -0.75194  -0.70040
 Alpha  occ. eigenvalues --   -0.69186  -0.62797  -0.61509  -0.56174  -0.52033
 Alpha  occ. eigenvalues --   -0.51774  -0.50249  -0.46297  -0.44365  -0.43318
 Alpha  occ. eigenvalues --   -0.42488  -0.41296  -0.41160  -0.40877  -0.40737
 Alpha  occ. eigenvalues --   -0.36823  -0.35242  -0.35071  -0.33909  -0.31761
 Alpha  occ. eigenvalues --   -0.29750  -0.25919  -0.25861  -0.24484  -0.24360
 Alpha  occ. eigenvalues --   -0.13450
 Alpha virt. eigenvalues --   -0.05254  -0.00017   0.01047   0.01337   0.01621
 Alpha virt. eigenvalues --    0.01659   0.02836   0.03117   0.04996   0.05529
 Alpha virt. eigenvalues --    0.05600   0.06260   0.06805   0.06837   0.09335

  Beta  occ. eigenvalues --  -19.14472 -19.08021 -19.08018 -10.22688 -10.22660
  Beta  occ. eigenvalues --  -10.22605 -10.22604 -10.17003 -10.16990 -10.16962
  Beta  occ. eigenvalues --  -10.16933 -10.16892 -10.16852  -1.08016  -0.99899
  Beta  occ. eigenvalues --   -0.99850  -0.84949  -0.76709  -0.74854  -0.69837
  Beta  occ. eigenvalues --   -0.68553  -0.62346  -0.61333  -0.55949  -0.51658
  Beta  occ. eigenvalues --   -0.51607  -0.50118  -0.46015  -0.43879  -0.42967
  Beta  occ. eigenvalues --   -0.42373  -0.40789  -0.40624  -0.40484  -0.39387
  Beta  occ. eigenvalues --   -0.35691  -0.34546  -0.33916  -0.33735  -0.31060
  Beta  occ. eigenvalues --   -0.29249  -0.25017  -0.24405  -0.23994  -0.23685
  Beta virt. eigenvalues --   -0.07085  -0.03839  -0.00005   0.01056   0.01496
  Beta virt. eigenvalues --    0.02242   0.02689   0.02856   0.03280   0.05432
  Beta virt. eigenvalues --    0.05609   0.05682   0.06631   0.06836   0.06961

 Mulliken charges and spin densities:
               1          2
     1  O   -0.465258   0.182389
     2  C   -0.207256   0.122347
     3  C   -0.100839  -0.001415
     4  O   -0.187939   0.024775
     5  C   -0.099619  -0.001410
     6  C   -0.206746   0.122442
     7  O   -0.465329   0.182508
     8  C    0.008576   0.100786
     9  C    0.165202   0.018051
    10  C   -0.370486   0.068768
    11  C   -0.370254   0.068892
    12  C    0.164788   0.017912
    13  C    0.007993   0.100777
    14  H    0.220529   0.002541
    15  H    0.220739   0.002542
    16  H    0.163721  -0.000188
    17  H    0.179224  -0.005764
    18  H    0.179227  -0.005771
    19  H    0.163726  -0.000181
 Sum of Mulliken charges =  -1.00000   1.00000

 Dipole moment (field-independent basis, Debye):
    X=              3.0799    Y=              0.0018    Z=             -0.4270  Tot=              3.1094
 Quadrupole moment (field-independent basis, Debye-Ang):
   XX=            -77.4004   YY=           -112.3455   ZZ=            -83.1916
   XY=             -0.0018   XZ=              4.7436   YZ=              0.0024

 Normal termination of Gaussian 16 at Thu Jan 25 05:45:25 2024.
