 Gaussian 16, Revision A.03,
 Gaussian 16:  ES64L-G16RevA.03 25-Dec-2016

 ----------------------------------------------------------------
 #P UB3LYP/6-311++G(d,p) SCRF=(PCM,Solvent=n,n-DiMethylFormamide)
 ----------------------------------------------------------------

 ------------------
 Radical PCM in DMF
 ------------------
 Symbolic Z-matrix:
 Charge = -1 Multiplicity = 2

                         Standard orientation:
 ---------------------------------------------------------------------
 Center     Atomic      Atomic             Coordinates (Angstroms)
 Number     Number       Type             X           Y           Z
 ---------------------------------------------------------------------
      1          8           0        4.891768   -1.155162   -0.000043
      2          6           0        3.663982   -0.514460    0.000056
      3          6           0        3.680587    0.895242    0.000225
      4          6           0        2.481231    1.578483    0.000153
      5          6           0        1.241948    0.906253    0.000010
      6          6           0        0.000005    1.684906    0.000318
      7          8           0        0.000047    2.937925   -0.000431
      8          6           0       -1.241951    0.906280   -0.000029
      9          6           0       -2.481250    1.578500    0.000146
     10          6           0       -3.680580    0.895247    0.000245
     11          6           0       -3.663969   -0.514484    0.000022
     12          8           0       -4.891769   -1.155127   -0.000075
     13          6           0       -2.472820   -1.205716   -0.000295
     14          6           0       -1.237071   -0.518352   -0.000255
     15          6           0       -0.000022   -1.291273   -0.000711
     16          8           0       -0.000044   -2.555062    0.000518
     17          6           0        1.237092   -0.518384   -0.000185
     18          6           0        2.472817   -1.205719   -0.000161
     19          1           0        4.729482   -2.104135    0.000756
     20          1           0        4.632747    1.413797    0.000436
     21          1           0        2.458738    2.662314    0.000382
     22          1           0       -2.458778    2.662333    0.000447
     23          1           0       -4.632765    1.413758    0.000534
     24          1           0       -4.729541   -2.104107    0.001657
     25          1           0       -2.440972   -2.291842   -0.000677
     26          1           0        2.441079   -2.291850   -0.000506
 ---------------------------------------------------------------------

 SCF Done:  E(UB3LYP) =  -839.598665082     A.U. after   18 cycles

 The electronic state is 2-A.
 Alpha  occ. eigenvalues --  -19.15732 -19.15732 -19.07652 -19.07307 -10.23764
 Alpha  occ. eigenvalues --  -10.23764 -10.22734 -10.21855 -10.17626 -10.17626
 Alpha  occ. eigenvalues --  -10.17542 -10.17542 -10.17293 -10.17293 -10.16914
 Alpha  occ. eigenvalues --  -10.16913 -10.16821 -10.16821  -1.06362  -1.06361
 Alpha  occ. eigenvalues --   -1.00443  -0.99656  -0.86198  -0.85126  -0.78401
 Alpha  occ. eigenvalues --   -0.75355  -0.75293  -0.73733  -0.66847  -0.65399
 Alpha  occ. eigenvalues --   -0.61692  -0.61455  -0.56107  -0.55596  -0.55235
 Alpha  occ. eigenvalues --   -0.51701  -0.49497  -0.47900  -0.46555  -0.44295
 Alpha  occ. eigenvalues --   -0.42982  -0.42940  -0.42926  -0.42570  -0.41475
 Alpha  occ. eigenvalues --   -0.41447  -0.40740  -0.39907  -0.38686  -0.37936
 Alpha  occ. eigenvalues --   -0.37841  -0.36734  -0.34811  -0.33934  -0.33928
 Alpha  occ. eigenvalues --   -0.31911  -0.26323  -0.26026  -0.24651  -0.24438
 Alpha  occ. eigenvalues --   -0.23757  -0.22866  -0.14030
 Alpha virt. eigenvalues --   -0.05138  -0.01790  -0.00501  -0.00008   0.00105
 Alpha virt. eigenvalues --    0.00850   0.01724   0.02133   0.03768   0.04102
 Alpha virt. eigenvalues --    0.04349   0.04572   0.05539   0.06073   0.06440

  Beta  occ. eigenvalues --  -19.15722 -19.15722 -19.07196 -19.06688 -10.23745
  Beta  occ. eigenvalues --  -10.23744 -10.22596 -10.21614 -10.17565 -10.17565
  Beta  occ. eigenvalues --  -10.17556 -10.17555 -10.17237 -10.17237 -10.16841
  Beta  occ. eigenvalues --  -10.16840 -10.16765 -10.16765  -1.06336  -1.06336
  Beta  occ. eigenvalues --   -0.99641  -0.98548  -0.85935  -0.85019  -0.78023
  Beta  occ. eigenvalues --   -0.75140  -0.75066  -0.73592  -0.66100  -0.65247
  Beta  occ. eigenvalues --   -0.61501  -0.61317  -0.55836  -0.55474  -0.55186
  Beta  occ. eigenvalues --   -0.51519  -0.49358  -0.47600  -0.46511  -0.44107
  Beta  occ. eigenvalues --   -0.42930  -0.42813  -0.42458  -0.42179  -0.41266
  Beta  occ. eigenvalues --   -0.41255  -0.40189  -0.39053  -0.38616  -0.37734
  Beta  occ. eigenvalues --   -0.36651  -0.35567  -0.34707  -0.33749  -0.33696
  Beta  occ. eigenvalues --   -0.30728  -0.25558  -0.24700  -0.24169  -0.23248
  Beta  occ. eigenvalues --   -0.23244  -0.22444
  Beta virt. eigenvalues --   -0.08083  -0.04279  -0.00914  -0.00489   0.00102
  Beta virt. eigenvalues --    0.00348   0.00854   0.01718   0.02153   0.03778
  Beta virt. eigenvalues --    0.04292   0.04380   0.04566   0.05952   0.06070

 Mulliken charges and spin densities:
               1          2
     1  O   -0.290298   0.003051
     2  C   -0.621980   0.009599
     3  C   -0.225449   0.046894
     4  C    0.142842   0.001708
     5  C    0.140457   0.028111
     6  C   -0.544614   0.074061
     7  O   -0.456512   0.168112
     8  C    0.140397   0.028133
     9  C    0.142789   0.001702
    10  C   -0.225436   0.046909
    11  C   -0.621967   0.009602
    12  O   -0.290296   0.003051
    13  C    0.178822   0.070239
    14  C    0.414767   0.039375
    15  C   -0.644494   0.145969
    16  O   -0.480261   0.231778
    17  C    0.414694   0.039353
    18  C    0.178804   0.070238
    19  H    0.300679  -0.000147
    20  H    0.205961  -0.003788
    21  H    0.171267   0.000030
    22  H    0.171264   0.000031
    23  H    0.205963  -0.003789
    24  H    0.300681  -0.000147
    25  H    0.145963  -0.005036
    26  H    0.145955  -0.005036
 Sum of Mulliken charges =  -1.00000   1.00000

 Dipole moment (field-independent basis, Debye):
    X=             -0.0001    Y=             -2.9880    Z=              0.0048  Tot=              2.9880
 Quadrupole moment (field-independent basis, Debye-Ang):
   XX=           -122.6013   YY=           -128.5938   ZZ=           -110.3658
   XY=              0.0002   XZ=             -0.0092   YZ=              0.0003

 Normal termination of Gaussian 16 at Tue Jan 16 05:38:03 2024.
