 Q-Chem 5.4, Q-Chem, Inc., Pleasanton, CA (2021)
 Q-Chem 5.4.0 for Intel X86 EM64T Linux

User input:
--------------------------------------------------------------
$molecule
-1 2
O                 -4.9263760000      0.9830950000      0.1946170000
C                 -3.6781340000      0.3876560000      0.1218060000
C                 -3.6472800000     -1.0185120000      0.0255100000
C                 -2.4260150000     -1.6573580000     -0.0497250000
C                 -1.2104750000     -0.9432900000     -0.0328410000
C                  0.0565600000     -1.6757890000     -0.1152550000
O                  0.0986650000     -2.9250860000     -0.2020910000
C                  1.2711840000     -0.8555280000     -0.0913270000
C                  2.5319920000     -1.4819910000     -0.1664990000
C                  3.7072500000     -0.7583600000     -0.1476760000
C                  3.6432080000      0.6466670000     -0.0506500000
O                  4.8483390000      1.3288320000     -0.0356200000
C                  2.4298630000      1.2937970000      0.0245530000
C                  1.2183610000      0.5647710000      0.0064440000
C                 -0.0435950000      1.2917380000      0.0882010000
O                 -0.0860700000      2.5517410000      0.1762560000
C                 -1.2535700000      0.4773560000      0.0647320000
C                 -2.5113110000      1.1190020000      0.1410560000
H                 -4.7961510000      1.9349680000      0.2567960000
H                 -4.5811250000     -1.5692130000      0.0124960000
H                 -2.3670630000     -2.7372330000     -0.1244920000
H                  2.5460210000     -2.5634620000     -0.2401360000
H                  4.6760330000     -1.2417190000     -0.2054170000
H                  4.6543670000      2.2691800000      0.0351260000
H                  2.3614830000      2.3756400000      0.0995460000
H                 -2.5161610000      2.2030950000      0.2145890000
$end
$rem
MAX_SCF_CYCLES=200
BASIS  =  6-311++G(d,p)
GUI  =  2
JOB_TYPE  =  SP
METHOD  =  B3LYP
SOLVENT_METHOD = PCM
$end
$pcm
theory = CPCM
$end
$solvent
dielectric 37.219
opticaldielectric 1.43
$end

--------------------------------------------------------------

             Standard Nuclear Orientation (Angstroms)
    I     Atom           X                Y                Z
 ----------------------------------------------------------------
    1      O      -4.9263760000     0.9830950000     0.1946170000
    2      C      -3.6781340000     0.3876560000     0.1218060000
    3      C      -3.6472800000    -1.0185120000     0.0255100000
    4      C      -2.4260150000    -1.6573580000    -0.0497250000
    5      C      -1.2104750000    -0.9432900000    -0.0328410000
    6      C       0.0565600000    -1.6757890000    -0.1152550000
    7      O       0.0986650000    -2.9250860000    -0.2020910000
    8      C       1.2711840000    -0.8555280000    -0.0913270000
    9      C       2.5319920000    -1.4819910000    -0.1664990000
   10      C       3.7072500000    -0.7583600000    -0.1476760000
   11      C       3.6432080000     0.6466670000    -0.0506500000
   12      O       4.8483390000     1.3288320000    -0.0356200000
   13      C       2.4298630000     1.2937970000     0.0245530000
   14      C       1.2183610000     0.5647710000     0.0064440000
   15      C      -0.0435950000     1.2917380000     0.0882010000
   16      O      -0.0860700000     2.5517410000     0.1762560000
   17      C      -1.2535700000     0.4773560000     0.0647320000
   18      C      -2.5113110000     1.1190020000     0.1410560000
   19      H      -4.7961510000     1.9349680000     0.2567960000
   20      H      -4.5811250000    -1.5692130000     0.0124960000
   21      H      -2.3670630000    -2.7372330000    -0.1244920000
   22      H       2.5460210000    -2.5634620000    -0.2401360000
   23      H       4.6760330000    -1.2417190000    -0.2054170000
   24      H       4.6543670000     2.2691800000     0.0351260000
   25      H       2.3614830000     2.3756400000     0.0995460000
   26      H      -2.5161610000     2.2030950000     0.2145890000
 ----------------------------------------------------------------

    8    -839.6067384586      8.82e-06  Convergence criterion met
 Total energy in the final basis set =     -839.6067384586

                    Orbital Energies (a.u.)
 --------------------------------------------------------------

 Alpha MOs
 -- Occupied --
-19.1547 -19.1546 -19.0782 -19.0750 -10.2369 -10.2369 -10.2293 -10.2206
-10.1766 -10.1766 -10.1750 -10.1750 -10.1719 -10.1719 -10.1696 -10.1696
-10.1674 -10.1674  -1.0610  -1.0610  -1.0065  -0.9987  -0.8621  -0.8510
 -0.7839  -0.7534  -0.7526  -0.7369  -0.6688  -0.6531  -0.6164  -0.6133
 -0.5608  -0.5545  -0.5513  -0.5162  -0.4942  -0.4795  -0.4648  -0.4426
 -0.4299  -0.4290  -0.4287  -0.4254  -0.4147  -0.4134  -0.4092  -0.3988
 -0.3861  -0.3813  -0.3775  -0.3670  -0.3474  -0.3392  -0.3389  -0.3196
 -0.2637  -0.2602  -0.2488  -0.2444  -0.2396  -0.2283  -0.1414

 Beta MOs
 -- Occupied --
-19.1546 -19.1545 -19.0739 -19.0692 -10.2367 -10.2367 -10.2277 -10.2180
-10.1759 -10.1759 -10.1751 -10.1751 -10.1713 -10.1713 -10.1689 -10.1689
-10.1668 -10.1668  -1.0607  -1.0607  -0.9989  -0.9881  -0.8595  -0.8499
 -0.7802  -0.7510  -0.7505  -0.7355  -0.6612  -0.6516  -0.6142  -0.6122
 -0.5580  -0.5532  -0.5508  -0.5144  -0.4928  -0.4765  -0.4643  -0.4406
 -0.4285  -0.4272  -0.4244  -0.4216  -0.4126  -0.4114  -0.4043  -0.3906
 -0.3854  -0.3765  -0.3661  -0.3580  -0.3464  -0.3375  -0.3365  -0.3080
 -0.2554  -0.2481  -0.2443  -0.2349  -0.2330  -0.2240

          Ground-State Mulliken Net Atomic Charges

     Atom                 Charge (a.u.)    Spin (a.u.)
  --------------------------------------------------------
      1 O                    -0.306726       0.003332
      2 C                    -0.651690       0.011387
      3 C                    -0.249606       0.044961
      4 C                     0.125854       0.005095
      5 C                     0.138853       0.024583
      6 C                    -0.494997       0.082978
      7 O                    -0.477167       0.161179
      8 C                     0.139165       0.024629
      9 C                     0.126931       0.005090
     10 C                    -0.250794       0.044951
     11 C                    -0.650910       0.011387
     12 O                    -0.306640       0.003334
     13 C                     0.182462       0.071408
     14 C                     0.417924       0.036568
     15 C                    -0.601381       0.156285
     16 O                    -0.501758       0.222764
     17 C                     0.418020       0.036596
     18 C                     0.180863       0.071455
     19 H                     0.319004      -0.000168
     20 H                     0.222249      -0.003616
     21 H                     0.178753      -0.000240
     22 H                     0.179131      -0.000238
     23 H                     0.222207      -0.003614
     24 H                     0.318921      -0.000168
     25 H                     0.160429      -0.004972
     26 H                     0.160902      -0.004967
  --------------------------------------------------------
  Sum of atomic charges =    -1.000000

                    Cartesian Multipole Moments
 -----------------------------------------------------------------
    Charge (ESU x 10^10)
                -4.8032
    Dipole Moment (Debye)
         X      -0.1076      Y       3.1655      Z       0.2227
       Tot       3.1751
    Quadrupole Moments (Debye-Ang)
        XX    -120.5992     XY       0.2443     YY    -128.4707
        XZ       0.2938     YZ      -1.2231     ZZ    -110.4956

 Total job time:  74.69s(wall), 362.45s(cpu)
        *  Thank you very much for using Q-Chem.  Have a nice day.  *
