 Gaussian 16, Revision A.03,
 Gaussian 16:  ES64L-G16RevA.03 25-Dec-2016

 ----------------------------------------------------------------
 #P UB3LYP/6-311++G(d,p) SCRF=(PCM,Solvent=n,n-DiMethylFormamide)
 ----------------------------------------------------------------

 ------------------
 Radical PCM in DMF
 ------------------
 Symbolic Z-matrix:
 Charge = -1 Multiplicity = 2

                         Standard orientation:
 ---------------------------------------------------------------------
 Center     Atomic      Atomic             Coordinates (Angstroms)
 Number     Number       Type             X           Y           Z
 ---------------------------------------------------------------------
      1          6           0        0.610698    1.299572   -0.116850
      2          6           0        1.483096    0.115419   -0.007881
      3          6           0        0.840783   -1.099498   -0.075036
      4          6           0       -0.610713   -1.299635   -0.116192
      5          6           0       -1.483145   -0.115398   -0.007993
      6          6           0       -0.840766    1.099520   -0.074973
      7          8           0       -1.079854   -2.456406   -0.237621
      8          8           0        1.079979    2.456136   -0.239681
      9         17           0       -1.684664    2.664201   -0.172173
     10         17           0        1.684793   -2.664057   -0.173002
     11          6           0       -3.004361   -0.419531    0.129668
     12          6           0       -3.217136   -1.371559    1.339586
     13          6           0       -3.938387    0.781729    0.397671
     14          6           0       -3.511768   -1.091067   -1.171844
     15          6           0        3.004265    0.419576    0.129923
     16          6           0        3.217093    1.373720    1.338209
     17          6           0        3.937649   -0.781593    0.400668
     18          6           0        3.512277    1.088726   -1.172517
     19          1           0       -2.654725   -2.294991    1.230571
     20          1           0       -4.282732   -1.613568    1.426464
     21          1           0       -2.911772   -0.874657    2.266571
     22          1           0       -3.640721    1.354480    1.277415
     23          1           0       -4.941373    0.379817    0.581957
     24          1           0       -4.003589    1.465668   -0.446557
     25          1           0       -3.398713   -0.405945   -2.018367
     26          1           0       -4.577933   -1.329331   -1.073044
     27          1           0       -2.961914   -2.006500   -1.380736
     28          1           0        2.654569    2.296921    1.227849
     29          1           0        4.282676    1.616032    1.424312
     30          1           0        2.912163    0.878321    2.266147
     31          1           0        3.638435   -1.353288    1.280606
     32          1           0        4.940472   -0.379803    0.586057
     33          1           0        4.004007   -1.466520   -0.442648
     34          1           0        2.962415    2.003768   -1.383204
     35          1           0        3.399622    0.402153   -2.017912
     36          1           0        4.578402    1.327273   -1.073708
 ---------------------------------------------------------------------

 SCF Done:  E(UB3LYP) =  -1615.52399183     A.U. after   18 cycles

 The electronic state is 2-A.
 Alpha  occ. eigenvalues -- -101.53841-101.53840 -19.07816 -19.07815 -10.23287
 Alpha  occ. eigenvalues --  -10.23286 -10.22448 -10.22447 -10.19046 -10.19046
 Alpha  occ. eigenvalues --  -10.18824 -10.18822 -10.14757 -10.14757 -10.14621
 Alpha  occ. eigenvalues --  -10.14618 -10.14469 -10.14467  -9.45361  -9.45361
 Alpha  occ. eigenvalues --   -7.21789  -7.21789  -7.20899  -7.20898  -7.20776
 Alpha  occ. eigenvalues --   -7.20776  -1.01355  -1.01051  -0.86919  -0.85866
 Alpha  occ. eigenvalues --   -0.81506  -0.80958  -0.78341  -0.72217  -0.67704
 Alpha  occ. eigenvalues --   -0.67694  -0.67328  -0.67297  -0.66873  -0.61588
 Alpha  occ. eigenvalues --   -0.55918  -0.54843  -0.53001  -0.50209  -0.46448
 Alpha  occ. eigenvalues --   -0.46302  -0.43970  -0.43420  -0.43130  -0.42931
 Alpha  occ. eigenvalues --   -0.42658  -0.42249  -0.41854  -0.40480  -0.40332
 Alpha  occ. eigenvalues --   -0.38759  -0.37661  -0.37561  -0.36860  -0.36464
 Alpha  occ. eigenvalues --   -0.35917  -0.35702  -0.34821  -0.34323  -0.33514
 Alpha  occ. eigenvalues --   -0.33100  -0.32638  -0.32549  -0.32450  -0.31950
 Alpha  occ. eigenvalues --   -0.29215  -0.28903  -0.27121  -0.24538  -0.24000
 Alpha  occ. eigenvalues --   -0.23700  -0.16210
 Alpha virt. eigenvalues --   -0.01658  -0.00693   0.00299   0.00953   0.01011
 Alpha virt. eigenvalues --    0.01605   0.02176   0.02460   0.02627   0.03134
 Alpha virt. eigenvalues --    0.03188   0.03998   0.04138   0.04551   0.04911

  Beta  occ. eigenvalues -- -101.53839-101.53839 -19.07160 -19.07159 -10.23138
  Beta  occ. eigenvalues --  -10.23137 -10.22330 -10.22329 -10.19053 -10.19052
  Beta  occ. eigenvalues --  -10.18712 -10.18710 -10.14758 -10.14758 -10.14614
  Beta  occ. eigenvalues --  -10.14611 -10.14461 -10.14460  -9.45359  -9.45359
  Beta  occ. eigenvalues --   -7.21795  -7.21794  -7.20885  -7.20884  -7.20776
  Beta  occ. eigenvalues --   -7.20775  -1.00246  -0.99906  -0.86565  -0.85743
  Beta  occ. eigenvalues --   -0.81398  -0.80853  -0.78062  -0.71964  -0.67678
  Beta  occ. eigenvalues --   -0.67667  -0.67300  -0.67286  -0.65950  -0.61289
  Beta  occ. eigenvalues --   -0.55494  -0.54757  -0.52802  -0.50003  -0.46250
  Beta  occ. eigenvalues --   -0.46202  -0.43400  -0.43219  -0.43041  -0.42861
  Beta  occ. eigenvalues --   -0.42305  -0.41732  -0.41448  -0.39934  -0.39370
  Beta  occ. eigenvalues --   -0.38640  -0.37354  -0.37250  -0.36366  -0.36274
  Beta  occ. eigenvalues --   -0.35760  -0.35608  -0.34681  -0.34235  -0.33035
  Beta  occ. eigenvalues --   -0.32953  -0.32513  -0.31983  -0.31880  -0.31382
  Beta  occ. eigenvalues --   -0.29180  -0.28832  -0.24684  -0.23960  -0.23367
  Beta  occ. eigenvalues --   -0.23129
  Beta virt. eigenvalues --   -0.09213  -0.00847  -0.00188   0.00311   0.00992
  Beta virt. eigenvalues --    0.01275   0.01994   0.02425   0.02639   0.03149
  Beta virt. eigenvalues --    0.03187   0.03982   0.04017   0.04164   0.04559

 Mulliken charges and spin densities:
               1          2
     1  C   -0.954754   0.092809
     2  C    0.441566   0.118143
     3  C   -0.234484   0.048826
     4  C   -0.955162   0.092846
     5  C    0.441843   0.118168
     6  C   -0.235642   0.048878
     7  O   -0.323404   0.239825
     8  O   -0.323434   0.239784
     9  Cl   0.509114   0.003295
    10  Cl   0.508607   0.003289
    11  C    0.611899  -0.023375
    12  C   -0.665221   0.011093
    13  C   -0.570252  -0.003523
    14  C   -0.659192   0.012927
    15  C    0.612013  -0.023360
    16  C   -0.665117   0.011069
    17  C   -0.570229  -0.003516
    18  C   -0.659496   0.012931
    19  H    0.174880  -0.001020
    20  H    0.149871   0.000248
    21  H    0.131377   0.000163
    22  H    0.140576   0.000655
    23  H    0.135643  -0.000277
    24  H    0.134055   0.000480
    25  H    0.140264   0.000871
    26  H    0.149416   0.000313
    27  H    0.189564  -0.001484
    28  H    0.174826  -0.001020
    29  H    0.149830   0.000243
    30  H    0.131338   0.000163
    31  H    0.140550   0.000658
    32  H    0.135731  -0.000278
    33  H    0.134068   0.000474
    34  H    0.189657  -0.001486
    35  H    0.140259   0.000872
    36  H    0.149442   0.000317
 Sum of Mulliken charges =  -1.00000   1.00000

 Dipole moment (field-independent basis, Debye):
    X=             -0.0002    Y=              0.0004    Z=              1.2715  Tot=              1.2715
 Quadrupole moment (field-independent basis, Debye-Ang):
   XX=           -135.5509   YY=           -168.0969   ZZ=           -129.8249
   XY=             -4.4498   XZ=              0.0046   YZ=              0.0105

 Normal termination of Gaussian 16 at Sun Jan 21 07:16:37 2024.
