 Q-Chem 5.4, Q-Chem, Inc., Pleasanton, CA (2021)
 Q-Chem 5.4.0 for Intel X86 EM64T Linux

User input:
--------------------------------------------------------------
$molecule
-2 1
C                 -3.7585500000      1.7610710000     -0.3767200000
C                 -2.5203320000      0.9268520000     -0.1346320000
C                 -1.2641710000      1.4296220000     -0.4123190000
C                 -0.0692820000      0.6874560000     -0.2404370000
C                  1.2063870000      1.3055670000     -0.5527730000
O                  1.3069720000      2.5091240000     -0.9787850000
C                  2.3605320000      0.4539970000     -0.3372400000
C                  3.6563790000      0.9609380000     -0.6083740000
C                  4.7967570000      0.2054550000     -0.4253690000
C                  4.6850960000     -1.1309850000      0.0520180000
C                  3.4380640000     -1.6534450000      0.3288630000
C                  2.2473870000     -0.9038300000      0.1554580000
C                  0.9708910000     -1.5182070000      0.4665580000
O                  0.8700770000     -2.7217860000      0.8925170000
C                 -0.1818080000     -0.6630700000      0.2499080000
C                 -1.4804030000     -1.1618050000      0.5200230000
C                 -2.6335650000     -0.4237800000      0.3373990000
C                 -3.9867820000     -1.0049240000      0.6822750000
H                 -3.4882040000      2.7757290000     -0.6831470000
H                 -4.4038950000      1.3388760000     -1.1681500000
H                 -4.3914180000      1.8405780000      0.5132710000
H                 -1.1489870000      2.4417350000     -0.7898170000
H                  3.7078200000      1.9828170000     -0.9717280000
H                  5.7761480000      0.6269010000     -0.6451430000
H                  5.5787870000     -1.7352110000      0.1981470000
H                  3.3193650000     -2.6687580000      0.6948470000
H                 -1.5337760000     -2.1799940000      0.8949940000
H                 -4.4739900000     -0.4724670000      1.5190700000
H                 -4.6910650000     -0.9532910000     -0.1545100000
H                 -3.8944330000     -2.0551640000      0.9737970000
$end

$rem
BASIS  =  6-311++G(d,p)
GUI  =  2
JOB_TYPE  =  SP
METHOD  =  B3LYP
SCF_CONVERGENCE  = 8
SOLVENT_METHOD = sm12
$end

$smx
solvent dimethylformamide
charges CM5
$end

--------------------------------------------------------------

             Standard Nuclear Orientation (Angstroms)
    I     Atom           X                Y                Z
 ----------------------------------------------------------------
    1      C      -3.7585500000     1.7610710000    -0.3767200000
    2      C      -2.5203320000     0.9268520000    -0.1346320000
    3      C      -1.2641710000     1.4296220000    -0.4123190000
    4      C      -0.0692820000     0.6874560000    -0.2404370000
    5      C       1.2063870000     1.3055670000    -0.5527730000
    6      O       1.3069720000     2.5091240000    -0.9787850000
    7      C       2.3605320000     0.4539970000    -0.3372400000
    8      C       3.6563790000     0.9609380000    -0.6083740000
    9      C       4.7967570000     0.2054550000    -0.4253690000
   10      C       4.6850960000    -1.1309850000     0.0520180000
   11      C       3.4380640000    -1.6534450000     0.3288630000
   12      C       2.2473870000    -0.9038300000     0.1554580000
   13      C       0.9708910000    -1.5182070000     0.4665580000
   14      O       0.8700770000    -2.7217860000     0.8925170000
   15      C      -0.1818080000    -0.6630700000     0.2499080000
   16      C      -1.4804030000    -1.1618050000     0.5200230000
   17      C      -2.6335650000    -0.4237800000     0.3373990000
   18      C      -3.9867820000    -1.0049240000     0.6822750000
   19      H      -3.4882040000     2.7757290000    -0.6831470000
   20      H      -4.4038950000     1.3388760000    -1.1681500000
   21      H      -4.3914180000     1.8405780000     0.5132710000
   22      H      -1.1489870000     2.4417350000    -0.7898170000
   23      H       3.7078200000     1.9828170000    -0.9717280000
   24      H       5.7761480000     0.6269010000    -0.6451430000
   25      H       5.5787870000    -1.7352110000     0.1981470000
   26      H       3.3193650000    -2.6687580000     0.6948470000
   27      H      -1.5337760000    -2.1799940000     0.8949940000
   28      H      -4.4739900000    -0.4724670000     1.5190700000
   29      H      -4.6910650000    -0.9532910000    -0.1545100000
   30      H      -3.8944330000    -2.0551640000     0.9737970000
 ----------------------------------------------------------------

   18    -767.5616786249      3.49e-09  Convergence criterion met
 Total energy in the final basis set =     -767.8516158233

                    Orbital Energies (a.u.)
 --------------------------------------------------------------

 Alpha MOs
 -- Occupied --
-19.0280 -19.0280 -10.1858 -10.1858 -10.1742 -10.1741 -10.1738 -10.1734
-10.1725 -10.1721 -10.1686 -10.1686 -10.1607 -10.1606 -10.1507 -10.1504
-10.1504 -10.1501  -0.9484  -0.9455  -0.8495  -0.8422  -0.7828  -0.7608
 -0.7421  -0.7418  -0.6998  -0.6802  -0.6409  -0.6145  -0.5899  -0.5796
 -0.5432  -0.5131  -0.5043  -0.4692  -0.4492  -0.4439  -0.4345  -0.4343
 -0.4202  -0.4161  -0.4050  -0.4008  -0.3918  -0.3879  -0.3815  -0.3746
 -0.3680  -0.3616  -0.3500  -0.3349  -0.3337  -0.3292  -0.3127  -0.3069
 -0.2523  -0.2374  -0.2350  -0.2258  -0.2076  -0.2007  -0.1143

          Ground-State Mulliken Net Atomic Charges

     Atom                 Charge (a.u.)
  ----------------------------------------
      1 C                     2.800270
      2 C                     3.211918
      3 C                    -0.183685
      4 C                    -3.700733
      5 C                    -3.483082
      6 O                    -0.314033
      7 C                    -1.938378
      8 C                    -0.385168
      9 C                     1.545372
     10 C                     1.546188
     11 C                    -0.381864
     12 C                    -1.936176
     13 C                    -3.479498
     14 O                    -0.313988
     15 C                    -3.704155
     16 C                    -0.187578
     17 C                     3.225790
     18 C                     2.800655
     19 H                     0.432018
     20 H                     0.280808
     21 H                     0.305462
     22 H                    -0.086897
     23 H                     0.111126
     24 H                     0.396517
     25 H                     0.396732
     26 H                     0.111012
     27 H                    -0.086552
     28 H                     0.280917
     29 H                     0.305189
     30 H                     0.431814
  ----------------------------------------
  Sum of atomic charges =    -2.000000

                    Cartesian Multipole Moments
 -----------------------------------------------------------------
    Charge (ESU x 10^10)
                -9.6064
    Dipole Moment (Debye)
         X     -12.8762      Y       1.2551      Z       0.5097
       Tot      12.9473
    Quadrupole Moments (Debye-Ang)
        XX    -162.0237     XY       0.5125     YY    -162.7762
        XZ       2.8567     YZ      14.7346     ZZ    -125.8682

 Total job time:  893.10s(wall), 6831.50s(cpu)
        *  Thank you very much for using Q-Chem.  Have a nice day.  *
