 Gaussian 16, Revision A.03,
 Gaussian 16:  ES64L-G16RevA.03 25-Dec-2016

 ----------------------------------------------------------------------
 #P UB3LYP/6-311++G(d,p) nosym opt freq SCRF=(PCM,Solvent=n,n-DiMethylF
 ormamide)
 ----------------------------------------------------------------------

 --------
 Oxidized
 --------
 Symbolic Z-matrix:
 Charge =  0 Multiplicity = 1

 SCF Done:  E(UB3LYP) =  -1065.21952653     A.U. after   15 cycles
 SCF Done:  E(UB3LYP) =  -1065.21978368     A.U. after   12 cycles
 SCF Done:  E(UB3LYP) =  -1065.21980764     A.U. after   11 cycles
 SCF Done:  E(UB3LYP) =  -1065.21988526     A.U. after   11 cycles
 SCF Done:  E(UB3LYP) =  -1065.21988813     A.U. after   10 cycles
 SCF Done:  E(UB3LYP) =  -1065.21988892     A.U. after    9 cycles
 SCF Done:  E(UB3LYP) =  -1065.21988977     A.U. after    8 cycles
 SCF Done:  E(UB3LYP) =  -1065.21989001     A.U. after    9 cycles
 SCF Done:  E(UB3LYP) =  -1065.21989019     A.U. after    9 cycles
 SCF Done:  E(UB3LYP) =  -1065.21989033     A.U. after    9 cycles
 SCF Done:  E(UB3LYP) =  -1065.21989045     A.U. after    9 cycles
 SCF Done:  E(UB3LYP) =  -1065.21989055     A.U. after    8 cycles
 SCF Done:  E(UB3LYP) =  -1065.21989059     A.U. after    8 cycles
 Optimization completed.
    -- Stationary point found.
 Normal termination of Gaussian 16 at Sat Feb 10 22:51:28 2024.

 ----------------------------------------------------------------------
 #P Geom=AllCheck Guess=TCheck SCRF=Check GenChk UB3LYP/6-311++G(d,p) F
 req
 ----------------------------------------------------------------------

 Structure from the checkpoint file:  "207.chk"
 --------
 Oxidized
 --------
 Charge =  0 Multiplicity = 1

                          Input orientation:
 ---------------------------------------------------------------------
 Center     Atomic      Atomic             Coordinates (Angstroms)
 Number     Number       Type             X           Y           Z
 ---------------------------------------------------------------------
      1          8           0        4.537775   -1.398868   -0.868020
      2          6           0        3.456508   -0.649304   -0.534025
      3          6           0        3.511950    0.670358   -0.154567
      4          6           0        2.328994    1.352358    0.167713
      5          8           0        2.447094    2.638310    0.529232
      6          6           0        1.083649    0.689284    0.104320
      7          6           0       -0.127855    1.436980    0.439770
      8          8           0       -0.040315    2.636063    0.782982
      9          6           0       -1.435132    0.760824    0.363798
     10          6           0       -2.635928    1.430475    0.656422
     11          8           0       -2.638786    2.736987    1.021366
     12          6           0       -3.858641    0.737165    0.569386
     13          6           0       -3.907786   -0.586537    0.205430
     14          6           0       -2.725532   -1.283870   -0.092064
     15          8           0       -2.844902   -2.576274   -0.439592
     16          6           0       -1.484968   -0.615373   -0.017498
     17          6           0       -0.263760   -1.370066   -0.341855
     18          8           0       -0.346792   -2.572674   -0.659397
     19          6           0        1.037629   -0.685553   -0.286618
     20          6           0        2.223119   -1.353021   -0.606566
     21          8           0        2.262943   -2.648509   -0.988059
     22          1           0        5.357904   -0.891502   -0.821167
     23          1           0        4.456228    1.198884   -0.098658
     24          1           0        1.515475    2.948196    0.716052
     25          1           0       -3.548686    3.020472    1.178751
     26          1           0       -4.778648    1.265667    0.797357
     27          1           0       -4.852457   -1.112361    0.142251
     28          1           0       -1.918256   -2.897635   -0.608524
     29          1           0        3.189175   -2.880476   -1.158222
 ---------------------------------------------------------------------

 SCF Done:  E(UB3LYP) =  -1065.21989059     A.U. after    1 cycles

 Alpha  occ. eigenvalues --  -19.19210 -19.17653 -19.17445 -19.15834 -19.15816
 Alpha  occ. eigenvalues --  -19.13378 -19.12887 -10.28914 -10.28513 -10.27489
 Alpha  occ. eigenvalues --  -10.27022 -10.26876 -10.26865 -10.26465 -10.21609
 Alpha  occ. eigenvalues --  -10.21406 -10.21217 -10.20679 -10.20646 -10.20205
 Alpha  occ. eigenvalues --  -10.20144  -1.11571  -1.09241  -1.08944  -1.08662
 Alpha  occ. eigenvalues --   -1.08159  -1.05399  -1.04996  -0.89403  -0.87804
 Alpha  occ. eigenvalues --   -0.82052  -0.78562  -0.77232  -0.76497  -0.70715
 Alpha  occ. eigenvalues --   -0.68616  -0.67593  -0.64095  -0.62812  -0.60725
 Alpha  occ. eigenvalues --   -0.58951  -0.57921  -0.56827  -0.53404  -0.52958
 Alpha  occ. eigenvalues --   -0.51382  -0.50216  -0.49223  -0.48425  -0.47988
 Alpha  occ. eigenvalues --   -0.46300  -0.45923  -0.45732  -0.45393  -0.44734
 Alpha  occ. eigenvalues --   -0.43907  -0.42807  -0.41841  -0.41352  -0.41293
 Alpha  occ. eigenvalues --   -0.39994  -0.39689  -0.39351  -0.39163  -0.38576
 Alpha  occ. eigenvalues --   -0.38149  -0.33617  -0.32788  -0.29153  -0.28887
 Alpha  occ. eigenvalues --   -0.27575  -0.27241  -0.24176  -0.22774
 Alpha virt. eigenvalues --   -0.12001  -0.06306  -0.04158  -0.01398  -0.00587
 Alpha virt. eigenvalues --   -0.00462   0.00626   0.01015   0.01480   0.02822
 Alpha virt. eigenvalues --    0.03119   0.03530   0.03986   0.03996   0.04760

  Beta  occ. eigenvalues --  -19.19210 -19.17653 -19.17445 -19.15834 -19.15816
  Beta  occ. eigenvalues --  -19.13378 -19.12887 -10.28914 -10.28513 -10.27489
  Beta  occ. eigenvalues --  -10.27022 -10.26876 -10.26865 -10.26465 -10.21609
  Beta  occ. eigenvalues --  -10.21406 -10.21217 -10.20679 -10.20646 -10.20205
  Beta  occ. eigenvalues --  -10.20144  -1.11571  -1.09241  -1.08944  -1.08662
  Beta  occ. eigenvalues --   -1.08159  -1.05399  -1.04996  -0.89403  -0.87804
  Beta  occ. eigenvalues --   -0.82052  -0.78562  -0.77232  -0.76497  -0.70715
  Beta  occ. eigenvalues --   -0.68616  -0.67593  -0.64095  -0.62812  -0.60725
  Beta  occ. eigenvalues --   -0.58951  -0.57921  -0.56827  -0.53404  -0.52958
  Beta  occ. eigenvalues --   -0.51382  -0.50216  -0.49223  -0.48425  -0.47988
  Beta  occ. eigenvalues --   -0.46300  -0.45923  -0.45732  -0.45393  -0.44734
  Beta  occ. eigenvalues --   -0.43907  -0.42807  -0.41841  -0.41352  -0.41293
  Beta  occ. eigenvalues --   -0.39994  -0.39689  -0.39351  -0.39163  -0.38576
  Beta  occ. eigenvalues --   -0.38149  -0.33617  -0.32788  -0.29153  -0.28887
  Beta  occ. eigenvalues --   -0.27575  -0.27241  -0.24176  -0.22774
  Beta virt. eigenvalues --   -0.12001  -0.06306  -0.04158  -0.01398  -0.00587
  Beta virt. eigenvalues --   -0.00462   0.00626   0.01015   0.01480   0.02822
  Beta virt. eigenvalues --    0.03119   0.03530   0.03986   0.03996   0.04760

 Mulliken charges and spin densities:
               1          2
     1  O   -0.288800  -0.000000
     2  C   -0.405745   0.000000
     3  C    0.314900  -0.000000
     4  C   -0.301097  -0.000000
     5  O   -0.359232   0.000000
     6  C    0.642899  -0.000000
     7  C   -0.331809  -0.000000
     8  O   -0.355450  -0.000000
     9  C    0.264089   0.000000
    10  C   -0.202972  -0.000000
    11  O   -0.234450   0.000000
    12  C   -0.110075  -0.000000
    13  C    0.003245   0.000000
    14  C   -0.374572  -0.000000
    15  O   -0.353083   0.000000
    16  C    0.639916   0.000000
    17  C   -0.354604   0.000000
    18  O   -0.334366   0.000000
    19  C    0.497689  -0.000000
    20  C   -0.460170  -0.000000
    21  O   -0.268983  -0.000000
    22  H    0.327398  -0.000000
    23  H    0.223151   0.000000
    24  H    0.383159  -0.000000
    25  H    0.310115   0.000000
    26  H    0.198499   0.000000
    27  H    0.227930   0.000000
    28  H    0.373763   0.000000
    29  H    0.328655   0.000000
 Sum of Mulliken charges =  -0.00000   0.00000

 Dipole moment (field-independent basis, Debye):
    X=              1.7055    Y=              1.1300    Z=             -0.0202  Tot=              2.0460
 Quadrupole moment (field-independent basis, Debye-Ang):
   XX=            -62.1823   YY=           -140.4469   ZZ=           -120.8649
   XY=            -20.0266   XZ=            -11.6005   YZ=             -3.5832

  Exact polarizability: 480.322 -14.884 314.645 -39.357  56.658 140.667
 Approx polarizability: 531.223 -19.031 406.036 -43.317  76.666 169.283

                      1                      2                      3
                      A                      A                      A
 Frequencies --     19.2623                53.9821                91.2056
 Red. masses --      7.6090                 8.1746                 9.5200
 Frc consts  --      0.0017                 0.0140                 0.0467
 IR Inten    --     10.0165                 1.9397                 0.1269

                      4                      5                      6
                      A                      A                      A
 Frequencies --    113.5599               139.7888               169.1020
 Red. masses --      9.8008                 7.2650                 8.2840
 Frc consts  --      0.0745                 0.0836                 0.1396
 IR Inten    --      0.4341                 0.2496                 0.1687

                      7                      8                      9
                      A                      A                      A
 Frequencies --    179.7770               224.9308               258.5980
 Red. masses --      7.2890                 7.0589                 3.5382
 Frc consts  --      0.1388                 0.2104                 0.1394
 IR Inten    --      2.7196                 0.0241                41.6895

                     10                     11                     12
                      A                      A                      A
 Frequencies --    268.5875               306.5373               308.7998
 Red. masses --      8.4929                 1.2848                 6.4181
 Frc consts  --      0.3610                 0.0711                 0.3606
 IR Inten    --      1.1917               233.8612                 8.8463

                     13                     14                     15
                      A                      A                      A
 Frequencies --    347.7683               351.3913               372.0507
 Red. masses --      4.7917                 2.0386                 1.9027
 Frc consts  --      0.3414                 0.1483                 0.1552
 IR Inten    --     17.6987                35.5158                71.5438

                     16                     17                     18
                      A                      A                      A
 Frequencies --    388.7090               402.5577               406.0529
 Red. masses --      7.4628                 8.1823                 7.2334
 Frc consts  --      0.6644                 0.7812                 0.7027
 IR Inten    --     24.2106                23.1431                52.0378

                     19                     20                     21
                      A                      A                      A
 Frequencies --    426.1325               447.6420               450.8724
 Red. masses --      7.2498                11.3620                 6.2600
 Frc consts  --      0.7756                 1.3414                 0.7498
 IR Inten    --      6.6206                12.8688                 1.1161

                     22                     23                     24
                      A                      A                      A
 Frequencies --    460.0576               468.4258               476.8319
 Red. masses --     11.4017                10.1456                 1.1047
 Frc consts  --      1.4218                 1.3116                 0.1480
 IR Inten    --     54.7749                20.4334                57.3517

                     25                     26                     27
                      A                      A                      A
 Frequencies --    482.8183               512.8802               536.4624
 Red. masses --      7.7057                 5.2611                 6.6005
 Frc consts  --      1.0584                 0.8154                 1.1192
 IR Inten    --      7.6050                 5.6066                 2.3071

                     28                     29                     30
                      A                      A                      A
 Frequencies --    540.1358               581.9230               619.8022
 Red. masses --      7.5785                 3.6640                 5.4585
 Frc consts  --      1.3027                 0.7310                 1.2355
 IR Inten    --      0.6385                13.8649                 9.6136

                     31                     32                     33
                      A                      A                      A
 Frequencies --    648.1838               697.7747               704.5973
 Red. masses --      5.4784                 8.2583                 5.2795
 Frc consts  --      1.3561                 2.3690                 1.5443
 IR Inten    --      0.9862                 1.0893                97.2424

                     34                     35                     36
                      A                      A                      A
 Frequencies --    708.3885               733.1837               769.9919
 Red. masses --      8.6467                 6.8804                10.4487
 Frc consts  --      2.5565                 2.1792                 3.6499
 IR Inten    --      0.7996                17.6577                 0.1811

                     37                     38                     39
                      A                      A                      A
 Frequencies --    784.2483               799.4095               817.3721
 Red. masses --      4.8565                 8.3191                 1.2101
 Frc consts  --      1.7599                 3.1323                 0.4763
 IR Inten    --      9.5102               146.3571               169.4619

                     40                     41                     42
                      A                      A                      A
 Frequencies --    842.5930               844.2085               859.9040
 Red. masses --      1.3067                 1.3876                 9.3455
 Frc consts  --      0.5466                 0.5827                 4.0715
 IR Inten    --     54.0074               185.3384                23.2837

                     43                     44                     45
                      A                      A                      A
 Frequencies --    863.7301               932.9143               963.6962
 Red. masses --      1.3161                 5.5797                 1.3046
 Frc consts  --      0.5785                 2.8612                 0.7138
 IR Inten    --      0.4091                32.0269                 0.0021

                     46                     47                     48
                      A                      A                      A
 Frequencies --    978.7234              1008.6671              1098.3709
 Red. masses --      8.9806                 6.4734                 3.4228
 Frc consts  --      5.0685                 3.8804                 2.4329
 IR Inten    --    293.0255                 6.5981               214.5293

                     49                     50                     51
                      A                      A                      A
 Frequencies --   1156.6732              1179.1101              1197.5655
 Red. masses --      1.6759                 1.5200                 2.2543
 Frc consts  --      1.3210                 1.2451                 1.9049
 IR Inten    --   1040.3984               165.6118               268.8736

                     52                     53                     54
                      A                      A                      A
 Frequencies --   1204.6096              1224.3015              1254.8860
 Red. masses --      2.1129                 1.6316                 4.6148
 Frc consts  --      1.8064                 1.4409                 4.2816
 IR Inten    --    615.3598               208.3481              1224.1754

                     55                     56                     57
                      A                      A                      A
 Frequencies --   1277.2564              1289.9617              1300.1035
 Red. masses --      2.2900                 4.2578                 3.0003
 Frc consts  --      2.2012                 4.1743                 2.9880
 IR Inten    --     23.4097               412.0944               653.4794

                     58                     59                     60
                      A                      A                      A
 Frequencies --   1327.0958              1341.0774              1355.0381
 Red. masses --      2.7918                 2.7570                 2.6339
 Frc consts  --      2.8969                 2.9214                 2.8494
 IR Inten    --    204.9226               290.0678               487.2836

                     61                     62                     63
                      A                      A                      A
 Frequencies --   1393.0313              1407.4985              1447.2169
 Red. masses --      5.6603                 6.1004                 4.2077
 Frc consts  --      6.4716                 7.1203                 5.1923
 IR Inten    --     24.9208                98.2417               186.0212

                     64                     65                     66
                      A                      A                      A
 Frequencies --   1476.4209              1487.3607              1493.6597
 Red. masses --      3.1537                 3.2990                 2.6291
 Frc consts  --      4.0503                 4.3000                 3.4559
 IR Inten    --     98.6730               218.2859               923.4231

                     67                     68                     69
                      A                      A                      A
 Frequencies --   1505.5590              1587.6846              1618.7980
 Red. masses --      3.5692                 5.6521                 3.1522
 Frc consts  --      4.7667                 8.3943                 4.8669
 IR Inten    --    181.8802                55.2641               400.8318

                     70                     71                     72
                      A                      A                      A
 Frequencies --   1620.4004              1629.0295              1643.9957
 Red. masses --      3.5716                 5.7186                 7.3875
 Frc consts  --      5.5253                 8.9413                11.7638
 IR Inten    --    478.7485               428.1567                58.7541

                     73                     74                     75
                      A                      A                      A
 Frequencies --   1673.1422              3097.8983              3167.1213
 Red. masses --      7.6187                 1.0705                 1.0899
 Frc consts  --     12.5660                 6.0531                 6.4412
 IR Inten    --     28.5418               545.6574                46.6859

                     76                     77                     78
                      A                      A                      A
 Frequencies --   3175.9108              3190.2212              3200.4903
 Red. masses --      1.0698                 1.0927                 1.0941
 Frc consts  --      6.3574                 6.5525                 6.6027
 IR Inten    --    529.3770                 4.8396                 8.0806

                     79                     80                     81
                      A                      A                      A
 Frequencies --   3725.0219              3789.4749              3809.2097
 Red. masses --      1.0654                 1.0663                 1.0669
 Frc consts  --      8.7101                 9.0218                 9.1207
 IR Inten    --    397.8185               223.8461               313.4790

 - Thermochemistry -
 -------------------
 Temperature   298.150 Kelvin.  Pressure   1.00000 Atm.
 Atom     1 has atomic number  8 and mass  15.99491

 Molecular mass:   288.02700 amu.
 Principal axes and moments of inertia in atomic units:
                           1         2         3
     Eigenvalues --  3476.964476941.67000**********
           X            0.98306   0.15719   0.09425
           Y           -0.12637   0.95379  -0.27262
           Z           -0.13275   0.25609   0.95749
 This molecule is an asymmetric top.
 Rotational symmetry number  1.
 Warning -- assumption of classical behavior for rotation
           may cause significant error
 Rotational temperatures (Kelvin)      0.02491     0.01248     0.00831
 Rotational constants (GHZ):           0.51906     0.25999     0.17323
 Zero-point vibrational energy     524618.9 (Joules/Mol)
                                  125.38692 (Kcal/Mol)
 Warning -- explicit consideration of  30 degrees of freedom as
           vibrations may cause significant error
 Vibrational temperatures:     27.71    77.67   131.22   163.39   201.12
          (Kelvin)            243.30   258.66   323.63   372.06   386.44
                              441.04   444.29   500.36   505.57   535.30
                              559.27   579.19   584.22   613.11   644.06
                              648.70   661.92   673.96   686.05   694.67
                              737.92   771.85   777.14   837.26   891.76
                              932.59  1003.94  1013.76  1019.21  1054.89
                             1107.85  1128.36  1150.17  1176.02  1212.30
                             1214.63  1237.21  1242.71  1342.26  1386.54
                             1408.16  1451.25  1580.31  1664.19  1696.48
                             1723.03  1733.16  1761.50  1805.50  1837.69
                             1855.97  1870.56  1909.39  1929.51  1949.60
                             2004.26  2025.08  2082.22  2124.24  2139.98
                             2149.04  2166.16  2284.32  2329.09  2331.39
                             2343.81  2365.34  2407.28  4457.18  4556.78
                             4569.43  4590.02  4604.79  5359.48  5452.21
                             5480.60

 Zero-point correction=                           0.199817 (Hartree/Particle)
 Thermal correction to Energy=                    0.216262
 Thermal correction to Enthalpy=                  0.217207
 Thermal correction to Gibbs Free Energy=         0.155927
 Sum of electronic and zero-point Energies=          -1065.020074
 Sum of electronic and thermal Energies=             -1065.003628
 Sum of electronic and thermal Enthalpies=           -1065.002684
 Sum of electronic and thermal Free Energies=        -1065.063964

                     E (Thermal)             CV                S
                      KCal/Mol        Cal/Mol-Kelvin    Cal/Mol-Kelvin
 Total                  135.707             66.161            128.974
 Electronic               0.000              0.000              0.000
 Translational            0.889              2.981             42.871
 Rotational               0.889              2.981             33.885
 Vibrational            133.929             60.199             52.217
 Vibration     1          0.593              1.986              6.709
 Vibration     2          0.596              1.976              4.666
 Vibration     3          0.602              1.955              3.634
 Vibration     4          0.607              1.938              3.207
 Vibration     5          0.615              1.914              2.807
 Vibration     6          0.625              1.881              2.445
 Vibration     7          0.629              1.867              2.331
 Vibration     8          0.650              1.803              1.919
 Vibration     9          0.667              1.748              1.671
 Vibration    10          0.673              1.731              1.605
 Vibration    11          0.697              1.661              1.381
 Vibration    12          0.698              1.657              1.369
 Vibration    13          0.725              1.580              1.176
 Vibration    14          0.728              1.572              1.160
 Vibration    15          0.744              1.530              1.071
 Vibration    16          0.757              1.494              1.005
 Vibration    17          0.768              1.465              0.953
 Vibration    18          0.771              1.457              0.941
 Vibration    19          0.788              1.413              0.871
 Vibration    20          0.807              1.366              0.803
 Vibration    21          0.810              1.359              0.793
 Vibration    22          0.818              1.339              0.766
 Vibration    23          0.826              1.320              0.742
 Vibration    24          0.833              1.301              0.719
 Vibration    25          0.839              1.288              0.703
 Vibration    26          0.868              1.221              0.627
 Vibration    27          0.891              1.169              0.573
 Vibration    28          0.895              1.161              0.565
 Vibration    29          0.939              1.070              0.482
 Vibration    30          0.980              0.990              0.417

                           ! Non-Optimized Parameters !
 Normal termination of Gaussian 16 at Sat Feb 10 23:38:37 2024.
