 Gaussian 16, Revision A.03,
 Gaussian 16:  ES64L-G16RevA.03 25-Dec-2016

 ----------------------------------------------------------------------
 #P UB3LYP/6-311++G(d,p) nosym opt freq SCRF=(PCM,Solvent=n,n-DiMethylF
 ormamide)
 ----------------------------------------------------------------------

 --------
 Oxidized
 --------
 Symbolic Z-matrix:
 Charge =  0 Multiplicity = 1

 SCF Done:  E(UB3LYP) =  -939.737207916     A.U. after   15 cycles
 SCF Done:  E(UB3LYP) =  -939.737473540     A.U. after   12 cycles
 SCF Done:  E(UB3LYP) =  -939.737525337     A.U. after   11 cycles
 SCF Done:  E(UB3LYP) =  -939.737528374     A.U. after   10 cycles
 SCF Done:  E(UB3LYP) =  -939.737530309     A.U. after   10 cycles
 SCF Done:  E(UB3LYP) =  -939.737530824     A.U. after    9 cycles
 SCF Done:  E(UB3LYP) =  -939.737530917     A.U. after    8 cycles
 Optimization completed.
    -- Stationary point found.
 Normal termination of Gaussian 16 at Sat Feb 10 22:46:10 2024.

 ----------------------------------------------------------------------
 #P Geom=AllCheck Guess=TCheck SCRF=Check GenChk UB3LYP/6-311++G(d,p) F
 req
 ----------------------------------------------------------------------

 Structure from the checkpoint file:  "213.chk"
 --------
 Oxidized
 --------
 Charge =  0 Multiplicity = 1

                          Input orientation:
 ---------------------------------------------------------------------
 Center     Atomic      Atomic             Coordinates (Angstroms)
 Number     Number       Type             X           Y           Z
 ---------------------------------------------------------------------
      1          8           0        3.437584    2.678870    0.794517
      2          6           0        3.065012    1.523694    0.578179
      3          6           0        4.068332    0.423769    0.428294
      4          6           0        5.429475    0.719891    0.541458
      5          6           0        6.383395   -0.283989    0.404381
      6          6           0        5.985107   -1.598897    0.151304
      7          6           0        4.633226   -1.904345    0.036480
      8          6           0        3.667516   -0.901549    0.173615
      9          6           0        2.226208   -1.257412    0.048097
     10          8           0        1.877236   -2.410191   -0.176869
     11          6           0        1.228508   -0.158174    0.210122
     12          6           0       -0.118118   -0.470643    0.100061
     13          6           0       -1.124300    0.521193    0.232161
     14          6           0       -0.685046    1.853506    0.479246
     15          6           0        0.657288    2.153252    0.584206
     16          6           0        1.649455    1.167743    0.455519
     17          7           0       -2.447731    0.212324    0.127062
     18          6           0       -2.916108   -1.184206    0.140095
     19          6           0       -4.321643   -1.272225    0.738020
     20          6           0       -5.353535   -0.459312   -0.069153
     21          6           0       -4.684908    0.738013   -0.772762
     22          6           0       -3.472618    1.262523   -0.001017
     23          1           0        5.724238    1.743080    0.736832
     24          1           0        7.436578   -0.044163    0.494038
     25          1           0        6.727844   -2.380788    0.044568
     26          1           0        4.308354   -2.918452   -0.159186
     27          1           0       -0.375241   -1.496820   -0.116943
     28          1           0       -1.406266    2.646857    0.615220
     29          1           0        0.963696    3.172907    0.783935
     30          1           0       -2.899905   -1.607310   -0.873397
     31          1           0       -2.232935   -1.775115    0.750713
     32          1           0       -4.276092   -0.905446    1.768253
     33          1           0       -4.611235   -2.324436    0.793546
     34          1           0       -5.835326   -1.094594   -0.817536
     35          1           0       -6.144003   -0.111216    0.601539
     36          1           0       -4.351516    0.447898   -1.774091
     37          1           0       -5.394655    1.558228   -0.905411
     38          1           0       -3.775349    1.630552    0.988846
     39          1           0       -3.042522    2.104983   -0.544056
 ---------------------------------------------------------------------

 SCF Done:  E(UB3LYP) =  -939.737530917     A.U. after    2 cycles

 Alpha  occ. eigenvalues --  -19.12880 -19.11652 -14.35057 -10.28075 -10.27083
 Alpha  occ. eigenvalues --  -10.24026 -10.21036 -10.21008 -10.20560 -10.20507
 Alpha  occ. eigenvalues --  -10.20436 -10.19683 -10.19613 -10.19551 -10.19414
 Alpha  occ. eigenvalues --  -10.19266 -10.18962 -10.18815 -10.18741 -10.17364
 Alpha  occ. eigenvalues --  -10.17345 -10.16936  -1.06125  -1.04740  -0.97029
 Alpha  occ. eigenvalues --   -0.88818  -0.87298  -0.81960  -0.79700  -0.77845
 Alpha  occ. eigenvalues --   -0.77535  -0.76505  -0.75555  -0.69256  -0.67892
 Alpha  occ. eigenvalues --   -0.65927  -0.64553  -0.62564  -0.60848  -0.58231
 Alpha  occ. eigenvalues --   -0.56799  -0.55793  -0.54080  -0.51993  -0.51221
 Alpha  occ. eigenvalues --   -0.49799  -0.48733  -0.48291  -0.45811  -0.45539
 Alpha  occ. eigenvalues --   -0.45199  -0.44926  -0.44913  -0.44596  -0.43809
 Alpha  occ. eigenvalues --   -0.43735  -0.42332  -0.41940  -0.41162  -0.40361
 Alpha  occ. eigenvalues --   -0.39561  -0.38720  -0.37920  -0.37714  -0.37111
 Alpha  occ. eigenvalues --   -0.36846  -0.36005  -0.34042  -0.33298  -0.32435
 Alpha  occ. eigenvalues --   -0.30163  -0.28293  -0.28263  -0.27722  -0.27394
 Alpha  occ. eigenvalues --   -0.26925  -0.21389
 Alpha virt. eigenvalues --   -0.11258  -0.06805  -0.02860  -0.01995  -0.01114
 Alpha virt. eigenvalues --   -0.00291   0.00600   0.00933   0.01041   0.01558
 Alpha virt. eigenvalues --    0.02337   0.02652   0.03374   0.03526   0.03864

  Beta  occ. eigenvalues --  -19.12880 -19.11652 -14.35057 -10.28075 -10.27083
  Beta  occ. eigenvalues --  -10.24026 -10.21036 -10.21008 -10.20560 -10.20507
  Beta  occ. eigenvalues --  -10.20436 -10.19683 -10.19613 -10.19551 -10.19414
  Beta  occ. eigenvalues --  -10.19266 -10.18962 -10.18815 -10.18741 -10.17364
  Beta  occ. eigenvalues --  -10.17345 -10.16936  -1.06125  -1.04740  -0.97029
  Beta  occ. eigenvalues --   -0.88818  -0.87298  -0.81960  -0.79700  -0.77845
  Beta  occ. eigenvalues --   -0.77535  -0.76505  -0.75555  -0.69256  -0.67892
  Beta  occ. eigenvalues --   -0.65927  -0.64553  -0.62564  -0.60848  -0.58231
  Beta  occ. eigenvalues --   -0.56799  -0.55793  -0.54080  -0.51993  -0.51221
  Beta  occ. eigenvalues --   -0.49799  -0.48733  -0.48291  -0.45811  -0.45539
  Beta  occ. eigenvalues --   -0.45199  -0.44926  -0.44913  -0.44596  -0.43809
  Beta  occ. eigenvalues --   -0.43735  -0.42332  -0.41940  -0.41162  -0.40361
  Beta  occ. eigenvalues --   -0.39561  -0.38720  -0.37920  -0.37714  -0.37111
  Beta  occ. eigenvalues --   -0.36846  -0.36005  -0.34042  -0.33298  -0.32435
  Beta  occ. eigenvalues --   -0.30163  -0.28293  -0.28263  -0.27722  -0.27394
  Beta  occ. eigenvalues --   -0.26925  -0.21389
  Beta virt. eigenvalues --   -0.11258  -0.06805  -0.02860  -0.01995  -0.01114
  Beta virt. eigenvalues --   -0.00291   0.00600   0.00933   0.01041   0.01558
  Beta virt. eigenvalues --    0.02337   0.02652   0.03374   0.03526   0.03864

 Mulliken charges and spin densities:
               1          2
     1  O   -0.320273   0.000000
     2  C   -0.689004  -0.000000
     3  C    0.024126  -0.000000
     4  C    0.156105   0.000000
     5  C   -0.442102  -0.000000
     6  C   -0.437558  -0.000000
     7  C    0.087635  -0.000000
     8  C    0.448362   0.000000
     9  C   -0.774162  -0.000000
    10  O   -0.276491   0.000000
    11  C    0.515290   0.000000
    12  C    0.139887   0.000000
    13  C   -0.722097   0.000000
    14  C    0.029103  -0.000000
    15  C    0.170651  -0.000000
    16  C    0.261474  -0.000000
    17  N    0.351954   0.000000
    18  C   -0.256699  -0.000000
    19  C   -0.305389   0.000000
    20  C   -0.565525  -0.000000
    21  C   -0.276676   0.000000
    22  C   -0.256909  -0.000000
    23  H    0.184207   0.000000
    24  H    0.204597  -0.000000
    25  H    0.206117   0.000000
    26  H    0.182297  -0.000000
    27  H    0.181316  -0.000000
    28  H    0.224207  -0.000000
    29  H    0.195357   0.000000
    30  H    0.187479   0.000000
    31  H    0.175263   0.000000
    32  H    0.177924  -0.000000
    33  H    0.183885  -0.000000
    34  H    0.160299  -0.000000
    35  H    0.162336   0.000000
    36  H    0.178030  -0.000000
    37  H    0.185282   0.000000
    38  H    0.187122   0.000000
    39  H    0.162580   0.000000
 Sum of Mulliken charges =  -0.00000   0.00000

 Dipole moment (field-independent basis, Debye):
    X=             -6.1956    Y=             -1.2099    Z=             -0.4095  Tot=              6.3259
 Quadrupole moment (field-independent basis, Debye-Ang):
   XX=            -93.6118   YY=           -139.4150   ZZ=           -132.5215
   XY=            -14.3624   XZ=             -1.8755   YZ=             -3.0052

  Exact polarizability: 565.636  14.678 355.152  18.723  28.386 187.870
 Approx polarizability: 586.199  39.507 439.093  22.457  41.387 219.388

                      1                      2                      3
                      A                      A                      A
 Frequencies --     22.3409                39.0483                53.9908
 Red. masses --      5.0077                 4.3827                 3.3648
 Frc consts  --      0.0015                 0.0039                 0.0058
 IR Inten    --      3.4586                 6.3660                 0.1800

                      4                      5                      6
                      A                      A                      A
 Frequencies --     77.1419               104.5789               110.5053
 Red. masses --      4.1008                 3.8299                 4.4664
 Frc consts  --      0.0144                 0.0247                 0.0321
 IR Inten    --      1.5941                 1.0258                 0.0850

                      7                      8                      9
                      A                      A                      A
 Frequencies --    130.2797               154.8387               197.9995
 Red. masses --      3.0041                 5.3697                 4.3438
 Frc consts  --      0.0300                 0.0759                 0.1003
 IR Inten    --      3.2256                 2.8397                 0.7197

                     10                     11                     12
                      A                      A                      A
 Frequencies --    220.7408               231.4709               258.1456
 Red. masses --      5.4929                 4.9871                 2.9921
 Frc consts  --      0.1577                 0.1574                 0.1175
 IR Inten    --      0.5087                 2.1726                 2.0406

                     13                     14                     15
                      A                      A                      A
 Frequencies --    273.5253               289.7774               310.7580
 Red. masses --      1.8604                 5.5597                 3.3866
 Frc consts  --      0.0820                 0.2751                 0.1927
 IR Inten    --      2.3357                 1.9658                 4.0776

                     16                     17                     18
                      A                      A                      A
 Frequencies --    383.1663               405.7895               417.3239
 Red. masses --      9.0041                 7.9382                 3.4459
 Frc consts  --      0.7789                 0.7701                 0.3536
 IR Inten    --     35.0716                31.6613                 2.9242

                     19                     20                     21
                      A                      A                      A
 Frequencies --    429.6312               447.4631               455.9421
 Red. masses --      6.9199                 3.2110                 4.3466
 Frc consts  --      0.7526                 0.3788                 0.5324
 IR Inten    --      2.6276                 2.7495                 0.7470

                     22                     23                     24
                      A                      A                      A
 Frequencies --    468.9498               473.0409               484.3683
 Red. masses --      2.9796                 5.8364                 7.2662
 Frc consts  --      0.3861                 0.7695                 1.0044
 IR Inten    --      0.7676                 1.3394                 6.3957

                     25                     26                     27
                      A                      A                      A
 Frequencies --    545.2225               564.0440               611.4261
 Red. masses --      2.7129                 4.3995                 2.6207
 Frc consts  --      0.4752                 0.8247                 0.5772
 IR Inten    --      3.0942                10.3826                12.4496

                     28                     29                     30
                      A                      A                      A
 Frequencies --    647.3886               669.9471               677.7107
 Red. masses --      6.8171                 4.7796                 3.8422
 Frc consts  --      1.6834                 1.2639                 1.0397
 IR Inten    --     20.3874                 5.6328                17.6042

                     31                     32                     33
                      A                      A                      A
 Frequencies --    698.8375               718.9800               722.1227
 Red. masses --      6.5705                 5.7379                 3.6566
 Frc consts  --      1.8906                 1.7476                 1.1234
 IR Inten    --      1.5435                 1.7459                18.0399

                     34                     35                     36
                      A                      A                      A
 Frequencies --    734.0328               777.3538               795.5934
 Red. masses --      2.2633                 1.3224                 3.5841
 Frc consts  --      0.7185                 0.4708                 1.3366
 IR Inten    --    114.9816                 4.2636                 0.8139

                     37                     38                     39
                      A                      A                      A
 Frequencies --    809.1845               812.2308               840.5009
 Red. masses --      2.0485                 5.7074                 1.8853
 Frc consts  --      0.7903                 2.2184                 0.7847
 IR Inten    --      2.4633                15.8534                37.8235

                     40                     41                     42
                      A                      A                      A
 Frequencies --    849.5007               884.6884               895.1574
 Red. masses --      2.9123                 1.4679                 1.5867
 Frc consts  --      1.2383                 0.6769                 0.7491
 IR Inten    --     12.1249                 3.6513                23.0487

                     43                     44                     45
                      A                      A                      A
 Frequencies --    914.0100               922.6895               923.8501
 Red. masses --      1.4356                 3.9751                 2.3413
 Frc consts  --      0.7066                 1.9939                 1.1773
 IR Inten    --      0.2109               167.2590                 7.7084

                     46                     47                     48
                      A                      A                      A
 Frequencies --    937.7588               992.5365               994.1574
 Red. masses --      7.1102                 1.3397                 1.5754
 Frc consts  --      3.6839                 0.7776                 0.9174
 IR Inten    --     51.0800                 2.5035                 0.7598

                     49                     50                     51
                      A                      A                      A
 Frequencies --   1000.1201              1002.9941              1021.3332
 Red. masses --      1.3993                 2.6306                 1.3274
 Frc consts  --      0.8247                 1.5592                 0.8158
 IR Inten    --      3.2125                33.6598                 0.0189

                     52                     53                     54
                      A                      A                      A
 Frequencies --   1027.8048              1049.1941              1055.9524
 Red. masses --      2.2738                 1.9171                 1.9083
 Frc consts  --      1.4152                 1.2434                 1.2537
 IR Inten    --     99.1263                26.2615                 0.3217

                     55                     56                     57
                      A                      A                      A
 Frequencies --   1099.8680              1109.6323              1122.1197
 Red. masses --      1.7170                 2.4200                 2.9401
 Frc consts  --      1.2238                 1.7556                 2.1812
 IR Inten    --      2.6124                 1.7183               109.5157

                     58                     59                     60
                      A                      A                      A
 Frequencies --   1131.6860              1148.1553              1171.3673
 Red. masses --      2.1960                 2.6372                 1.3631
 Frc consts  --      1.6570                 2.0483                 1.1019
 IR Inten    --     21.8437                38.5772                 4.7405

                     61                     62                     63
                      A                      A                      A
 Frequencies --   1181.8651              1197.5049              1202.1233
 Red. masses --      1.3261                 1.8678                 1.3966
 Frc consts  --      1.0914                 1.5781                 1.1891
 IR Inten    --     69.3899                44.0133                79.6942

                     64                     65                     66
                      A                      A                      A
 Frequencies --   1240.1731              1256.8747              1266.3809
 Red. masses --      1.8461                 1.8445                 1.2280
 Frc consts  --      1.6729                 1.7168                 1.1603
 IR Inten    --    124.2397                43.0232                23.8598

                     67                     68                     69
                      A                      A                      A
 Frequencies --   1278.3001              1287.9883              1295.7033
 Red. masses --      1.4103                 1.4126                 2.6064
 Frc consts  --      1.3578                 1.3807                 2.5781
 IR Inten    --    303.6079                30.1319              1455.4983

                     70                     71                     72
                      A                      A                      A
 Frequencies --   1298.0079              1329.0048              1353.6197
 Red. masses --      1.3723                 2.4718                 4.5969
 Frc consts  --      1.3622                 2.5722                 4.9626
 IR Inten    --      7.0758               291.0044               234.7631

                     73                     74                     75
                      A                      A                      A
 Frequencies --   1359.1087              1362.2956              1372.8966
 Red. masses --      1.8522                 2.3665                 1.3142
 Frc consts  --      2.0158                 2.5876                 1.4595
 IR Inten    --      5.5936                19.8016                10.4867

                     76                     77                     78
                      A                      A                      A
 Frequencies --   1390.7335              1399.6626              1405.7810
 Red. masses --      1.4257                 1.6187                 1.3739
 Frc consts  --      1.6247                 1.8683                 1.5997
 IR Inten    --     16.0471                65.0208                 3.9347

                     79                     80                     81
                      A                      A                      A
 Frequencies --   1415.8536              1473.8171              1480.2949
 Red. masses --      2.6888                 2.9582                 1.0989
 Frc consts  --      3.1757                 3.7858                 1.4187
 IR Inten    --    774.0415                75.4214                 3.8137

                     82                     83                     84
                      A                      A                      A
 Frequencies --   1482.6035              1487.1328              1496.7918
 Red. masses --      2.9297                 1.0849                 1.1056
 Frc consts  --      3.7943                 1.4136                 1.4593
 IR Inten    --     52.6704                12.1661                72.6833

                     85                     86                     87
                      A                      A                      A
 Frequencies --   1500.6508              1508.9749              1510.3108
 Red. masses --      2.6728                 1.1495                 1.1203
 Frc consts  --      3.5463                 1.5421                 1.5057
 IR Inten    --      5.0769               130.8959                32.0341

                     88                     89                     90
                      A                      A                      A
 Frequencies --   1536.3177              1564.9994              1596.7263
 Red. masses --      3.2062                 6.2780                 5.9100
 Frc consts  --      4.4587                 9.0593                 8.8776
 IR Inten    --     82.2255               110.8805              1290.0717

                     91                     92                     93
                      A                      A                      A
 Frequencies --   1612.9154              1625.1359              1665.9997
 Red. masses --      6.5910                 5.6994                10.5555
 Frc consts  --     10.1024                 8.8686                17.2614
 IR Inten    --    482.7471               110.7372                85.8059

                     94                     95                     96
                      A                      A                      A
 Frequencies --   1697.1066              2983.7261              2988.9392
 Red. masses --     11.4821                 1.0715                 1.0726
 Frc consts  --     19.4844                 5.6202                 5.6457
 IR Inten    --    419.3337               129.4923                57.5015

                     97                     98                     99
                      A                      A                      A
 Frequencies --   3029.4772              3031.7311              3039.6077
 Red. masses --      1.0603                 1.0663                 1.0653
 Frc consts  --      5.7332                 5.7746                 5.7993
 IR Inten    --     27.1378                68.6712                54.3650

                    100                    101                    102
                      A                      A                      A
 Frequencies --   3060.6704              3076.8211              3083.5355
 Red. masses --      1.0986                 1.1004                 1.0955
 Frc consts  --      6.0633                 6.1377                 6.1369
 IR Inten    --     30.4322                55.4510                92.8091

                    103                    104                    105
                      A                      A                      A
 Frequencies --   3085.4066              3088.6991              3176.2694
 Red. masses --      1.0987                 1.0922                 1.0873
 Frc consts  --      6.1627                 6.1392                 6.4627
 IR Inten    --     65.2052                26.7190                 4.1976

                    106                    107                    108
                      A                      A                      A
 Frequencies --   3188.8271              3190.4663              3201.3297
 Red. masses --      1.0913                 1.0890                 1.0925
 Frc consts  --      6.5382                 6.5308                 6.5965
 IR Inten    --     12.9221                 2.8277                 4.4089

                    109                    110                    111
                      A                      A                      A
 Frequencies --   3204.4487              3215.7089              3224.7269
 Red. masses --      1.0953                 1.0921                 1.0889
 Frc consts  --      6.6263                 6.6538                 6.6716
 IR Inten    --     25.0095                14.2752                 8.0732

 - Thermochemistry -
 -------------------
 Temperature   298.150 Kelvin.  Pressure   1.00000 Atm.
 Atom     1 has atomic number  8 and mass  15.99491

 Molecular mass:   291.12593 amu.
 Principal axes and moments of inertia in atomic units:
                           1         2         3
     Eigenvalues --  2247.54569********************
           X            0.99896   0.02355  -0.03901
           Y           -0.02794   0.99287  -0.11592
           Z            0.03600   0.11689   0.99249
 This molecule is an asymmetric top.
 Rotational symmetry number  1.
 Warning -- assumption of classical behavior for rotation
           may cause significant error
 Rotational temperatures (Kelvin)      0.03854     0.00644     0.00561
 Rotational constants (GHZ):           0.80298     0.13428     0.11679
 Zero-point vibrational energy     833342.7 (Joules/Mol)
                                  199.17368 (Kcal/Mol)
 Warning -- explicit consideration of  27 degrees of freedom as
           vibrations may cause significant error
 Vibrational temperatures:     32.14    56.18    77.68   110.99   150.47
          (Kelvin)            158.99   187.44   222.78   284.88   317.60
                              333.04   371.41   393.54   416.93   447.11
                              551.29   583.84   600.44   618.14   643.80
                              656.00   674.71   680.60   696.90   784.45
                              811.53   879.71   931.45   963.90   975.07
                             1005.47  1034.45  1038.97  1056.11  1118.44
                             1144.68  1164.24  1168.62  1209.29  1222.24
                             1272.87  1287.93  1315.06  1327.54  1329.21
                             1349.23  1428.04  1430.37  1438.95  1443.08
                             1469.47  1478.78  1509.56  1519.28  1582.46
                             1596.51  1614.48  1628.24  1651.94  1685.34
                             1700.44  1722.94  1729.59  1784.33  1808.36
                             1822.04  1839.19  1853.13  1864.23  1867.54
                             1912.14  1947.56  1955.45  1960.04  1975.29
                             2000.96  2013.80  2022.61  2037.10  2120.49
                             2129.81  2133.14  2139.65  2153.55  2159.10
                             2171.08  2173.00  2210.42  2251.69  2297.33
                             2320.63  2338.21  2397.00  2441.76  4292.92
                             4300.42  4358.74  4361.98  4373.32  4403.62
                             4426.86  4436.52  4439.21  4443.95  4569.94
                             4588.01  4590.37  4606.00  4610.49  4626.69
                             4639.66

 Zero-point correction=                           0.317403 (Hartree/Particle)
 Thermal correction to Energy=                    0.334955
 Thermal correction to Enthalpy=                  0.335900
 Thermal correction to Gibbs Free Energy=         0.270883
 Sum of electronic and zero-point Energies=           -939.420127
 Sum of electronic and thermal Energies=              -939.402575
 Sum of electronic and thermal Enthalpies=            -939.401631
 Sum of electronic and thermal Free Energies=         -939.466648

                     E (Thermal)             CV                S
                      KCal/Mol        Cal/Mol-Kelvin    Cal/Mol-Kelvin
 Total                  210.188             70.241            136.839
 Electronic               0.000              0.000              0.000
 Translational            0.889              2.981             42.903
 Rotational               0.889              2.981             34.500
 Vibrational            208.410             64.279             59.436
 Vibration     1          0.593              1.985              6.414
 Vibration     2          0.594              1.981              5.307
 Vibration     3          0.596              1.976              4.666
 Vibration     4          0.599              1.964              3.962
 Vibration     5          0.605              1.946              3.367
 Vibration     6          0.606              1.941              3.260
 Vibration     7          0.612              1.923              2.942
 Vibration     8          0.620              1.897              2.612
 Vibration     9          0.637              1.843              2.152
 Vibration    10          0.647              1.809              1.953
 Vibration    11          0.653              1.793              1.868
 Vibration    12          0.667              1.749              1.674
 Vibration    13          0.676              1.722              1.574
 Vibration    14          0.686              1.693              1.475
 Vibration    15          0.700              1.653              1.358
 Vibration    16          0.752              1.506              1.027
 Vibration    17          0.771              1.458              0.942
 Vibration    18          0.780              1.433              0.901
 Vibration    19          0.791              1.406              0.860
 Vibration    20          0.807              1.366              0.803
 Vibration    21          0.814              1.348              0.778
 Vibration    22          0.826              1.319              0.740
 Vibration    23          0.830              1.310              0.729
 Vibration    24          0.840              1.285              0.698
 Vibration    25          0.900              1.150              0.554
 Vibration    26          0.920              1.109              0.516
 Vibration    27          0.971              1.008              0.430

                           ! Non-Optimized Parameters !
 Normal termination of Gaussian 16 at Sun Feb 11 00:19:10 2024.
