 Q-Chem 5.4, Q-Chem, Inc., Pleasanton, CA (2021)
 Q-Chem 5.4.0 for Intel X86 EM64T Linux

User input:
--------------------------------------------------------------
$molecule
-1 2
O                 -0.0165510000     -2.5100930000     -0.5255080000
C                 -0.0087080000     -1.2943520000     -0.1718510000
C                  1.2479460000     -0.6011710000      0.0973220000
C                  2.4489960000     -1.3562990000      0.1139550000
C                  3.6582870000     -0.7925120000      0.4712000000
C                  3.7376970000      0.5659050000      0.8331180000
C                  2.5823930000      1.3374470000      0.7957940000
C                  1.3562390000      0.7759570000      0.4284660000
S                  0.0116320000      1.9500920000      0.2167800000
O                  0.0123970000      2.4469790000     -1.2326950000
C                 -1.3464670000      0.7923930000      0.4327250000
C                 -2.5645070000      1.3687850000      0.8039300000
C                 -3.7290520000      0.6114210000      0.8447230000
C                 -3.6673900000     -0.7477780000      0.4823440000
C                 -2.4661830000     -1.3262780000      0.1213120000
C                 -1.2560210000     -0.5859200000      0.1011220000
H                  2.3689760000     -2.4038670000     -0.1510960000
H                  4.5554010000     -1.4051320000      0.4788090000
H                  4.6850230000      1.0091390000      1.1208480000
H                  2.6242680000      2.3957250000      1.0373940000
H                 -2.5927190000      2.4274510000      1.0458100000
H                 -4.6699700000      1.0661780000      1.1354930000
H                 -4.5719050000     -1.3493790000      0.4925720000
H                 -2.3997830000     -2.3746930000     -0.1441140000
$end
$rem
MAX_SCF_CYCLES=200
BASIS  =  6-311++G(d,p)
GUI  =  2
JOB_TYPE  =  SP
METHOD  =  B3LYP
SOLVENT_METHOD = COSMO
$end
$solvent
dielectric 37.219
opticaldielectric 1.43
$end

--------------------------------------------------------------

             Standard Nuclear Orientation (Angstroms)
    I     Atom           X                Y                Z
 ----------------------------------------------------------------
    1      O      -0.0001589267     2.7377293281    -0.6038755963
    2      C      -0.0000311972     1.5046797416    -0.3162131789
    3      C      -1.2520117182     0.7902513346    -0.0832537303
    4      C      -2.4576248639     1.5359475849    -0.0245161734
    5      C      -3.6628981314     0.9462721272     0.3033003904
    6      C      -3.7334517513    -0.4301310268     0.5916125079
    7      C      -2.5735152868    -1.1913855366     0.5113850756
    8      C      -1.3513808446    -0.6033563749     0.1733560507
    9      S       0.0000456307    -1.7560502962    -0.1028959191
   10      O       0.0000845117    -2.1741422931    -1.5770309646
   11      C       1.3513784841    -0.6032884036     0.1734582917
   12      C       2.5734865414    -1.1912954981     0.5116030600
   13      C       3.7334449931    -0.4300427606     0.5917280526
   14      C       3.6629239256     0.9462939104     0.3031681617
   15      C       2.4576513179     1.5359620533    -0.0247251661
   16      C       1.2520046087     0.7902986024    -0.0833058881
   17      H      -2.3844133692     2.5967453867    -0.2328477558
   18      H      -4.5637247113     1.5520350431     0.3449831555
   19      H      -4.6776086052    -0.8940671151     0.8561925962
   20      H      -2.6085532180    -2.2613786853     0.6956767087
   21      H       2.6085370206    -2.2612578517     0.6960687119
   22      H       4.6775697407    -0.8939747713     0.8564417754
   23      H       4.5637619391     1.5520513498     0.3446959637
   24      H       2.3844399668     2.5967205812    -0.2332086845
 ----------------------------------------------------------------

   11   -1049.0372895571      4.62e-06  Convergence criterion met
 Total energy in the final basis set =    -1049.0372895571
    5   -1049.1263636645      5.99e-06  Convergence criterion met
 Total energy in the final basis set =    -1049.1263636645

                    Orbital Energies (a.u.)
 --------------------------------------------------------------

 Alpha MOs
 -- Occupied --
-88.9477 -19.0866 -19.0706 -10.2175 -10.1984 -10.1984 -10.1823 -10.1822
-10.1818 -10.1818 -10.1753 -10.1752 -10.1724 -10.1724 -10.1704 -10.1703
 -8.0239  -5.9867  -5.9853  -5.9798  -1.0106  -0.9962  -0.8695  -0.8581
 -0.7917  -0.7662  -0.7555  -0.7456  -0.6959  -0.6471  -0.6196  -0.5946
 -0.5854  -0.5455  -0.5308  -0.4892  -0.4668  -0.4645  -0.4601  -0.4412
 -0.4297  -0.4275  -0.4205  -0.4181  -0.4049  -0.3859  -0.3769  -0.3753
 -0.3534  -0.3516  -0.3511  -0.3449  -0.2852  -0.2754  -0.2626  -0.2617
 -0.2545  -0.2425  -0.2412  -0.1354

 Beta MOs
 -- Occupied --
-88.9477 -19.0855 -19.0642 -10.2142 -10.1969 -10.1969 -10.1829 -10.1829
-10.1816 -10.1816 -10.1755 -10.1755 -10.1707 -10.1707 -10.1693 -10.1693
 -8.0239  -5.9867  -5.9853  -5.9798  -1.0077  -0.9844  -0.8668  -0.8564
 -0.7886  -0.7621  -0.7539  -0.7432  -0.6927  -0.6427  -0.6166  -0.5936
 -0.5829  -0.5427  -0.5292  -0.4868  -0.4655  -0.4623  -0.4594  -0.4388
 -0.4291  -0.4249  -0.4164  -0.4122  -0.3998  -0.3779  -0.3735  -0.3712
 -0.3524  -0.3500  -0.3443  -0.3341  -0.2833  -0.2671  -0.2570  -0.2480
 -0.2457  -0.2399  -0.2367

          Ground-State Mulliken Net Atomic Charges

     Atom                 Charge (a.u.)    Spin (a.u.)
  --------------------------------------------------------
      1 O                    -0.528452       0.240484
      2 C                    -0.048881       0.216007
      3 C                     1.349182      -0.019066
      4 C                     0.153123       0.116169
      5 C                    -0.592502      -0.023829
      6 C                    -0.185889       0.135589
      7 C                    -0.270075      -0.048359
      8 C                    -1.136385       0.101654
      9 S                    -0.160961       0.042651
     10 O                    -0.528851       0.000433
     11 C                    -1.135521       0.101603
     12 C                    -0.269426      -0.048363
     13 C                    -0.186162       0.135647
     14 C                    -0.592117      -0.023826
     15 C                     0.153425       0.116162
     16 C                     1.350038      -0.019142
     17 H                     0.198143      -0.006858
     18 H                     0.200663       0.000879
     19 H                     0.205594      -0.009425
     20 H                     0.210326       0.003502
     21 H                     0.210369       0.003500
     22 H                     0.205644      -0.009428
     23 H                     0.200671       0.000878
     24 H                     0.198044      -0.006861
  --------------------------------------------------------
  Sum of atomic charges =    -1.000000

                    Cartesian Multipole Moments
 -----------------------------------------------------------------
    Charge (ESU x 10^10)
                -4.8032
    Dipole Moment (Debye)
         X      -0.0002      Y      -2.6324      Z       6.3325
       Tot       6.8579
    Quadrupole Moments (Debye-Ang)
        XX     -91.5236     XY       0.0028     YY    -128.7323
        XZ      -0.0015     YZ      -7.2850     ZZ    -117.5293

 Total job time:  80.09s(wall), 588.33s(cpu)
        *  Thank you very much for using Q-Chem.  Have a nice day.  *
