 Gaussian 16, Revision A.03,
 Gaussian 16:  ES64L-G16RevA.03 25-Dec-2016

 ----------------------------------------------------------------
 #P UB3LYP/6-311++G(d,p) SCRF=(PCM,Solvent=n,n-DiMethylFormamide)
 ----------------------------------------------------------------

 -------
 Reduced
 -------
 Symbolic Z-matrix:
 Charge = -2 Multiplicity = 1

                         Standard orientation:
 ---------------------------------------------------------------------
 Center     Atomic      Atomic             Coordinates (Angstroms)
 Number     Number       Type             X           Y           Z
 ---------------------------------------------------------------------
      1          6           0       -2.777525    1.396761    0.000121
      2          6           0       -3.973880    0.714063    0.000396
      3          6           0       -3.973871   -0.713966    0.000341
      4          6           0       -1.523615    0.726598   -0.000287
      5          6           0       -1.523610   -0.726518   -0.000326
      6          6           0       -2.777539   -1.396682    0.000034
      7          6           0       -0.307523    1.474279   -0.000589
      8          6           0        0.913108    0.722138   -0.000292
      9          6           0        0.913086   -0.722107   -0.000371
     10          6           0       -0.307561   -1.474135   -0.000620
     11          6           0        2.175294    1.420129    0.000117
     12          6           0        3.358374    0.712636    0.000479
     13          6           0        2.175218   -1.420313   -0.000019
     14          6           0        3.358356   -0.712870    0.000405
     15          8           0       -0.297214    2.793738   -0.000048
     16          8           0       -0.297283   -2.793714    0.000311
     17          8           0        2.175358    2.784562    0.000065
     18          1           0       -2.748551    2.481886    0.000153
     19          1           0       -4.916689    1.258436    0.000660
     20          1           0       -4.916678   -1.258348    0.000611
     21          1           0       -2.748564   -2.481804    0.000083
     22          1           0        1.162189    3.019272   -0.000428
     23          8           0        2.174967   -2.784627   -0.000093
     24          1           0        4.295235   -1.264297    0.000705
     25          1           0        4.295266    1.264041    0.000747
     26          1           0        1.161316   -3.018927   -0.000752
 ---------------------------------------------------------------------

 SCF Done:  E(UB3LYP) =  -839.724535228     A.U. after   15 cycles

 The electronic state is 1-A.
 Alpha  occ. eigenvalues --  -19.09563 -19.09557 -19.04437 -19.04434 -10.19884
 Alpha  occ. eigenvalues --  -10.19882 -10.18747 -10.18745 -10.15489 -10.15448
 Alpha  occ. eigenvalues --  -10.15258 -10.15257 -10.14826 -10.14787 -10.14592
 Alpha  occ. eigenvalues --  -10.14556 -10.13941 -10.13898  -1.01418  -1.01260
 Alpha  occ. eigenvalues --   -0.95014  -0.94765  -0.83409  -0.81356  -0.75947
 Alpha  occ. eigenvalues --   -0.73186  -0.71285  -0.70264  -0.64832  -0.61091
 Alpha  occ. eigenvalues --   -0.60571  -0.56047  -0.54634  -0.51644  -0.49710
 Alpha  occ. eigenvalues --   -0.48779  -0.47388  -0.44456  -0.43946  -0.43115
 Alpha  occ. eigenvalues --   -0.40542  -0.40387  -0.39276  -0.38796  -0.38558
 Alpha  occ. eigenvalues --   -0.37453  -0.37124  -0.36667  -0.36448  -0.34318
 Alpha  occ. eigenvalues --   -0.32798  -0.32592  -0.32500  -0.31767  -0.30833
 Alpha  occ. eigenvalues --   -0.27505  -0.23730  -0.23605  -0.22725  -0.22117
 Alpha  occ. eigenvalues --   -0.21563  -0.18557  -0.11753
 Alpha virt. eigenvalues --   -0.02522  -0.00278   0.00187   0.00967   0.01470
 Alpha virt. eigenvalues --    0.02357   0.02753   0.03244   0.04679   0.04745
 Alpha virt. eigenvalues --    0.04990   0.05259   0.06724   0.06848   0.07069

  Beta  occ. eigenvalues --  -19.09563 -19.09557 -19.04437 -19.04434 -10.19884
  Beta  occ. eigenvalues --  -10.19882 -10.18747 -10.18745 -10.15489 -10.15448
  Beta  occ. eigenvalues --  -10.15258 -10.15257 -10.14826 -10.14787 -10.14592
  Beta  occ. eigenvalues --  -10.14556 -10.13941 -10.13898  -1.01418  -1.01260
  Beta  occ. eigenvalues --   -0.95014  -0.94765  -0.83409  -0.81356  -0.75947
  Beta  occ. eigenvalues --   -0.73186  -0.71285  -0.70264  -0.64832  -0.61091
  Beta  occ. eigenvalues --   -0.60571  -0.56047  -0.54634  -0.51644  -0.49710
  Beta  occ. eigenvalues --   -0.48779  -0.47388  -0.44456  -0.43946  -0.43115
  Beta  occ. eigenvalues --   -0.40542  -0.40387  -0.39276  -0.38796  -0.38558
  Beta  occ. eigenvalues --   -0.37453  -0.37124  -0.36667  -0.36448  -0.34318
  Beta  occ. eigenvalues --   -0.32798  -0.32592  -0.32500  -0.31767  -0.30833
  Beta  occ. eigenvalues --   -0.27505  -0.23730  -0.23605  -0.22725  -0.22117
  Beta  occ. eigenvalues --   -0.21563  -0.18557  -0.11753
  Beta virt. eigenvalues --   -0.02522  -0.00278   0.00187   0.00967   0.01470
  Beta virt. eigenvalues --    0.02357   0.02753   0.03244   0.04679   0.04745
  Beta virt. eigenvalues --    0.04990   0.05259   0.06724   0.06848   0.07069

 Mulliken charges and spin densities:
               1          2
     1  C   -0.094562   0.000000
     2  C   -0.507660  -0.000000
     3  C   -0.507586  -0.000000
     4  C    0.078198   0.000000
     5  C    0.078302  -0.000000
     6  C   -0.094703  -0.000000
     7  C   -0.181900   0.000000
     8  C    0.537548   0.000000
     9  C    0.537439   0.000000
    10  C   -0.181679   0.000000
    11  C   -0.332724  -0.000000
    12  C   -0.201311   0.000000
    13  C   -0.332508   0.000000
    14  C   -0.201480  -0.000000
    15  O   -0.662597   0.000000
    16  O   -0.662702  -0.000000
    17  O   -0.490237   0.000000
    18  H    0.153848  -0.000000
    19  H    0.162261   0.000000
    20  H    0.162264  -0.000000
    21  H    0.153852  -0.000000
    22  H    0.377597  -0.000000
    23  O   -0.490583  -0.000000
    24  H    0.161510   0.000000
    25  H    0.161524  -0.000000
    26  H    0.377891   0.000000
 Sum of Mulliken charges =  -2.00000  -0.00000

 Dipole moment (field-independent basis, Debye):
    X=             -4.0968    Y=              0.0018    Z=             -0.0021  Tot=              4.0968
 Quadrupole moment (field-independent basis, Debye-Ang):
   XX=           -143.3924   YY=           -172.3600   ZZ=           -115.8819
   XY=              0.0051   XZ=             -0.0029   YZ=              0.0037

 Normal termination of Gaussian 16 at Tue Jan 16 06:14:52 2024.
