 Gaussian 16, Revision A.03,
 Gaussian 16:  ES64L-G16RevA.03 25-Dec-2016

 --------------------------------------
 #P UB3LYP/6-311++G(d,p) nosym opt freq
 --------------------------------------

 -------
 Radical
 -------
 Symbolic Z-matrix:
 Charge = -1 Multiplicity = 2

 SCF Done:  E(UB3LYP) =  -727.282611908     A.U. after   24 cycles
 SCF Done:  E(UB3LYP) =  -727.298682298     A.U. after   18 cycles
 SCF Done:  E(UB3LYP) =  -727.299679152     A.U. after   17 cycles
 SCF Done:  E(UB3LYP) =  -727.299765591     A.U. after   15 cycles
 SCF Done:  E(UB3LYP) =  -727.299769547     A.U. after   13 cycles
 SCF Done:  E(UB3LYP) =  -727.299770239     A.U. after   12 cycles
 Optimization completed.
    -- Stationary point found.
 Normal termination of Gaussian 16 at Tue Dec 26 20:29:28 2023.

 ----------------------------------------------------------------------
 #P Geom=AllCheck Guess=TCheck SCRF=Check GenChk UB3LYP/6-311++G(d,p) F
 req
 ----------------------------------------------------------------------

 Structure from the checkpoint file:  "266-rad.chk"
 -------
 Radical
 -------
 Charge = -1 Multiplicity = 2

                          Input orientation:
 ---------------------------------------------------------------------
 Center     Atomic      Atomic             Coordinates (Angstroms)
 Number     Number       Type             X           Y           Z
 ---------------------------------------------------------------------
      1          6           0       -1.265693    2.869293    0.017773
      2          6           0       -2.559452    2.382111    0.015770
      3          6           0       -2.790387    0.991226    0.014921
      4          6           0       -0.157056    1.995630    0.019003
      5          6           0       -0.392275    0.592751    0.018147
      6          6           0       -1.717294    0.117718    0.016103
      7          6           0        1.197525    2.562014    0.021105
      8          6           0        2.269512    1.581119    0.022174
      9          6           0        2.044226    0.218539    0.021355
     10          6           0        0.729127   -0.361998    0.019375
     11          8           0        1.412178    3.801439    0.021851
     12          8           0        0.545373   -1.608035    0.018566
     13          1           0       -1.061485    3.933989    0.018456
     14          1           0       -1.860088   -0.957211    0.015501
     15          8           0        3.523926    2.141537    0.024060
     16          6           0        4.646106    1.282857    0.025199
     17          6           0        5.876383    2.150983    0.027108
     18          6           0        7.130153    1.703936    0.028637
     19          1           0       -3.399373    3.071144    0.014846
     20          1           0       -3.806879    0.608540    0.013349
     21          1           0        2.861763   -0.491991    0.022186
     22          1           0        4.634018    0.630002   -0.859761
     23          1           0        4.631729    0.629348    0.909640
     24          1           0        5.667861    3.217412    0.027158
     25          1           0        7.363990    0.642466    0.028624
     26          1           0        7.972221    2.386891    0.029962
 ---------------------------------------------------------------------

 SCF Done:  E(UB3LYP) =  -727.299770239     A.U. after    1 cycles

 Alpha  occ. eigenvalues --  -19.03673 -18.93974 -18.93719 -10.13140 -10.10126
 Alpha  occ. eigenvalues --  -10.09569 -10.09004 -10.08799 -10.08566 -10.05369
 Alpha  occ. eigenvalues --  -10.05269 -10.04640 -10.04597 -10.04542 -10.04359
 Alpha  occ. eigenvalues --  -10.03203  -0.95450  -0.86283  -0.86042  -0.73201
 Alpha  occ. eigenvalues --   -0.70979  -0.67338  -0.62507  -0.62168  -0.59660
 Alpha  occ. eigenvalues --   -0.54000  -0.49893  -0.48598  -0.47778  -0.43653
 Alpha  occ. eigenvalues --   -0.41419  -0.39353  -0.37506  -0.36784  -0.36698
 Alpha  occ. eigenvalues --   -0.34021  -0.33508  -0.30666  -0.29927  -0.29122
 Alpha  occ. eigenvalues --   -0.28936  -0.27579  -0.26735  -0.26658  -0.24940
 Alpha  occ. eigenvalues --   -0.23550  -0.23373  -0.22544  -0.21123  -0.20952
 Alpha  occ. eigenvalues --   -0.17897  -0.13643  -0.13047  -0.11362  -0.10739
 Alpha  occ. eigenvalues --   -0.10187  -0.01561
 Alpha virt. eigenvalues --    0.06802   0.07118   0.08526   0.08913   0.09327
 Alpha virt. eigenvalues --    0.10480   0.10621   0.11260   0.12129   0.12302
 Alpha virt. eigenvalues --    0.12466   0.13379   0.14269   0.15208   0.15845

  Beta  occ. eigenvalues --  -19.03605 -18.93250 -18.93125 -10.13144 -10.09958
  Beta  occ. eigenvalues --  -10.09568 -10.08899 -10.08639 -10.08567 -10.05344
  Beta  occ. eigenvalues --  -10.05205 -10.04665 -10.04580 -10.04491 -10.04262
  Beta  occ. eigenvalues --  -10.03127  -0.95288  -0.85171  -0.84887  -0.72988
  Beta  occ. eigenvalues --   -0.70922  -0.66901  -0.62328  -0.62004  -0.59498
  Beta  occ. eigenvalues --   -0.53205  -0.49747  -0.48416  -0.47683  -0.43458
  Beta  occ. eigenvalues --   -0.41216  -0.39224  -0.37351  -0.36710  -0.36459
  Beta  occ. eigenvalues --   -0.33976  -0.33326  -0.30522  -0.29878  -0.28937
  Beta  occ. eigenvalues --   -0.27663  -0.27328  -0.26445  -0.26113  -0.24076
  Beta  occ. eigenvalues --   -0.23429  -0.22446  -0.21557  -0.20737  -0.19755
  Beta  occ. eigenvalues --   -0.17649  -0.12413  -0.11486  -0.10181  -0.10111
  Beta  occ. eigenvalues --   -0.09576
  Beta virt. eigenvalues --    0.05071   0.06802   0.07177   0.08519   0.08915
  Beta virt. eigenvalues --    0.09921   0.10473   0.10626   0.12077   0.12303
  Beta virt. eigenvalues --    0.12470   0.12500   0.13389   0.14264   0.15219

 Mulliken charges and spin densities:
               1          2
     1  C    0.127672   0.049944
     2  C   -0.380073   0.017615
     3  C   -0.274099   0.052094
     4  C    0.113369   0.017847
     5  C    0.690974   0.067848
     6  C    0.089301   0.000028
     7  C   -0.733064   0.084725
     8  C   -0.175376   0.135056
     9  C    0.314019   0.033932
    10  C   -0.449197   0.052650
    11  O   -0.385988   0.275289
    12  O   -0.393687   0.215583
    13  H    0.151652  -0.003065
    14  H    0.149382  -0.000875
    15  O   -0.105392   0.011293
    16  C   -0.592553   0.001763
    17  C    0.278650   0.000962
    18  C   -0.600900  -0.001129
    19  H    0.121575  -0.001854
    20  H    0.122062  -0.004002
    21  H    0.165208  -0.006650
    22  H    0.152579   0.000503
    23  H    0.152578   0.000503
    24  H    0.211147  -0.000113
    25  H    0.116691   0.000025
    26  H    0.133469   0.000026
 Sum of Mulliken charges =  -1.00000   1.00000

 Dipole moment (field-independent basis, Debye):
    X=             -3.6263    Y=             -6.2567    Z=             -0.0960  Tot=              7.2323
 Quadrupole moment (field-independent basis, Debye-Ang):
   XX=           -110.1160   YY=           -138.4648   ZZ=           -100.8141
   XY=            -12.8150   XZ=             -0.0847   YZ=             -0.1478

  Exact polarizability: 283.141  -0.015 203.105   0.255   0.039  97.542
 Approx polarizability: 375.218   6.361 376.348   0.314   0.095 150.199

 ******    1 imaginary frequencies (negative Signs) ******

                      1                      2                      3
                      A                      A                      A
 Frequencies --   -104.0519                29.6516                88.4057
 Red. masses --      2.0419                 5.5487                 5.1384
 Frc consts  --      0.0130                 0.0029                 0.0237
 IR Inten    --      2.7897                 2.7283                 5.6909

                      4                      5                      6
                      A                      A                      A
 Frequencies --     89.2450               103.6836               134.4155
 Red. masses --      4.5856                 2.0852                 4.4455
 Frc consts  --      0.0215                 0.0132                 0.0473
 IR Inten    --      1.1004                 0.1051                 0.1753

                      7                      8                      9
                      A                      A                      A
 Frequencies --    178.3934               233.1016               252.5963
 Red. masses --      8.1596                 5.4036                 4.5959
 Frc consts  --      0.1530                 0.1730                 0.1728
 IR Inten    --      3.2090                 0.9569                 4.1760

                     10                     11                     12
                      A                      A                      A
 Frequencies --    265.7118               286.9511               366.4693
 Red. masses --      5.6511                 5.1609                10.6367
 Frc consts  --      0.2351                 0.2504                 0.8417
 IR Inten    --      2.3069                 0.7147                 7.1391

                     13                     14                     15
                      A                      A                      A
 Frequencies --    398.7404               443.2537               459.3562
 Red. masses --      5.2006                 3.8934                 3.8425
 Frc consts  --      0.4872                 0.4507                 0.4777
 IR Inten    --      0.0899                 2.5660                 4.3899

                     16                     17                     18
                      A                      A                      A
 Frequencies --    470.4440               482.9689               507.5088
 Red. masses --      9.3466                 7.1698                 3.8590
 Frc consts  --      1.2188                 0.9854                 0.5856
 IR Inten    --      2.1290                 1.6084                 3.6219

                     19                     20                     21
                      A                      A                      A
 Frequencies --    566.1217               573.3852               654.0450
 Red. masses --      7.8808                 1.3587                 3.2497
 Frc consts  --      1.4881                 0.2632                 0.8190
 IR Inten    --      0.0962                10.2352                 1.8170

                     22                     23                     24
                      A                      A                      A
 Frequencies --    671.7119               698.5860               712.5412
 Red. masses --      7.0656                 6.1899                 2.8998
 Frc consts  --      1.8783                 1.7798                 0.8674
 IR Inten    --      9.5507                 3.1179                26.5713

                     25                     26                     27
                      A                      A                      A
 Frequencies --    726.6155               766.1290               784.1345
 Red. masses --      6.5108                 1.7612                 3.6289
 Frc consts  --      2.0253                 0.6091                 1.3146
 IR Inten    --      9.1696                45.9196                 7.5048

                     28                     29                     30
                      A                      A                      A
 Frequencies --    826.4080               840.8777               864.8167
 Red. masses --      1.7528                 4.6464                 1.4178
 Frc consts  --      0.7053                 1.9357                 0.6247
 IR Inten    --     16.3405                 4.2391                 0.0275

                     31                     32                     33
                      A                      A                      A
 Frequencies --    911.5509               925.6413               962.5345
 Red. masses --      1.3362                 1.7941                 5.4914
 Frc consts  --      0.6541                 0.9057                 2.9976
 IR Inten    --     51.6445                 9.0185                40.8237

                     34                     35                     36
                      A                      A                      A
 Frequencies --    976.6020               978.1536              1009.6882
 Red. masses --      1.3365                 1.2714                 1.1525
 Frc consts  --      0.7511                 0.7167                 0.6922
 IR Inten    --      2.1694                 0.6176                 5.5951

                     37                     38                     39
                      A                      A                      A
 Frequencies --   1036.3540              1050.9265              1086.0973
 Red. masses --      2.1927                 1.4990                 3.8316
 Frc consts  --      1.3875                 0.9754                 2.6630
 IR Inten    --     27.7463                16.1047                36.4926

                     40                     41                     42
                      A                      A                      A
 Frequencies --   1102.9788              1140.3870              1152.1401
 Red. masses --      2.7017                 1.6344                 2.1448
 Frc consts  --      1.9365                 1.2523                 1.6775
 IR Inten    --     26.7173                14.3092                19.7780

                     43                     44                     45
                      A                      A                      A
 Frequencies --   1155.0214              1204.9423              1224.5487
 Red. masses --      1.6321                 3.9919                 2.7548
 Frc consts  --      1.2828                 3.4148                 2.4338
 IR Inten    --     17.6472               443.0812                11.1239

                     46                     47                     48
                      A                      A                      A
 Frequencies --   1242.0953              1246.0931              1295.9864
 Red. masses --      1.0711                 1.9014                 1.8639
 Frc consts  --      0.9736                 1.7395                 1.8445
 IR Inten    --      0.2849                68.8973                35.7042

                     49                     50                     51
                      A                      A                      A
 Frequencies --   1304.3079              1354.3758              1367.1810
 Red. masses --      1.3301                 9.3219                 1.4282
 Frc consts  --      1.3332                10.0747                 1.5729
 IR Inten    --     11.7403                31.2760                91.7320

                     52                     53                     54
                      A                      A                      A
 Frequencies --   1407.4975              1453.2012              1461.5477
 Red. masses --      2.6503                 1.3250                 3.2209
 Frc consts  --      3.0934                 1.6486                 4.0537
 IR Inten    --     57.1738                21.3347               139.5464

                     55                     56                     57
                      A                      A                      A
 Frequencies --   1471.1589              1500.4574              1516.4077
 Red. masses --      2.4874                 1.2029                 5.1944
 Frc consts  --      3.1719                 1.5956                 7.0375
 IR Inten    --     13.6352                60.6294                22.2722

                     58                     59                     60
                      A                      A                      A
 Frequencies --   1534.6323              1550.9163              1618.2887
 Red. masses --      6.3141                 5.0503                 7.6569
 Frc consts  --      8.7614                 7.1572                11.8144
 IR Inten    --    398.0968               181.0584                16.4628

                     61                     62                     63
                      A                      A                      A
 Frequencies --   1627.7441              1697.3317              2963.7800
 Red. masses --      6.2573                 4.7450                 1.0541
 Frc consts  --      9.7682                 8.0541                 5.4554
 IR Inten    --     44.1580                23.0719                47.0498

                     64                     65                     66
                      A                      A                      A
 Frequencies --   2986.1164              3116.1793              3130.9963
 Red. masses --      1.1049                 1.0598                 1.0845
 Frc consts  --      5.8049                 6.0632                 6.2640
 IR Inten    --     33.2892                17.0931                17.1086

                     67                     68                     69
                      A                      A                      A
 Frequencies --   3150.5291              3153.6294              3178.2916
 Red. masses --      1.0910                 1.0917                 1.0915
 Frc consts  --      6.3805                 6.3973                 6.4961
 IR Inten    --     51.5766                 1.0184                16.5283

                     70                     71                     72
                      A                      A                      A
 Frequencies --   3181.6899              3182.5531              3199.9905
 Red. masses --      1.0921                 1.0884                 1.1132
 Frc consts  --      6.5137                 6.4952                 6.7164
 IR Inten    --     37.8489                 7.0136                24.2530

 - Thermochemistry -
 -------------------
 Temperature   298.150 Kelvin.  Pressure   1.00000 Atm.
 Atom     1 has atomic number  6 and mass  12.00000

 Molecular mass:   214.06299 amu.
 Principal axes and moments of inertia in atomic units:
                           1         2         3
     Eigenvalues --  1476.786826183.468557648.98763
           X            0.99660  -0.08238  -0.00136
           Y            0.08238   0.99660  -0.00038
           Z            0.00138   0.00026   1.00000
 This molecule is an asymmetric top.
 Rotational symmetry number  1.
 Warning -- assumption of classical behavior for rotation
           may cause significant error
 Rotational temperatures (Kelvin)      0.05865     0.01401     0.01132
 Rotational constants (GHZ):           1.22207     0.29187     0.23595
    1 imaginary frequencies ignored.
 Zero-point vibrational energy     510128.4 (Joules/Mol)
                                  121.92362 (Kcal/Mol)
 Warning -- explicit consideration of  19 degrees of freedom as
           vibrations may cause significant error
 Vibrational temperatures:     42.66   127.20   128.40   149.18   193.39
          (Kelvin)            256.67   335.38   363.43   382.30   412.86
                              527.27   573.70   637.74   660.91   676.86
                              694.88   730.19   814.52   824.97   941.02
                              966.44  1005.11  1025.19  1045.44  1102.29
                             1128.19  1189.02  1209.84  1244.28  1311.52
                             1331.79  1384.87  1405.11  1407.34  1452.72
                             1491.08  1512.05  1562.65  1586.94  1640.76
                             1657.67  1661.82  1733.64  1761.85  1787.10
                             1792.85  1864.64  1876.61  1948.64  1967.07
                             2025.07  2090.83  2102.84  2116.67  2158.82
                             2181.77  2207.99  2231.42  2328.36  2341.96
                             2442.08  4264.22  4296.36  4483.49  4504.81
                             4532.91  4537.37  4572.85  4577.74  4578.98
                             4604.07

 Zero-point correction=                           0.194298 (Hartree/Particle)
 Thermal correction to Energy=                    0.207183
 Thermal correction to Enthalpy=                  0.208127
 Thermal correction to Gibbs Free Energy=         0.153365
 Sum of electronic and zero-point Energies=           -727.105473
 Sum of electronic and thermal Energies=              -727.092587
 Sum of electronic and thermal Enthalpies=            -727.091643
 Sum of electronic and thermal Free Energies=         -727.146405

                     E (Thermal)             CV                S
                      KCal/Mol        Cal/Mol-Kelvin    Cal/Mol-Kelvin
 Total                  130.009             50.237            115.257
 Electronic               0.000              0.000              1.377
 Translational            0.889              2.981             41.987
 Rotational               0.889              2.981             32.613
 Vibrational            128.232             44.276             39.280
 Vibration     1          0.593              1.984              5.853
 Vibration     2          0.601              1.957              3.695
 Vibration     3          0.602              1.957              3.677
 Vibration     4          0.605              1.946              3.384
 Vibration     5          0.613              1.919              2.882
 Vibration     6          0.629              1.869              2.345
 Vibration     7          0.654              1.790              1.855
 Vibration     8          0.664              1.758              1.712
 Vibration     9          0.672              1.736              1.624
 Vibration    10          0.684              1.698              1.492
 Vibration    11          0.739              1.541              1.095
 Vibration    12          0.765              1.473              0.967
 Vibration    13          0.803              1.376              0.816
 Vibration    14          0.817              1.340              0.768
 Vibration    15          0.827              1.316              0.736
 Vibration    16          0.839              1.288              0.702
 Vibration    17          0.863              1.233              0.640
 Vibration    18          0.922              1.105              0.512
 Vibration    19          0.930              1.089              0.498

 Optimization completed.
    -- Stationary point found.
 Normal termination of Gaussian 16 at Tue Dec 26 21:09:05 2023.
