 Gaussian 16, Revision A.03,
 Gaussian 16:  ES64L-G16RevA.03 25-Dec-2016

 --------------------------------------
 #P UB3LYP/6-311++G(d,p) nosym opt freq
 --------------------------------------

 -------
 Radical
 -------
 Symbolic Z-matrix:
 Charge = -2 Multiplicity = 2

 SCF Done:  E(UB3LYP) =  -1312.21010980     A.U. after   28 cycles
 SCF Done:  E(UB3LYP) =  -1312.25510861     A.U. after   24 cycles
 SCF Done:  E(UB3LYP) =  -1312.27721179     A.U. after   22 cycles
 SCF Done:  E(UB3LYP) =  -1312.28289859     A.U. after   18 cycles
 SCF Done:  E(UB3LYP) =  -1312.28350453     A.U. after   16 cycles
 SCF Done:  E(UB3LYP) =  -1312.28361552     A.U. after   15 cycles
 SCF Done:  E(UB3LYP) =  -1312.28361692     A.U. after   15 cycles
 SCF Done:  E(UB3LYP) =  -1312.28363031     A.U. after   13 cycles
 SCF Done:  E(UB3LYP) =  -1312.28363147     A.U. after   12 cycles
 SCF Done:  E(UB3LYP) =  -1312.28363182     A.U. after   12 cycles
 Optimization completed.
    -- Stationary point found.
 Normal termination of Gaussian 16 at Fri Dec 22 00:10:41 2023.

 ----------------------------------------------------------------------
 #P Geom=AllCheck Guess=TCheck SCRF=Check GenChk UB3LYP/6-311++G(d,p) F
 req
 ----------------------------------------------------------------------

 Structure from the checkpoint file:  "222-rad.chk"
 -------
 Radical
 -------
 Charge = -2 Multiplicity = 2

                          Input orientation:
 ---------------------------------------------------------------------
 Center     Atomic      Atomic             Coordinates (Angstroms)
 Number     Number       Type             X           Y           Z
 ---------------------------------------------------------------------
      1          8           0       -2.495646   -2.790446   -1.661849
      2         16           0       -2.998709   -2.350280   -0.338334
      3          8           0       -2.574378   -3.154404    0.833124
      4          8           0       -4.484119   -2.135452   -0.353623
      5          6           0       -2.332446   -0.612029   -0.064912
      6          6           0       -3.346650    0.326566    0.054813
      7          6           0       -3.072307    1.688672    0.258835
      8          6           0       -1.769247    2.120152    0.341277
      9          6           0       -0.699255    1.207492    0.225587
     10          6           0        0.650799    1.781607    0.326204
     11          8           0        0.835448    3.022503    0.507015
     12          6           0        1.760397    0.856964    0.207204
     13          6           0        3.093049    1.331261    0.288543
     14          6           0        4.166591    0.471725    0.178895
     15          6           0        3.943119   -0.912410   -0.018398
     16          6           0        2.648291   -1.392016   -0.099304
     17          6           0        1.534519   -0.534059    0.009148
     18          6           0        0.181397   -1.123569   -0.086198
     19          8           0        0.055176   -2.345950   -0.247236
     20          6           0       -0.963179   -0.192756    0.021254
     21          1           0       -4.365222   -0.031390   -0.017191
     22          1           0       -3.895159    2.394869    0.348528
     23          1           0       -1.512412    3.161612    0.495421
     24          1           0        3.230554    2.396350    0.440337
     25          1           0        5.182650    0.854772    0.243597
     26          1           0        4.785689   -1.593868   -0.105653
     27          1           0        2.441052   -2.445917   -0.249225
 ---------------------------------------------------------------------

 SCF Done:  E(UB3LYP) =  -1312.28363182     A.U. after    1 cycles

 Alpha  occ. eigenvalues --  -88.78130 -18.85111 -18.84520 -18.82193 -18.82140
 Alpha  occ. eigenvalues --  -18.82135 -10.00043  -9.99971  -9.97541  -9.97263
 Alpha  occ. eigenvalues --   -9.96638  -9.96622  -9.96350  -9.96180  -9.95903
 Alpha  occ. eigenvalues --   -9.95747  -9.95698  -9.95552  -9.95193  -9.94554
 Alpha  occ. eigenvalues --   -7.83928  -5.80186  -5.80167  -5.80163  -0.83861
 Alpha  occ. eigenvalues --   -0.77892  -0.77306  -0.70482  -0.69887  -0.64833
 Alpha  occ. eigenvalues --   -0.63357  -0.56947  -0.54239  -0.53185  -0.52437
 Alpha  occ. eigenvalues --   -0.44875  -0.42696  -0.40298  -0.38379  -0.35271
 Alpha  occ. eigenvalues --   -0.32340  -0.31893  -0.29371  -0.25891  -0.25049
 Alpha  occ. eigenvalues --   -0.24463  -0.24205  -0.22048  -0.21697  -0.20060
 Alpha  occ. eigenvalues --   -0.19460  -0.18826  -0.18476  -0.18128  -0.17490
 Alpha  occ. eigenvalues --   -0.16384  -0.15412  -0.15274  -0.14592  -0.12953
 Alpha  occ. eigenvalues --   -0.12348  -0.12209  -0.06608  -0.06001  -0.05353
 Alpha  occ. eigenvalues --   -0.05008  -0.04574  -0.03423  -0.03293  -0.02633
 Alpha  occ. eigenvalues --   -0.01743  -0.01340   0.00133   0.01685   0.08128
 Alpha virt. eigenvalues --    0.14176   0.16012   0.16165   0.16314   0.18318
 Alpha virt. eigenvalues --    0.18826   0.19581   0.20557   0.20879   0.21509
 Alpha virt. eigenvalues --    0.22718   0.24077   0.24321   0.25551   0.25655

  Beta  occ. eigenvalues --  -88.78130 -18.84515 -18.83916 -18.82186 -18.82139
  Beta  occ. eigenvalues --  -18.82135 -10.00014  -9.99761  -9.97524  -9.97147
  Beta  occ. eigenvalues --   -9.96653  -9.96623  -9.96411  -9.96063  -9.95902
  Beta  occ. eigenvalues --   -9.95652  -9.95540  -9.95523  -9.95168  -9.94475
  Beta  occ. eigenvalues --   -7.83928  -5.80186  -5.80166  -5.80163  -0.83856
  Beta  occ. eigenvalues --   -0.76888  -0.76245  -0.70480  -0.69876  -0.64591
  Beta  occ. eigenvalues --   -0.63222  -0.56524  -0.54055  -0.53031  -0.52235
  Beta  occ. eigenvalues --   -0.44141  -0.42549  -0.40044  -0.38313  -0.35115
  Beta  occ. eigenvalues --   -0.32149  -0.31739  -0.29256  -0.25664  -0.24886
  Beta  occ. eigenvalues --   -0.24324  -0.24113  -0.22019  -0.21671  -0.19325
  Beta  occ. eigenvalues --   -0.18946  -0.18595  -0.18110  -0.18049  -0.17245
  Beta  occ. eigenvalues --   -0.16153  -0.14977  -0.14548  -0.13081  -0.12808
  Beta  occ. eigenvalues --   -0.12128  -0.11112  -0.06576  -0.05981  -0.05124
  Beta  occ. eigenvalues --   -0.03914  -0.03365  -0.03052  -0.02497  -0.02206
  Beta  occ. eigenvalues --   -0.01272  -0.00979   0.00591   0.01724
  Beta virt. eigenvalues --    0.14108   0.14158   0.16154   0.16303   0.16739
  Beta virt. eigenvalues --    0.18303   0.19567   0.19888   0.20790   0.20857
  Beta virt. eigenvalues --    0.21505   0.22752   0.24084   0.24415   0.25556

 Mulliken charges and spin densities:
               1          2
     1  O   -0.332357   0.001004
     2  S    0.499641   0.002460
     3  O   -0.330247   0.000958
     4  O   -0.363310   0.000836
     5  C   -0.843620  -0.012239
     6  C    0.612133   0.059395
     7  C   -0.262980  -0.000392
     8  C   -0.440482   0.047528
     9  C    0.770448  -0.001329
    10  C   -0.734024   0.119717
    11  O   -0.404007   0.223232
    12  C    0.111420   0.022371
    13  C    0.015502   0.045883
    14  C   -0.414011   0.014260
    15  C   -0.484724   0.093716
    16  C    0.140447  -0.024231
    17  C    0.427716   0.107593
    18  C   -1.034950  -0.009909
    19  O   -0.212813   0.228173
    20  C    0.330896   0.100344
    21  H    0.226813  -0.004427
    22  H    0.111894  -0.000456
    23  H    0.126525  -0.003525
    24  H    0.138737  -0.002806
    25  H    0.095490  -0.001723
    26  H    0.100364  -0.007383
    27  H    0.149499   0.000950
 Sum of Mulliken charges =  -2.00000   1.00000

 Dipole moment (field-independent basis, Debye):
    X=             11.0063    Y=              9.6659    Z=              1.0336  Tot=             14.6846
 Quadrupole moment (field-independent basis, Debye-Ang):
   XX=           -206.0051   YY=           -200.1938   ZZ=           -141.1063
   XY=            -46.8821   XZ=             -7.3651   YZ=             -8.9135

  Exact polarizability: 366.214   3.220 264.754   3.822  19.955 128.173
 Approx polarizability: 538.432  -9.849 477.545   2.939  38.407 209.695

                      1                      2                      3
                      A                      A                      A
 Frequencies --      7.3673                47.3117                86.6779
 Red. masses --     11.1989                 7.3791                 9.3059
 Frc consts  --      0.0004                 0.0097                 0.0412
 IR Inten    --      0.0201                 6.4747                 0.1738

                      4                      5                      6
                      A                      A                      A
 Frequencies --    120.3394               123.0493               161.2417
 Red. masses --      4.5891                10.0815                 7.0117
 Frc consts  --      0.0392                 0.0899                 0.1074
 IR Inten    --      0.1456                 2.9214                 1.3329

                      7                      8                      9
                      A                      A                      A
 Frequencies --    172.1246               204.2375               222.6027
 Red. masses --      8.5057                10.5793                 5.3507
 Frc consts  --      0.1485                 0.2600                 0.1562
 IR Inten    --      0.7030                 0.1713                 0.0205

                     10                     11                     12
                      A                      A                      A
 Frequencies --    277.6878               290.6731               304.0896
 Red. masses --     10.0202                 8.3292                 6.7919
 Frc consts  --      0.4552                 0.4146                 0.3700
 IR Inten    --      0.5933                 1.1416                 0.1097

                     13                     14                     15
                      A                      A                      A
 Frequencies --    344.1376               380.9110               394.6206
 Red. masses --      6.2590                10.4047                 9.6632
 Frc consts  --      0.4367                 0.8895                 0.8866
 IR Inten    --      2.8367                 2.4763                 4.2373

                     16                     17                     18
                      A                      A                      A
 Frequencies --    408.5063               436.8579               447.9685
 Red. masses --      6.5440                 3.4966                 8.6532
 Frc consts  --      0.6434                 0.3932                 1.0231
 IR Inten    --      0.0291                 1.9499                 6.4386

                     19                     20                     21
                      A                      A                      A
 Frequencies --    491.0200               493.1874               497.6030
 Red. masses --     12.6878                 8.0095                 4.5930
 Frc consts  --      1.8023                 1.1478                 0.6701
 IR Inten    --      1.7302                 7.5061                 0.3490

                     22                     23                     24
                      A                      A                      A
 Frequencies --    513.3437               567.3839               599.2381
 Red. masses --     13.5292                 6.0499                15.5547
 Frc consts  --      2.1006                 1.1475                 3.2909
 IR Inten    --     10.5666                20.7977               209.7152

                     25                     26                     27
                      A                      A                      A
 Frequencies --    617.7769               646.8278               653.3055
 Red. masses --      6.5596                 5.2365                 7.3436
 Frc consts  --      1.4750                 1.2908                 1.8467
 IR Inten    --     10.6427                 4.7677                15.3718

                     28                     29                     30
                      A                      A                      A
 Frequencies --    692.4932               694.2633               729.5416
 Red. masses --      7.0658                 2.1356                 3.5421
 Frc consts  --      1.9964                 0.6065                 1.1107
 IR Inten    --      0.8002                71.8064                 0.4258

                     31                     32                     33
                      A                      A                      A
 Frequencies --    738.0958               758.2951               783.8074
 Red. masses --      7.6214                 1.8071                 2.5646
 Frc consts  --      2.4463                 0.6122                 0.9283
 IR Inten    --      2.8949                 3.3808                24.7021

                     34                     35                     36
                      A                      A                      A
 Frequencies --    810.9866               814.6958               837.4233
 Red. masses --      2.2071                 6.9037                 1.6146
 Frc consts  --      0.8553                 2.6997                 0.6671
 IR Inten    --     12.5086                 0.4241                 0.8643

                     37                     38                     39
                      A                      A                      A
 Frequencies --    928.5178               936.5110               943.3219
 Red. masses --      6.9960                 1.3336                 8.3158
 Frc consts  --      3.5537                 0.6891                 4.3599
 IR Inten    --     32.2809                 0.3696                22.3037

                     40                     41                     42
                      A                      A                      A
 Frequencies --    960.8840               969.0456               974.9883
 Red. masses --      1.2616                12.2906                 1.3073
 Frc consts  --      0.6863                 6.8000                 0.7322
 IR Inten    --      0.7198               247.3424                 0.5487

                     43                     44                     45
                      A                      A                      A
 Frequencies --    977.1637              1028.4056              1079.6917
 Red. masses --      1.2990                 2.0454                 2.5484
 Frc consts  --      0.7308                 1.2745                 1.7503
 IR Inten    --      3.8273                33.6483                89.1565

                     46                     47                     48
                      A                      A                      A
 Frequencies --   1104.1184              1118.1851              1120.6058
 Red. masses --      2.0533                 6.7416                 2.7121
 Frc consts  --      1.4748                 4.9664                 2.0066
 IR Inten    --      2.7046               127.8157                45.0642

                     49                     50                     51
                      A                      A                      A
 Frequencies --   1136.4449              1163.2308              1177.0544
 Red. masses --      1.5281                 2.2667                20.6517
 Frc consts  --      1.1628                 1.8071                16.8577
 IR Inten    --     48.8215                14.6070               309.4189

                     52                     53                     54
                      A                      A                      A
 Frequencies --   1185.4108              1194.1744              1226.2900
 Red. masses --      1.6328                 2.1255                 2.3630
 Frc consts  --      1.3519                 1.7859                 2.0937
 IR Inten    --     20.9391                13.9605                40.7062

                     55                     56                     57
                      A                      A                      A
 Frequencies --   1243.9848              1303.5499              1340.2813
 Red. masses --      2.0483                 5.6562                 3.1333
 Frc consts  --      1.8675                 5.6628                 3.3162
 IR Inten    --     80.1358                19.9802                27.7179

                     58                     59                     60
                      A                      A                      A
 Frequencies --   1364.2504              1383.0347              1430.3155
 Red. masses --      9.5324                 3.2328                 2.4571
 Frc consts  --     10.4530                 3.6433                 2.9617
 IR Inten    --     71.9886               196.3816               132.2295

                     61                     62                     63
                      A                      A                      A
 Frequencies --   1466.5413              1474.3452              1505.6290
 Red. masses --      3.2085                 2.5151                 4.9334
 Frc consts  --      4.0657                 3.2211                 6.5892
 IR Inten    --     61.0884                17.2083               318.3069

                     64                     65                     66
                      A                      A                      A
 Frequencies --   1551.0128              1561.0281              1594.9021
 Red. masses --      5.9540                 6.3974                 6.8827
 Frc consts  --      8.4389                 9.1850                10.3151
 IR Inten    --    135.5707                86.3888                12.3821

                     67                     68                     69
                      A                      A                      A
 Frequencies --   1606.8738              1634.7189              3111.2944
 Red. masses --      5.7504                 8.3246                 1.0837
 Frc consts  --      8.7480                13.1069                 6.1810
 IR Inten    --      3.5885                47.0813                33.5293

                     70                     71                     72
                      A                      A                      A
 Frequencies --   3115.7737              3134.4961              3172.2022
 Red. masses --      1.0873                 1.0910                 1.0910
 Frc consts  --      6.2190                 6.3153                 6.4685
 IR Inten    --     79.5751                84.1284                24.7518

                     73                     74                     75
                      A                      A                      A
 Frequencies --   3176.6893              3180.3479              3194.9748
 Red. masses --      1.0916                 1.0911                 1.0900
 Frc consts  --      6.4901                 6.5023                 6.5557
 IR Inten    --     32.5949                18.9004                 8.2156

 - Thermochemistry -
 -------------------
 Temperature   298.150 Kelvin.  Pressure   1.00000 Atm.
 Atom     1 has atomic number  8 and mass  15.99491

 Molecular mass:   287.00142 amu.
 Principal axes and moments of inertia in atomic units:
                           1         2         3
     Eigenvalues --  3000.250997615.85204**********
           X            0.91606  -0.40074  -0.01581
           Y            0.39457   0.90762  -0.14334
           Z            0.07179   0.12507   0.98955
 This molecule is an asymmetric top.
 Rotational symmetry number  1.
 Warning -- assumption of classical behavior for rotation
           may cause significant error
 Rotational temperatures (Kelvin)      0.02887     0.01137     0.00845
 Rotational constants (GHZ):           0.60153     0.23697     0.17603
 Zero-point vibrational energy     467380.9 (Joules/Mol)
                                  111.70671 (Kcal/Mol)
 Warning -- explicit consideration of  25 degrees of freedom as
           vibrations may cause significant error
 Vibrational temperatures:     10.60    68.07   124.71   173.14   177.04
          (Kelvin)            231.99   247.65   293.85   320.28   399.53
                              418.21   437.52   495.14   548.05   567.77
                              587.75   628.54   644.53   706.47   709.59
                              715.94   738.59   816.34   862.17   888.84
                              930.64   939.96   996.34   998.89  1049.65
                             1061.96  1091.02  1127.72  1166.83  1172.17
                             1204.87  1335.93  1347.43  1357.23  1382.50
                             1394.24  1402.79  1405.92  1479.65  1553.44
                             1588.58  1608.82  1612.30  1635.09  1673.63
                             1693.52  1705.54  1718.15  1764.36  1789.82
                             1875.52  1928.37  1962.85  1989.88  2057.91
                             2110.03  2121.25  2166.26  2231.56  2245.97
                             2294.71  2311.93  2352.00  4476.46  4482.90
                             4509.84  4564.09  4570.55  4575.81  4596.86

 Zero-point correction=                           0.178016 (Hartree/Particle)
 Thermal correction to Energy=                    0.193342
 Thermal correction to Enthalpy=                  0.194286
 Thermal correction to Gibbs Free Energy=         0.132887
 Sum of electronic and zero-point Energies=          -1312.105616
 Sum of electronic and thermal Energies=             -1312.090290
 Sum of electronic and thermal Enthalpies=           -1312.089346
 Sum of electronic and thermal Free Energies=        -1312.150745

                     E (Thermal)             CV                S
                      KCal/Mol        Cal/Mol-Kelvin    Cal/Mol-Kelvin
 Total                  121.324             60.533            129.225
 Electronic               0.000              0.000              1.377
 Translational            0.889              2.981             42.861
 Rotational               0.889              2.981             33.815
 Vibrational            119.547             54.571             51.172
 Vibration     1          0.593              1.987              8.618
 Vibration     2          0.595              1.979              4.927
 Vibration     3          0.601              1.958              3.734
 Vibration     4          0.609              1.932              3.095
 Vibration     5          0.610              1.930              3.052
 Vibration     6          0.622              1.890              2.535
 Vibration     7          0.626              1.877              2.412
 Vibration     8          0.640              1.834              2.095
 Vibration     9          0.648              1.807              1.938
 Vibration    10          0.679              1.715              1.548
 Vibration    11          0.687              1.691              1.470
 Vibration    12          0.695              1.666              1.394
 Vibration    13          0.723              1.587              1.193
 Vibration    14          0.751              1.511              1.036
 Vibration    15          0.762              1.482              0.983
 Vibration    16          0.773              1.452              0.932
 Vibration    17          0.797              1.390              0.837
 Vibration    18          0.807              1.365              0.802
 Vibration    19          0.847              1.270              0.681
 Vibration    20          0.849              1.265              0.675
 Vibration    21          0.853              1.255              0.664
 Vibration    22          0.868              1.220              0.626
 Vibration    23          0.923              1.102              0.509
 Vibration    24          0.957              1.033              0.451
 Vibration    25          0.978              0.994              0.420

                           ! Non-Optimized Parameters !
 Normal termination of Gaussian 16 at Fri Dec 22 01:14:02 2023.
