 Q-Chem 5.4, Q-Chem, Inc., Pleasanton, CA (2021)
 Q-Chem 5.4.0 for Intel X86 EM64T Linux

User input:
--------------------------------------------------------------
$molecule
-1 2
C                 -0.0683730000      0.7498270000     -1.0212190000
C                 -0.9674230000     -0.1236090000     -0.4379900000
C                 -0.5207020000     -1.3583850000      0.0743780000
C                  1.3017960000      0.4226550000     -1.1134160000
C                  1.7551370000     -0.8246530000     -0.5959330000
C                  0.8208170000     -1.6947290000     -0.0074950000
C                  2.2424510000      1.3383310000     -1.7240760000
C                  3.6231010000      0.9155940000     -1.7722090000
C                  4.0930380000     -0.2875080000     -1.2895280000
C                  3.1785000000     -1.2177100000     -0.6640170000
O                  1.9460300000      2.4763210000     -2.2159090000
O                  3.5705910000     -2.3189560000     -0.1961460000
O                  4.4514920000      1.8293810000     -2.3566000000
H                 -0.3880040000      1.7050490000     -1.4222730000
H                 -2.0189080000      0.1411570000     -0.3739300000
H                 -1.2276830000     -2.0437840000      0.5322250000
H                  1.1921510000     -2.6371320000      0.3790000000
H                  3.8240570000      2.5481230000     -2.5935080000
C                  5.5507370000     -0.6587930000     -1.3744780000
C                  6.3251150000     -0.3543080000     -0.0778010000
H                  6.0183030000     -0.1253980000     -2.2080730000
H                  5.6196030000     -1.7337560000     -1.5711910000
H                  5.8304880000     -0.8747600000      0.7489250000
H                  6.2615630000      0.7198740000      0.1341620000
C                  7.7955040000     -0.7775330000     -0.1456610000
C                  8.5664100000     -0.4865370000      1.1580380000
C                 10.0172950000     -0.9048030000      1.1035410000
C                 11.0117650000     -0.0164570000      0.6759560000
C                 10.4076370000     -2.2055320000      1.4455840000
C                 11.7380820000     -2.6115680000      1.3611490000
C                 12.7004920000     -1.7075820000      0.9258280000
C                 12.3467600000     -0.4064440000      0.5867630000
O                 14.0434740000     -2.0863560000      0.9105870000
C                 14.5962460000     -2.5885500000     -0.2430100000
C                 13.8846460000     -2.7877710000     -1.4273000000
C                 15.9559480000     -2.9090250000     -0.1765210000
C                 16.5988510000     -3.4269550000     -1.2945770000
C                 14.5451710000     -3.3084490000     -2.5408880000
C                 15.8986370000     -3.6305460000     -2.4856630000
H                  8.2932430000     -0.2635630000     -0.9779190000
H                  7.8579490000     -1.8503870000     -0.3657060000
H                  8.0679340000     -1.0029530000      1.9854340000
H                  8.5039060000      0.5850560000      1.3767820000
H                 10.7378380000      1.0005350000      0.4138680000
H                  9.6580670000     -2.9116850000      1.7881420000
H                 12.0359370000     -3.6170500000      1.6353610000
H                 13.1131850000      0.2889430000      0.2641960000
H                 12.8324500000     -2.5410620000     -1.4796000000
H                 16.4844720000     -2.7449760000      0.7550050000
H                 17.6536400000     -3.6728700000     -1.2351200000
H                 13.9872060000     -3.4614230000     -3.4582140000
H                 16.4022670000     -4.0343620000     -3.3561760000
$end

$rem
BASIS  =  6-311++G(d,p)
GUI  =  2
JOB_TYPE  =  SP
METHOD  =  B3LYP
SCF_CONVERGENCE  = 8
SOLVENT_METHOD = sm12
$end

$smx
solvent dimethylformamide
charges CM5
$end

--------------------------------------------------------------

             Standard Nuclear Orientation (Angstroms)
    I     Atom           X                Y                Z
 ----------------------------------------------------------------
    1      C      -0.0683730000     0.7498270000    -1.0212190000
    2      C      -0.9674230000    -0.1236090000    -0.4379900000
    3      C      -0.5207020000    -1.3583850000     0.0743780000
    4      C       1.3017960000     0.4226550000    -1.1134160000
    5      C       1.7551370000    -0.8246530000    -0.5959330000
    6      C       0.8208170000    -1.6947290000    -0.0074950000
    7      C       2.2424510000     1.3383310000    -1.7240760000
    8      C       3.6231010000     0.9155940000    -1.7722090000
    9      C       4.0930380000    -0.2875080000    -1.2895280000
   10      C       3.1785000000    -1.2177100000    -0.6640170000
   11      O       1.9460300000     2.4763210000    -2.2159090000
   12      O       3.5705910000    -2.3189560000    -0.1961460000
   13      O       4.4514920000     1.8293810000    -2.3566000000
   14      H      -0.3880040000     1.7050490000    -1.4222730000
   15      H      -2.0189080000     0.1411570000    -0.3739300000
   16      H      -1.2276830000    -2.0437840000     0.5322250000
   17      H       1.1921510000    -2.6371320000     0.3790000000
   18      H       3.8240570000     2.5481230000    -2.5935080000
   19      C       5.5507370000    -0.6587930000    -1.3744780000
   20      C       6.3251150000    -0.3543080000    -0.0778010000
   21      H       6.0183030000    -0.1253980000    -2.2080730000
   22      H       5.6196030000    -1.7337560000    -1.5711910000
   23      H       5.8304880000    -0.8747600000     0.7489250000
   24      H       6.2615630000     0.7198740000     0.1341620000
   25      C       7.7955040000    -0.7775330000    -0.1456610000
   26      C       8.5664100000    -0.4865370000     1.1580380000
   27      C      10.0172950000    -0.9048030000     1.1035410000
   28      C      11.0117650000    -0.0164570000     0.6759560000
   29      C      10.4076370000    -2.2055320000     1.4455840000
   30      C      11.7380820000    -2.6115680000     1.3611490000
   31      C      12.7004920000    -1.7075820000     0.9258280000
   32      C      12.3467600000    -0.4064440000     0.5867630000
   33      O      14.0434740000    -2.0863560000     0.9105870000
   34      C      14.5962460000    -2.5885500000    -0.2430100000
   35      C      13.8846460000    -2.7877710000    -1.4273000000
   36      C      15.9559480000    -2.9090250000    -0.1765210000
   37      C      16.5988510000    -3.4269550000    -1.2945770000
   38      C      14.5451710000    -3.3084490000    -2.5408880000
   39      C      15.8986370000    -3.6305460000    -2.4856630000
   40      H       8.2932430000    -0.2635630000    -0.9779190000
   41      H       7.8579490000    -1.8503870000    -0.3657060000
   42      H       8.0679340000    -1.0029530000     1.9854340000
   43      H       8.5039060000     0.5850560000     1.3767820000
   44      H      10.7378380000     1.0005350000     0.4138680000
   45      H       9.6580670000    -2.9116850000     1.7881420000
   46      H      12.0359370000    -3.6170500000     1.6353610000
   47      H      13.1131850000     0.2889430000     0.2641960000
   48      H      12.8324500000    -2.5410620000    -1.4796000000
   49      H      16.4844720000    -2.7449760000     0.7550050000
   50      H      17.6536400000    -3.6728700000    -1.2351200000
   51      H      13.9872060000    -3.4614230000    -3.4582140000
   52      H      16.4022670000    -4.0343620000    -3.3561760000
 ----------------------------------------------------------------

   17   -1305.3438458246      8.96e-09  Convergence criterion met
 Total energy in the final basis set =    -1305.4388350290

                    Orbital Energies (a.u.)
 --------------------------------------------------------------

 Alpha MOs
 -- Occupied --
-19.1688 -19.1442 -19.0857 -19.0730 -10.2475 -10.2393 -10.2238 -10.2236
-10.2214 -10.1876 -10.1852 -10.1850 -10.1837 -10.1836 -10.1820 -10.1818
-10.1815 -10.1813 -10.1801 -10.1801 -10.1801 -10.1786 -10.1779 -10.1772
-10.1771 -10.1725 -10.1677 -10.1652 -10.1648 -10.1636  -1.0871  -1.0639
 -0.9980  -0.9954  -0.8742  -0.8638  -0.8605  -0.8188  -0.8028  -0.7789
 -0.7600  -0.7593  -0.7575  -0.7563  -0.7385  -0.7079  -0.6764  -0.6541
 -0.6305  -0.6258  -0.6214  -0.6177  -0.5992  -0.5836  -0.5796  -0.5729
 -0.5562  -0.5413  -0.5114  -0.5078  -0.4965  -0.4872  -0.4842  -0.4808
 -0.4706  -0.4600  -0.4565  -0.4532  -0.4495  -0.4381  -0.4340  -0.4334
 -0.4327  -0.4257  -0.4166  -0.4132  -0.4123  -0.4057  -0.3958  -0.3924
 -0.3887  -0.3876  -0.3799  -0.3740  -0.3692  -0.3657  -0.3633  -0.3539
 -0.3470  -0.3451  -0.3439  -0.3420  -0.3370  -0.3361  -0.3286  -0.3269
 -0.2706  -0.2696  -0.2645  -0.2637  -0.2586  -0.2487  -0.2379  -0.2376
 -0.2306  -0.1519

 Beta MOs
 -- Occupied --
-19.1688 -19.1438 -19.0790 -19.0674 -10.2475 -10.2393 -10.2227 -10.2227
-10.2188 -10.1876 -10.1852 -10.1850 -10.1837 -10.1836 -10.1820 -10.1818
-10.1814 -10.1813 -10.1801 -10.1798 -10.1792 -10.1782 -10.1777 -10.1771
-10.1765 -10.1725 -10.1677 -10.1652 -10.1641 -10.1635  -1.0871  -1.0618
 -0.9884  -0.9841  -0.8742  -0.8615  -0.8605  -0.8170  -0.8011  -0.7777
 -0.7597  -0.7593  -0.7562  -0.7550  -0.7379  -0.7065  -0.6701  -0.6517
 -0.6299  -0.6258  -0.6206  -0.6167  -0.5976  -0.5828  -0.5795  -0.5705
 -0.5562  -0.5397  -0.5114  -0.5057  -0.4964  -0.4850  -0.4842  -0.4807
 -0.4691  -0.4592  -0.4558  -0.4532  -0.4494  -0.4340  -0.4335  -0.4329
 -0.4287  -0.4226  -0.4160  -0.4111  -0.4078  -0.4041  -0.3931  -0.3901
 -0.3870  -0.3805  -0.3779  -0.3738  -0.3656  -0.3651  -0.3569  -0.3506
 -0.3458  -0.3432  -0.3407  -0.3365  -0.3351  -0.3297  -0.3272  -0.3244
 -0.2696  -0.2645  -0.2565  -0.2527  -0.2503  -0.2484  -0.2377  -0.2325
 -0.2206

          Ground-State Mulliken Net Atomic Charges

     Atom                 Charge (a.u.)    Spin (a.u.)
  --------------------------------------------------------
      1 C                     0.214462       0.074126
      2 C                     0.775537       0.001662
      3 C                     0.836189       0.074982
      4 C                    -0.950552       0.004845
      5 C                    -0.995481       0.074079
      6 C                    -0.149754       0.000212
      7 C                    -1.490344       0.137883
      8 C                    -0.663462       0.061448
      9 C                     1.279093       0.051861
     10 C                    -1.956896       0.050587
     11 O                    -0.378874       0.248473
     12 O                    -0.282608       0.210432
     13 O                    -0.134117       0.015845
     14 H                     0.169993      -0.004004
     15 H                     0.350949      -0.000701
     16 H                     0.339873      -0.005305
     17 H                     0.138868      -0.000277
     18 H                     0.293901      -0.003973
     19 C                    -0.209423       0.009221
     20 C                    -1.114596      -0.003510
     21 H                     0.195362      -0.001633
     22 H                     0.132835       0.003512
     23 H                     0.020789      -0.002025
     24 H                     0.054295       0.002882
     25 C                     0.577493       0.001356
     26 C                    -1.127187      -0.001471
     27 C                     1.757129      -0.001427
     28 C                    -0.137002      -0.000292
     29 C                    -0.212894       0.000488
     30 C                     0.200128      -0.000391
     31 C                    -0.399551       0.000171
     32 C                     0.251014       0.000183
     33 O                    -0.016953      -0.000002
     34 C                    -0.689518      -0.000003
     35 C                    -0.593520       0.000136
     36 C                     0.083101      -0.000109
     37 C                     0.122758      -0.000008
     38 C                    -0.149804       0.000005
     39 C                    -0.067728       0.000006
     40 H                     0.133216       0.000305
     41 H                     0.123903       0.000609
     42 H                     0.194079       0.000108
     43 H                     0.198574      -0.000322
     44 H                     0.278939      -0.000004
     45 H                     0.271451       0.000032
     46 H                     0.265157      -0.000003
     47 H                     0.263628       0.000014
     48 H                     0.155919      -0.000002
     49 H                     0.218237       0.000001
     50 H                     0.296653      -0.000000
     51 H                     0.272933      -0.000000
     52 H                     0.253805       0.000001
  --------------------------------------------------------
  Sum of atomic charges =    -1.000001

                    Cartesian Multipole Moments
 -----------------------------------------------------------------
    Charge (ESU x 10^10)
                -4.8032
    Dipole Moment (Debye)
         X     -16.1695      Y       0.4952      Z       4.9634
       Tot      16.9214
    Quadrupole Moments (Debye-Ang)
        XX    -278.5834     XY      13.0056     YY    -202.3688
        XZ       3.1654     YZ       9.8270     ZZ    -193.3951

 Total job time:  3631.19s(wall), 24475.30s(cpu)
        *  Thank you very much for using Q-Chem.  Have a nice day.  *
