 Gaussian 16, Revision A.03,
 Gaussian 16:  ES64L-G16RevA.03 25-Dec-2016

 ----------------------------------------------------------------
 #P UB3LYP/6-311++G(d,p) SCRF=(PCM,Solvent=n,n-DiMethylFormamide)
 ----------------------------------------------------------------

 ------------------
 Radical PCM in DMF
 ------------------
 Symbolic Z-matrix:
 Charge = -1 Multiplicity = 2

                         Standard orientation:
 ---------------------------------------------------------------------
 Center     Atomic      Atomic             Coordinates (Angstroms)
 Number     Number       Type             X           Y           Z
 ---------------------------------------------------------------------
      1          6           0       -0.000054    1.450019    0.000053
      2          6           0        1.242659    0.689223   -0.000048
      3          6           0        1.242708   -0.689120    0.000017
      4          6           0        0.000064   -1.450016   -0.000017
      5          6           0       -1.242662   -0.689218   -0.000010
      6          6           0       -1.242717    0.689116   -0.000032
      7          8           0       -0.000117    2.719487    0.000031
      8          8           0        0.000104   -2.719486   -0.000051
      9          6           0       -2.532247    1.473752    0.000000
     10          6           0       -2.532141   -1.473912    0.000037
     11          6           0        2.532148    1.473900   -0.000114
     12          6           0        2.532252   -1.473745    0.000091
     13          1           0       -3.147049    1.245535    0.880462
     14          1           0       -3.148114    1.244024   -0.879328
     15          1           0       -2.305251    2.540226   -0.001052
     16          1           0       -2.305068   -2.540369    0.001977
     17          1           0       -3.146559   -1.246538   -0.880922
     18          1           0       -3.148381   -1.243437    0.878885
     19          1           0        2.305089    2.540358   -0.003460
     20          1           0        3.149073    1.242294   -0.878169
     21          1           0        3.145879    1.247653    0.881630
     22          1           0        3.147011   -1.245724   -0.880451
     23          1           0        2.305272   -2.540220    0.001377
     24          1           0        3.148142   -1.243802    0.879349
 ---------------------------------------------------------------------

 SCF Done:  E(UB3LYP) =  -539.026295092     A.U. after   15 cycles

 The electronic state is 2-A.
 Alpha  occ. eigenvalues --  -19.06558 -19.06557 -10.20676 -10.20675 -10.15761
 Alpha  occ. eigenvalues --  -10.15759 -10.15700 -10.15699 -10.14852 -10.14852
 Alpha  occ. eigenvalues --  -10.14851 -10.14851  -0.98814  -0.98556  -0.82228
 Alpha  occ. eigenvalues --   -0.78521  -0.71828  -0.71336  -0.68964  -0.62737
 Alpha  occ. eigenvalues --   -0.62544  -0.53715  -0.53347  -0.49359  -0.43746
 Alpha  occ. eigenvalues --   -0.43398  -0.41445  -0.41132  -0.40908  -0.39371
 Alpha  occ. eigenvalues --   -0.38383  -0.38216  -0.38111  -0.37540  -0.37068
 Alpha  occ. eigenvalues --   -0.36572  -0.35582  -0.35277  -0.33378  -0.32517
 Alpha  occ. eigenvalues --   -0.26011  -0.23814  -0.22369  -0.22354  -0.14900
 Alpha virt. eigenvalues --   -0.00637   0.00586   0.00705   0.01477   0.02782
 Alpha virt. eigenvalues --    0.02895   0.03616   0.04046   0.04308   0.04664
 Alpha virt. eigenvalues --    0.05588   0.05710   0.05806   0.07074   0.07342

  Beta  occ. eigenvalues --  -19.05889 -19.05888 -10.20503 -10.20502 -10.15662
  Beta  occ. eigenvalues --  -10.15660 -10.15599 -10.15599 -10.14860 -10.14860
  Beta  occ. eigenvalues --  -10.14860 -10.14859  -0.97642  -0.97354  -0.81699
  Beta  occ. eigenvalues --   -0.78347  -0.71421  -0.71218  -0.68758  -0.62434
  Beta  occ. eigenvalues --   -0.61938  -0.53371  -0.52920  -0.49184  -0.43344
  Beta  occ. eigenvalues --   -0.42733  -0.41315  -0.40753  -0.40595  -0.38829
  Beta  occ. eigenvalues --   -0.38295  -0.38159  -0.37805  -0.37475  -0.36953
  Beta  occ. eigenvalues --   -0.35496  -0.34849  -0.33104  -0.32709  -0.32327
  Beta  occ. eigenvalues --   -0.23196  -0.22993  -0.21779  -0.21655
  Beta virt. eigenvalues --   -0.07762  -0.00611   0.00591   0.01498   0.02030
  Beta virt. eigenvalues --    0.02897   0.02915   0.03640   0.04045   0.04350
  Beta virt. eigenvalues --    0.05584   0.05789   0.05830   0.06850   0.07073

 Mulliken charges and spin densities:
               1          2
     1  C   -1.180435   0.114865
     2  C    0.672470   0.067037
     3  C    0.672588   0.067035
     4  C   -1.180416   0.114868
     5  C    0.672438   0.067027
     6  C    0.672611   0.067033
     7  O   -0.499241   0.240764
     8  O   -0.499245   0.240766
     9  C   -0.551184   0.000365
    10  C   -0.551179   0.000364
    11  C   -0.551190   0.000363
    12  C   -0.551197   0.000363
    13  H    0.144718   0.003480
    14  H    0.144642   0.003471
    15  H    0.179138  -0.002163
    16  H    0.179136  -0.002163
    17  H    0.144786   0.003485
    18  H    0.144571   0.003465
    19  H    0.179135  -0.002163
    20  H    0.144489   0.003459
    21  H    0.144870   0.003493
    22  H    0.144721   0.003481
    23  H    0.179138  -0.002163
    24  H    0.144638   0.003470
 Sum of Mulliken charges =  -1.00000   1.00000

 Dipole moment (field-independent basis, Debye):
    X=              0.0000    Y=              0.0000    Z=              0.0003  Tot=              0.0003
 Quadrupole moment (field-independent basis, Debye-Ang):
   XX=            -74.6722   YY=           -117.5814   ZZ=            -76.3771
   XY=              0.0017   XZ=              0.0005   YZ=             -0.0005

 Normal termination of Gaussian 16 at Sun Jan 21 07:22:15 2024.
