 Gaussian 16, Revision A.03,
 Gaussian 16:  ES64L-G16RevA.03 25-Dec-2016

 --------------------------------------
 #P UB3LYP/6-311++G(d,p) nosym opt freq
 --------------------------------------

 -------
 Reduced
 -------
 Symbolic Z-matrix:
 Charge = -2 Multiplicity = 1

 SCF Done:  E(UB3LYP) =  -799.630884010     A.U. after   45 cycles
 SCF Done:  E(UB3LYP) =  -799.654669880     A.U. after   30 cycles
 SCF Done:  E(UB3LYP) =  -799.659527607     A.U. after   30 cycles
 SCF Done:  E(UB3LYP) =  -799.665296414     A.U. after   30 cycles
 SCF Done:  E(UB3LYP) =  -799.669998270     A.U. after   27 cycles
 SCF Done:  E(UB3LYP) =  -799.672502359     A.U. after   28 cycles
 SCF Done:  E(UB3LYP) =  -799.674272427     A.U. after   32 cycles
 SCF Done:  E(UB3LYP) =  -799.674195805     A.U. after   28 cycles
 SCF Done:  E(UB3LYP) =  -799.674584205     A.U. after   28 cycles
 SCF Done:  E(UB3LYP) =  -799.674600630     A.U. after   29 cycles
 SCF Done:  E(UB3LYP) =  -799.674606063     A.U. after   29 cycles
 SCF Done:  E(UB3LYP) =  -799.674606598     A.U. after   25 cycles
 SCF Done:  E(UB3LYP) =  -799.674606813     A.U. after   30 cycles
 SCF Done:  E(UB3LYP) =  -799.674606884     A.U. after   25 cycles
 Optimization completed.
    -- Stationary point found.
 Normal termination of Gaussian 16 at Thu Dec 21 09:04:36 2023.

 ----------------------------------------------------------------------
 #P Geom=AllCheck Guess=TCheck SCRF=Check GenChk UB3LYP/6-311++G(d,p) F
 req
 ----------------------------------------------------------------------

 Structure from the checkpoint file:  "168-an.chk"
 -------
 Reduced
 -------
 Charge = -2 Multiplicity = 1

                          Input orientation:
 ---------------------------------------------------------------------
 Center     Atomic      Atomic             Coordinates (Angstroms)
 Number     Number       Type             X           Y           Z
 ---------------------------------------------------------------------
      1          7           0       -5.064648   -0.633988   -0.613477
      2          6           0       -3.739949   -0.206707   -0.296910
      3          6           0       -3.562113    1.027521    0.387942
      4          6           0       -2.289679    1.483327    0.665362
      5          6           0       -1.128696    0.775536    0.277425
      6          6           0        0.181054    1.328255    0.587035
      7          8           0        0.330129    2.438149    1.197834
      8          6           0        1.307236    0.520864    0.149110
      9          6           0        2.625714    0.975611    0.404240
     10          6           0        3.740596    0.265588    0.008094
     11          7           0        5.066085    0.756712    0.207128
     12          6           0        3.562659   -0.980205   -0.655430
     13          6           0        2.289998   -1.454232   -0.899252
     14          6           0        1.129132   -0.736939   -0.528789
     15          6           0       -0.180634   -1.290533   -0.836785
     16          8           0       -0.329767   -2.406573   -1.436280
     17          6           0       -1.306714   -0.477229   -0.409743
     18          6           0       -2.625219   -0.931777   -0.665278
     19          1           0       -5.714290   -0.492017    0.162058
     20          1           0       -5.089352   -1.615756   -0.871872
     21          1           0       -4.434951    1.612638    0.669598
     22          1           0       -2.136242    2.422534    1.187227
     23          1           0        2.721482    1.919296    0.934837
     24          1           0        5.708845    0.025401    0.516425
     25          1           0        5.088195    1.507703    0.890334
     26          1           0        4.435804   -1.540028   -0.983690
     27          1           0        2.136452   -2.402754   -1.403958
     28          1           0       -2.721129   -1.890394   -1.168375
 ---------------------------------------------------------------------

 SCF Done:  E(UB3LYP) =  -799.674606884     A.U. after    3 cycles

 Alpha  occ. eigenvalues --  -18.81074 -18.81073 -14.11053 -14.11053  -9.98215
 Alpha  occ. eigenvalues --   -9.98215  -9.96743  -9.96742  -9.94494  -9.94493
 Alpha  occ. eigenvalues --   -9.94173  -9.94173  -9.93293  -9.93292  -9.92766
 Alpha  occ. eigenvalues --   -9.92765  -9.92453  -9.92452  -0.73083  -0.72734
 Alpha  occ. eigenvalues --   -0.70045  -0.70025  -0.61065  -0.60200  -0.53620
 Alpha  occ. eigenvalues --   -0.51403  -0.50978  -0.48981  -0.42301  -0.40845
 Alpha  occ. eigenvalues --   -0.37788  -0.36602  -0.32370  -0.31129  -0.29853
 Alpha  occ. eigenvalues --   -0.28826  -0.27720  -0.26128  -0.23377  -0.21636
 Alpha  occ. eigenvalues --   -0.21532  -0.19291  -0.19138  -0.18393  -0.17307
 Alpha  occ. eigenvalues --   -0.16484  -0.16016  -0.15176  -0.14441  -0.13413
 Alpha  occ. eigenvalues --   -0.11667  -0.11494  -0.11078  -0.09128  -0.08409
 Alpha  occ. eigenvalues --   -0.06244  -0.01866  -0.01271   0.00496   0.01295
 Alpha  occ. eigenvalues --    0.01607   0.01993   0.11948
 Alpha virt. eigenvalues --    0.13580   0.13850   0.16467   0.16491   0.18145
 Alpha virt. eigenvalues --    0.18586   0.18708   0.20096   0.20587   0.21725
 Alpha virt. eigenvalues --    0.22170   0.22532   0.22809   0.24311   0.24488

  Beta  occ. eigenvalues --  -18.81074 -18.81073 -14.11053 -14.11053  -9.98215
  Beta  occ. eigenvalues --   -9.98215  -9.96743  -9.96742  -9.94494  -9.94493
  Beta  occ. eigenvalues --   -9.94173  -9.94173  -9.93293  -9.93292  -9.92766
  Beta  occ. eigenvalues --   -9.92765  -9.92453  -9.92452  -0.73083  -0.72734
  Beta  occ. eigenvalues --   -0.70045  -0.70025  -0.61065  -0.60200  -0.53620
  Beta  occ. eigenvalues --   -0.51403  -0.50978  -0.48981  -0.42301  -0.40845
  Beta  occ. eigenvalues --   -0.37788  -0.36602  -0.32370  -0.31129  -0.29853
  Beta  occ. eigenvalues --   -0.28826  -0.27720  -0.26128  -0.23377  -0.21636
  Beta  occ. eigenvalues --   -0.21532  -0.19291  -0.19138  -0.18393  -0.17307
  Beta  occ. eigenvalues --   -0.16484  -0.16016  -0.15176  -0.14441  -0.13413
  Beta  occ. eigenvalues --   -0.11667  -0.11494  -0.11078  -0.09128  -0.08409
  Beta  occ. eigenvalues --   -0.06244  -0.01866  -0.01271   0.00496   0.01295
  Beta  occ. eigenvalues --    0.01607   0.01993   0.11948
  Beta virt. eigenvalues --    0.13580   0.13850   0.16467   0.16491   0.18145
  Beta virt. eigenvalues --    0.18586   0.18708   0.20096   0.20587   0.21725
  Beta virt. eigenvalues --    0.22170   0.22532   0.22809   0.24311   0.24488

 Mulliken charges and spin densities:
               1          2
     1  N   -0.310960   0.000000
     2  C   -0.706016  -0.000000
     3  C   -0.389199   0.000000
     4  C    0.118813   0.000000
     5  C    0.469916   0.000000
     6  C   -0.804355   0.000000
     7  O   -0.456840   0.000000
     8  C    0.895513   0.000000
     9  C    0.308510   0.000000
    10  C   -0.706387  -0.000000
    11  N   -0.310795   0.000000
    12  C   -0.389178  -0.000000
    13  C    0.118952   0.000000
    14  C    0.470153   0.000000
    15  C   -0.804399   0.000000
    16  O   -0.456852   0.000000
    17  C    0.895706   0.000000
    18  C    0.308519   0.000000
    19  H   -0.301421  -0.000000
    20  H   -0.016407  -0.000000
    21  H   -0.066274  -0.000000
    22  H    0.141700  -0.000000
    23  H    0.117005   0.000000
    24  H   -0.301496  -0.000000
    25  H   -0.016434  -0.000000
    26  H   -0.066485  -0.000000
    27  H    0.141715  -0.000000
    28  H    0.116997  -0.000000
 Sum of Mulliken charges =  -2.00000   0.00000

 Dipole moment (field-independent basis, Debye):
    X=              0.0001    Y=              0.0788    Z=              0.7211  Tot=              0.7254
 Quadrupole moment (field-independent basis, Debye-Ang):
   XX=           -253.8473   YY=           -153.4777   ZZ=           -134.5194
   XY=             -6.5289   XZ=             -4.3699   YZ=            -14.7163

  Exact polarizability:4896.267 283.638 617.479 184.290 221.685 334.299
 Approx polarizability:******** 678.666 732.148 441.188 181.048 507.812

                      1                      2                      3
                      A                      A                      A
 Frequencies --     46.9272                99.8519               117.1053
 Red. masses --      6.4529                 4.2028                 5.4084
 Frc consts  --      0.0084                 0.0247                 0.0437
 IR Inten    --      0.0022                 2.0115                21.7774

                      4                      5                      6
                      A                      A                      A
 Frequencies --    159.7508               168.1566               193.2530
 Red. masses --      6.9594                 4.6152                 4.6909
 Frc consts  --      0.1046                 0.0769                 0.1032
 IR Inten    --     12.4495                 5.8898                22.7093

                      7                      8                      9
                      A                      A                      A
 Frequencies --    232.7964               240.5709               248.4986
 Red. masses --      1.6979                 1.0708                 1.9316
 Frc consts  --      0.0542                 0.0365                 0.0703
 IR Inten    --      0.4974               193.0965                 1.2541

                     10                     11                     12
                      A                      A                      A
 Frequencies --    281.3097               318.7720               333.3505
 Red. masses --      4.9341                 7.1773                 5.3416
 Frc consts  --      0.2301                 0.4297                 0.3497
 IR Inten    --      0.0147                 1.7534                38.7841

                     13                     14                     15
                      A                      A                      A
 Frequencies --    352.2127               381.0660               386.9904
 Red. masses --      8.5583                 5.5462                 4.3349
 Frc consts  --      0.6255                 0.4745                 0.3825
 IR Inten    --     74.8985                 1.8140                 1.9521

                     16                     17                     18
                      A                      A                      A
 Frequencies --    438.7668               449.3287               461.4214
 Red. masses --      3.2830                 5.2757                 4.9086
 Frc consts  --      0.3724                 0.6276                 0.6157
 IR Inten    --      9.4710                17.7595                 3.3639

                     19                     20                     21
                      A                      A                      A
 Frequencies --    481.2764               488.8931               542.6139
 Red. masses --      9.2832                 3.4307                 6.1219
 Frc consts  --      1.2669                 0.4831                 1.0620
 IR Inten    --     22.7567                30.3181                 3.5850

                     22                     23                     24
                      A                      A                      A
 Frequencies --    549.8736               641.6940               644.1472
 Red. masses --      3.1401                 6.3915                 3.6332
 Frc consts  --      0.5594                 1.5506                 0.8882
 IR Inten    --     10.9336                 2.0555               226.7763

                     25                     26                     27
                      A                      A                      A
 Frequencies --    658.8229               702.1445               712.1790
 Red. masses --      6.6058                 6.5221                 3.0025
 Frc consts  --      1.6893                 1.8945                 0.8972
 IR Inten    --      4.8680                 1.1724                 1.4987

                     28                     29                     30
                      A                      A                      A
 Frequencies --    724.1178               725.1209               755.0616
 Red. masses --      3.1115                 5.8452                 1.4477
 Frc consts  --      0.9613                 1.8108                 0.4863
 IR Inten    --      3.6149                91.5058               145.2173

                     31                     32                     33
                      A                      A                      A
 Frequencies --    773.1871               786.7723               793.6689
 Red. masses --      3.5386                 1.9073                 1.6113
 Frc consts  --      1.2464                 0.6956                 0.5980
 IR Inten    --     83.9420                13.5408              1042.3854

                     34                     35                     36
                      A                      A                      A
 Frequencies --    822.3925               824.6973               879.6416
 Red. masses --      2.0967                 3.9522                 5.8387
 Frc consts  --      0.8355                 1.5837                 2.6618
 IR Inten    --      5.4157                69.0676                31.1485

                     37                     38                     39
                      A                      A                      A
 Frequencies --    905.0418               906.3612               966.4714
 Red. masses --      1.4809                 1.5409                 1.3114
 Frc consts  --      0.7147                 0.7458                 0.7217
 IR Inten    --     31.8939                 5.2680                24.0999

                     40                     41                     42
                      A                      A                      A
 Frequencies --    968.5963               976.7055               979.6057
 Red. masses --      1.3280                 3.7186                 2.5155
 Frc consts  --      0.7340                 2.0901                 1.4222
 IR Inten    --     11.1592                17.1916                 0.2025

                     43                     44                     45
                      A                      A                      A
 Frequencies --   1092.8980              1100.1317              1107.0329
 Red. masses --      2.4698                 1.6016                 1.4541
 Frc consts  --      1.7381                 1.1420                 1.0499
 IR Inten    --      7.2505                 0.5943                20.2665

                     46                     47                     48
                      A                      A                      A
 Frequencies --   1134.8641              1142.5972              1143.3417
 Red. masses --      1.2330                 2.1210                 2.0386
 Frc consts  --      0.9356                 1.6315                 1.5701
 IR Inten    --      0.4478                 7.7238                56.2407

                     49                     50                     51
                      A                      A                      A
 Frequencies --   1209.7130              1212.3282              1235.0188
 Red. masses --      1.9192                 1.6834                 3.2460
 Frc consts  --      1.6547                 1.4577                 2.9171
 IR Inten    --     32.3594                 1.2376               489.0170

                     52                     53                     54
                      A                      A                      A
 Frequencies --   1248.9964              1269.4988              1338.6751
 Red. masses --      6.5654                 2.3217                 2.1279
 Frc consts  --      6.0344                 2.2045                 2.2467
 IR Inten    --      1.0539               141.3056                 0.4931

                     55                     56                     57
                      A                      A                      A
 Frequencies --   1343.3550              1359.3318              1392.0847
 Red. masses --      8.6988                 6.8666                 3.4395
 Frc consts  --      9.2489                 7.4755                 3.9271
 IR Inten    --    104.4510                39.3290               623.8090

                     58                     59                     60
                      A                      A                      A
 Frequencies --   1461.7602              1462.9041              1471.9585
 Red. masses --      3.1991                 3.6760                 8.5424
 Frc consts  --      4.0274                 4.6351                10.9048
 IR Inten    --    268.4537               161.2167                75.6269

                     61                     62                     63
                      A                      A                      A
 Frequencies --   1493.5365              1498.1061              1542.9309
 Red. masses --      3.9694                 5.7162                 5.4512
 Frc consts  --      5.2168                 7.5586                 7.6460
 IR Inten    --      8.1869               464.1321               276.7904

                     64                     65                     66
                      A                      A                      A
 Frequencies --   1569.7435              1610.2655              1611.9444
 Red. masses --      6.9302                 5.6961                 2.2461
 Frc consts  --     10.0613                 8.7021                 3.4386
 IR Inten    --    108.4740                16.8585              2765.1538

                     67                     68                     69
                      A                      A                      A
 Frequencies --   1618.5673              1620.1619              3118.8791
 Red. masses --      1.6427                 1.1296                 1.0868
 Frc consts  --      2.5356                 1.7469                 6.2289
 IR Inten    --    403.8922                 0.1731               143.7231

                     70                     71                     72
                      A                      A                      A
 Frequencies --   3119.0673              3142.8728              3142.9104
 Red. masses --      1.0872                 1.0884                 1.0883
 Frc consts  --      6.2316                 6.3341                 6.3340
 IR Inten    --     19.5225                66.9758                21.8712

                     73                     74                     75
                      A                      A                      A
 Frequencies --   3164.3349              3164.4759              3384.5494
 Red. masses --      1.0910                 1.0910                 1.0552
 Frc consts  --      6.4363                 6.4368                 7.1221
 IR Inten    --     25.5026                 4.8162              9049.1721

                     76                     77                     78
                      A                      A                      A
 Frequencies --   3391.6423              3534.9946              3535.0713
 Red. masses --      1.0555                 1.0868                 1.0868
 Frc consts  --      7.1534                 8.0016                 8.0019
 IR Inten    --     54.9255               186.6844                55.8183

 - Thermochemistry -
 -------------------
 Temperature   298.150 Kelvin.  Pressure   1.00000 Atm.
 Atom     1 has atomic number  7 and mass  14.00307

 Molecular mass:   238.07423 amu.
 Principal axes and moments of inertia in atomic units:
                           1         2         3
     Eigenvalues --  1800.589786824.183328618.76778
           X            0.99917  -0.04045  -0.00572
           Y            0.03283   0.87827  -0.47704
           Z            0.02432   0.47646   0.87886
 This molecule is an asymmetric top.
 Rotational symmetry number  1.
 Warning -- assumption of classical behavior for rotation
           may cause significant error
 Rotational temperatures (Kelvin)      0.04810     0.01269     0.01005
 Rotational constants (GHZ):           1.00231     0.26446     0.20940
 Zero-point vibrational energy     544957.4 (Joules/Mol)
                                  130.24794 (Kcal/Mol)
 Warning -- explicit consideration of  22 degrees of freedom as
           vibrations may cause significant error
 Vibrational temperatures:     67.52   143.66   168.49   229.85   241.94
          (Kelvin)            278.05   334.94   346.13   357.53   404.74
                              458.64   479.62   506.76   548.27   556.79
                              631.29   646.48   663.88   692.45   703.41
                              780.70   791.15   923.25   926.78   947.90
                             1010.23  1024.67  1041.84  1043.29  1086.37
                             1112.44  1131.99  1141.91  1183.24  1186.56
                             1265.61  1302.15  1304.05  1390.54  1393.59
                             1405.26  1409.43  1572.44  1582.84  1592.77
                             1632.82  1643.94  1645.01  1740.51  1744.27
                             1776.92  1797.03  1826.53  1926.05  1932.79
                             1955.78  2002.90  2103.15  2104.79  2117.82
                             2148.87  2155.44  2219.93  2258.51  2316.81
                             2319.23  2328.76  2331.05  4487.37  4487.64
                             4521.89  4521.95  4552.77  4552.97  4869.61
                             4879.82  5086.07  5086.18

 Zero-point correction=                           0.207563 (Hartree/Particle)
 Thermal correction to Energy=                    0.221801
 Thermal correction to Enthalpy=                  0.222745
 Thermal correction to Gibbs Free Energy=         0.167259
 Sum of electronic and zero-point Energies=           -799.467044
 Sum of electronic and thermal Energies=              -799.452806
 Sum of electronic and thermal Enthalpies=            -799.451862
 Sum of electronic and thermal Free Energies=         -799.507348

                     E (Thermal)             CV                S
                      KCal/Mol        Cal/Mol-Kelvin    Cal/Mol-Kelvin
 Total                  139.182             58.097            116.781
 Electronic               0.000              0.000              0.000
 Translational            0.889              2.981             42.304
 Rotational               0.889              2.981             33.026
 Vibrational            137.405             52.135             41.451
 Vibration     1          0.595              1.979              4.943
 Vibration     2          0.604              1.949              3.457
 Vibration     3          0.608              1.935              3.148
 Vibration     4          0.622              1.892              2.553
 Vibration     5          0.625              1.882              2.456
 Vibration     6          0.635              1.849              2.196
 Vibration     7          0.654              1.791              1.857
 Vibration     8          0.658              1.778              1.799
 Vibration     9          0.662              1.765              1.741
 Vibration    10          0.681              1.708              1.526
 Vibration    11          0.705              1.638              1.316
 Vibration    12          0.715              1.609              1.244
 Vibration    13          0.729              1.571              1.156
 Vibration    14          0.751              1.511              1.035
 Vibration    15          0.755              1.498              1.012
 Vibration    16          0.799              1.386              0.830
 Vibration    17          0.808              1.362              0.798
 Vibration    18          0.819              1.336              0.762
 Vibration    19          0.838              1.292              0.707
 Vibration    20          0.845              1.275              0.686
 Vibration    21          0.898              1.156              0.560
 Vibration    22          0.905              1.140              0.544

                           ! Non-Optimized Parameters !
 Normal termination of Gaussian 16 at Thu Dec 21 09:44:01 2023.
