 Q-Chem 5.4, Q-Chem, Inc., Pleasanton, CA (2021)
 Q-Chem 5.4.0 for Intel X86 EM64T Linux

User input:
--------------------------------------------------------------
$molecule
0 1
C                  5.9228460000     -5.2187110000      1.1094300000
C                  6.8204160000     -5.0891700000      0.0553880000
C                  6.6095950000     -4.1072800000     -0.9268200000
C                  4.8151510000     -4.3788580000      1.1958860000
C                  4.6043490000     -3.3970390000      0.2137390000
C                  5.5040530000     -3.2682740000     -0.8416090000
C                  3.8624430000     -4.5329980000      2.3350040000
C                  2.7023980000     -3.6092750000      2.3728330000
C                  2.5012290000     -2.6723800000      1.4356480000
C                  3.4231390000     -2.4869900000      0.2884150000
O                  4.0183350000     -5.3751990000      3.2021330000
O                  3.2132890000     -1.6258380000     -0.5481870000
H                  6.0772810000     -5.9725230000      1.8708220000
H                  5.3334900000     -2.5088060000     -1.5938750000
Cl                 7.7102250000     -3.9133190000     -2.2618360000
Cl                 8.1923330000     -6.1588100000     -0.0156830000
H                  2.0272510000     -3.7435120000      3.2109910000
H                  1.6524240000     -1.9978170000      1.4647700000
$end

$rem
BASIS  =  6-311++G(d,p)
GUI  =  2
JOB_TYPE  =  SP
METHOD  =  B3LYP
SCF_CONVERGENCE  = 8
SOLVENT_METHOD = sm12
$end

$smx
solvent dimethylformamide
charges CM5
$end

--------------------------------------------------------------

             Standard Nuclear Orientation (Angstroms)
    I     Atom           X                Y                Z
 ----------------------------------------------------------------
    1      C       5.9228460000    -5.2187110000     1.1094300000
    2      C       6.8204160000    -5.0891700000     0.0553880000
    3      C       6.6095950000    -4.1072800000    -0.9268200000
    4      C       4.8151510000    -4.3788580000     1.1958860000
    5      C       4.6043490000    -3.3970390000     0.2137390000
    6      C       5.5040530000    -3.2682740000    -0.8416090000
    7      C       3.8624430000    -4.5329980000     2.3350040000
    8      C       2.7023980000    -3.6092750000     2.3728330000
    9      C       2.5012290000    -2.6723800000     1.4356480000
   10      C       3.4231390000    -2.4869900000     0.2884150000
   11      O       4.0183350000    -5.3751990000     3.2021330000
   12      O       3.2132890000    -1.6258380000    -0.5481870000
   13      H       6.0772810000    -5.9725230000     1.8708220000
   14      H       5.3334900000    -2.5088060000    -1.5938750000
   15      Cl      7.7102250000    -3.9133190000    -2.2618360000
   16      Cl      8.1923330000    -6.1588100000    -0.0156830000
   17      H       2.0272510000    -3.7435120000     3.2109910000
   18      H       1.6524240000    -1.9978170000     1.4647700000
 ----------------------------------------------------------------

   14   -1454.4955370737      6.84e-09  Convergence criterion met
 Total energy in the final basis set =    -1454.5131690364

                    Orbital Energies (a.u.)
 --------------------------------------------------------------

 Alpha MOs
 -- Occupied --
********-101.5781 -19.1422 -19.1422 -10.2915 -10.2915 -10.2775 -10.2770
-10.2248 -10.2243 -10.2206 -10.2206 -10.2167 -10.2159  -9.4928  -9.4927
 -7.2576  -7.2576  -7.2476  -7.2476  -7.2469  -7.2469  -1.0755  -1.0736
 -0.9440  -0.8847  -0.8834  -0.8385  -0.7899  -0.7692  -0.7077  -0.6663
 -0.6478  -0.6087  -0.5513  -0.5397  -0.5254  -0.4962  -0.4782  -0.4750
 -0.4679  -0.4666  -0.4453  -0.4425  -0.4326  -0.4270  -0.4102  -0.4010
 -0.3701  -0.3563  -0.3498  -0.3305  -0.3134  -0.2953  -0.2887  -0.2844
 -0.2775

          Ground-State Mulliken Net Atomic Charges

     Atom                 Charge (a.u.)
  ----------------------------------------
      1 C                    -0.625807
      2 C                     0.490332
      3 C                     0.488341
      4 C                    -0.383840
      5 C                    -0.382049
      6 C                    -0.627860
      7 C                    -1.263619
      8 C                     0.936106
      9 C                     0.935111
     10 C                    -1.261940
     11 O                    -0.311075
     12 O                    -0.311385
     13 H                     0.238817
     14 H                     0.238961
     15 Cl                    0.582033
     16 Cl                    0.581686
     17 H                     0.338116
     18 H                     0.338075
  ----------------------------------------
  Sum of atomic charges =     0.000000

                    Cartesian Multipole Moments
 -----------------------------------------------------------------
    Charge (ESU x 10^10)
                -0.0000
    Dipole Moment (Debye)
         X      -1.2349      Y       0.4383      Z       0.7033
       Tot       1.4872
    Quadrupole Moments (Debye-Ang)
        XX    -101.4552     XY       7.0345     YY    -103.3837
        XZ      -1.2715     YZ       5.4733     ZZ     -98.2212

 Total job time:  199.30s(wall), 1511.69s(cpu)
        *  Thank you very much for using Q-Chem.  Have a nice day.  *
