 Q-Chem 5.4, Q-Chem, Inc., Pleasanton, CA (2021)
 Q-Chem 5.4.0 for Intel X86 EM64T Linux

User input:
--------------------------------------------------------------
$molecule
-2 1
C                  1.0436720000      1.5747370000     -1.1233280000
C                 -0.1810110000      0.8561330000     -1.2109960000
C                 -0.4347510000     -0.3705920000     -0.5765290000
C                  0.5629650000     -1.0053590000      0.2508330000
C                  1.8160790000     -0.2826720000      0.3509150000
C                  2.0462270000      0.9338160000     -0.2956770000
C                  3.3720310000      1.6457880000     -0.1585110000
C                  2.8927410000     -0.9161610000      1.2022260000
O                  1.2524310000      2.7009010000     -1.7309840000
O                  0.3762210000     -2.1298520000      0.8612030000
H                 -0.9618630000      1.3067560000     -1.8238190000
H                  3.6009510000      1.9054710000      0.8868960000
H                  3.3269660000      2.5648650000     -0.7482670000
H                  4.2152860000      1.0344510000     -0.5158940000
H                  2.5043570000     -1.8547630000      1.6044500000
H                  3.1964890000     -0.2711700000      2.0414090000
H                  3.8094600000     -1.1277990000      0.6291520000
C                 -1.7651130000     -1.0078810000     -0.8273680000
C                 -1.7601660000     -2.4971570000     -1.1631140000
O                 -2.6476960000     -0.8384310000      0.4068080000
C                 -3.9541160000     -0.7318160000      0.2531010000
C                 -4.6659340000     -0.5073930000      1.5796450000
O                 -4.5656790000     -0.7869150000     -0.8034350000
H                 -2.2912590000     -0.4543090000     -1.6057330000
H                 -2.7805060000     -2.8671660000     -1.3076490000
H                 -1.2430580000     -3.0381530000     -0.3704860000
H                 -1.2058690000     -2.6380820000     -2.0978430000
H                 -3.9756020000     -0.5358470000      2.4213770000
H                 -5.4435590000     -1.2656230000      1.7085290000
H                 -5.1726440000      0.4631230000      1.5525410000
$end
$rem
MAX_SCF_CYCLES=200
BASIS  =  6-311++G(d,p)
GUI  =  2
JOB_TYPE  =  SP
METHOD  =  B3LYP
SOLVENT_METHOD = COSMO
$end
$solvent
dielectric 37.219
opticaldielectric 1.43
$end

--------------------------------------------------------------

             Standard Nuclear Orientation (Angstroms)
    I     Atom           X                Y                Z
 ----------------------------------------------------------------
    1      C       2.0075843778     1.5646364824    -0.1190606670
    2      C       0.6329963116     1.3533459461    -0.4187101206
    3      C       0.0013748906     0.0992696723    -0.4302715878
    4      C       0.7277105279    -1.1071028130    -0.1140498164
    5      C       2.1300149468    -0.9063974920     0.1955423256
    6      C       2.7367386521     0.3516868658     0.1939724077
    7      C       4.2034804234     0.5052190056     0.5234740696
    8      C       2.9309241305    -2.1453476603     0.5253706963
    9      O       2.5656138023     2.7349334176    -0.1279900589
   10      O       0.1910617044    -2.2834613307    -0.1041481206
   11      H       0.0493359211     2.2423619117    -0.6581555735
   12      H       4.4443006234     0.1460328966     1.5362457087
   13      H       4.4578613618     1.5660071926     0.4559145701
   14      H       4.8495940196    -0.0604221176    -0.1658167775
   15      H       2.2663266093    -3.0102570145     0.4633873445
   16      H       3.3658347963    -2.1058923415     1.5362120962
   17      H       3.7744941876    -2.2954409070    -0.1670451855
   18      C      -1.4421927039     0.0642854501    -0.8224567846
   19      C      -1.8534473902    -1.0052159398    -1.8312824452
   20      O      -2.2991990783    -0.1527739109     0.4222446902
   21      C      -3.5085005995     0.3735805208     0.4698541369
   22      C      -4.1910883967     0.1094400615     1.8044226998
   23      O      -4.0548314064     1.0138010181    -0.4161220966
   24      H      -1.7441050812     1.0484958450    -1.1820432985
   25      H      -2.9285146090    -0.9571539236    -2.0333004141
   26      H      -1.5572412113    -1.9834739258    -1.4523237214
   27      H      -1.3170925081    -0.8195095891    -2.7686510574
   28      H      -3.5828256116    -0.5169235929     2.4552418889
   29      H      -5.1611438791    -0.3646142927     1.6298108751
   30      H      -4.3915558175     1.0663957095     2.2978187455
 ----------------------------------------------------------------

   18    -766.8059304220      7.39e-06  Convergence criterion met
 Total energy in the final basis set =     -766.8059304220
    6    -767.0908292541      3.53e-06  Convergence criterion met
 Total energy in the final basis set =     -767.0908292541

                    Orbital Energies (a.u.)
 --------------------------------------------------------------

 Alpha MOs
 -- Occupied --
-19.1538 -19.1044 -19.0156 -19.0129 -10.2981 -10.2133 -10.1679 -10.1659
-10.1639 -10.1396 -10.1336 -10.1328 -10.1277 -10.1257 -10.1257 -10.1172
 -1.0931  -1.0088  -0.9318  -0.9283  -0.7941  -0.7739  -0.7332  -0.7121
 -0.6948  -0.6453  -0.6265  -0.6058  -0.5480  -0.5320  -0.5038  -0.4875
 -0.4675  -0.4619  -0.4486  -0.4231  -0.4083  -0.4047  -0.4029  -0.3995
 -0.3821  -0.3782  -0.3705  -0.3603  -0.3581  -0.3544  -0.3533  -0.3457
 -0.3368  -0.3244  -0.3112  -0.3076  -0.3056  -0.2964  -0.2771  -0.2246
 -0.2007  -0.1986  -0.1891  -0.1166

          Ground-State Mulliken Net Atomic Charges

     Atom                 Charge (a.u.)
  ----------------------------------------
      1 C                    -0.644665
      2 C                    -0.271581
      3 C                     0.872662
      4 C                    -0.712236
      5 C                     0.207385
      6 C                     0.516115
      7 C                    -0.438404
      8 C                    -0.571273
      9 O                    -0.784034
     10 O                    -0.719980
     11 H                     0.126967
     12 H                     0.139706
     13 H                     0.170633
     14 H                     0.139361
     15 H                     0.168679
     16 H                     0.136454
     17 H                     0.136730
     18 C                    -0.549093
     19 C                    -0.571767
     20 O                     0.074846
     21 C                     0.316670
     22 C                    -0.600297
     23 O                    -0.403858
     24 H                     0.201313
     25 H                     0.156950
     26 H                     0.204792
     27 H                     0.140898
     28 H                     0.176985
     29 H                     0.189120
     30 H                     0.190923
  ----------------------------------------
  Sum of atomic charges =    -2.000000

                    Cartesian Multipole Moments
 -----------------------------------------------------------------
    Charge (ESU x 10^10)
                -9.6064
    Dipole Moment (Debye)
         X      -9.0672      Y      -4.6216      Z       2.3100
       Tot      10.4359
    Quadrupole Moments (Debye-Ang)
        XX    -150.3591     XY     -19.4104     YY    -158.8148
        XZ      -7.8246     YZ       3.3051     ZZ    -102.5830

 Total job time:  81.30s(wall), 604.68s(cpu)
        *  Thank you very much for using Q-Chem.  Have a nice day.  *
