 Q-Chem 5.4, Q-Chem, Inc., Pleasanton, CA (2021)
 Q-Chem 5.4.0 for Intel X86 EM64T Linux

User input:
--------------------------------------------------------------
$molecule
-2 2
C                  2.7533260000      0.5717490000      0.2141350000
C                  2.7000720000     -0.6068650000      0.9894610000
C                  1.5042510000     -1.2712300000      1.1546420000
C                 -0.9333840000     -1.5462090000      0.7704350000
O                 -0.9774890000     -2.5995340000      1.4640310000
C                 -2.1264690000     -1.0017560000      0.1284850000
C                 -3.3655800000     -1.6655360000      0.2832360000
C                 -4.5190690000     -1.1869680000     -0.3055370000
C                 -4.4731830000     -0.0053040000     -1.0845950000
C                 -3.2739550000      0.6600990000     -1.2497440000
C                 -2.0801090000      0.1909310000     -0.6578290000
C                 -0.8359820000      0.9371480000     -0.8666040000
O                 -0.8116390000      1.9836450000     -1.5602670000
C                  0.3645870000      0.3895140000     -0.2208510000
C                  1.6049540000      1.0565430000     -0.3774700000
H                  3.6103790000     -0.9769420000      1.4471660000
H                  1.4425120000     -2.1780410000      1.7457760000
H                 -3.3692120000     -2.5677180000      0.8853320000
H                 -5.4604430000     -1.7145170000     -0.1724090000
H                 -5.3787900000      0.3754270000     -1.5501950000
H                 -3.2063970000      1.5673320000     -1.8403240000
H                  1.6412820000      1.9594050000     -0.9732270000
C                  0.3101020000     -0.7996700000      0.5612640000
S                  4.3656290000      1.4149410000      0.0326970000
O                  5.2616120000      0.3861270000     -0.5719080000
O                  4.1140080000      2.5867620000     -0.8471430000
O                  4.7590690000      1.7783850000      1.4254540000
$end

$rem
BASIS  =  6-311++G(d,p)
GUI  =  2
JOB_TYPE  =  SP
METHOD  =  B3LYP
SCF_CONVERGENCE  = 8
SOLVENT_METHOD = sm12
$end

$smx
solvent dimethylformamide
charges CM5
$end

--------------------------------------------------------------

             Standard Nuclear Orientation (Angstroms)
    I     Atom           X                Y                Z
 ----------------------------------------------------------------
    1      C       2.7533260000     0.5717490000     0.2141350000
    2      C       2.7000720000    -0.6068650000     0.9894610000
    3      C       1.5042510000    -1.2712300000     1.1546420000
    4      C      -0.9333840000    -1.5462090000     0.7704350000
    5      O      -0.9774890000    -2.5995340000     1.4640310000
    6      C      -2.1264690000    -1.0017560000     0.1284850000
    7      C      -3.3655800000    -1.6655360000     0.2832360000
    8      C      -4.5190690000    -1.1869680000    -0.3055370000
    9      C      -4.4731830000    -0.0053040000    -1.0845950000
   10      C      -3.2739550000     0.6600990000    -1.2497440000
   11      C      -2.0801090000     0.1909310000    -0.6578290000
   12      C      -0.8359820000     0.9371480000    -0.8666040000
   13      O      -0.8116390000     1.9836450000    -1.5602670000
   14      C       0.3645870000     0.3895140000    -0.2208510000
   15      C       1.6049540000     1.0565430000    -0.3774700000
   16      H       3.6103790000    -0.9769420000     1.4471660000
   17      H       1.4425120000    -2.1780410000     1.7457760000
   18      H      -3.3692120000    -2.5677180000     0.8853320000
   19      H      -5.4604430000    -1.7145170000    -0.1724090000
   20      H      -5.3787900000     0.3754270000    -1.5501950000
   21      H      -3.2063970000     1.5673320000    -1.8403240000
   22      H       1.6412820000     1.9594050000    -0.9732270000
   23      C       0.3101020000    -0.7996700000     0.5612640000
   24      S       4.3656290000     1.4149410000     0.0326970000
   25      O       5.2616120000     0.3861270000    -0.5719080000
   26      O       4.1140080000     2.5867620000    -0.8471430000
   27      O       4.7590690000     1.7783850000     1.4254540000
 ----------------------------------------------------------------

   17   -1312.3141303576      7.10e-09  Convergence criterion met
 Total energy in the final basis set =    -1312.5694198682

                    Orbital Energies (a.u.)
 --------------------------------------------------------------

 Alpha MOs
 -- Occupied --
-89.0284 -19.0803 -19.0803 -19.0732 -19.0716 -19.0716 -10.2304 -10.2290
-10.1946 -10.1853 -10.1849 -10.1847 -10.1833 -10.1826 -10.1822 -10.1821
-10.1813 -10.1810 -10.1808 -10.1807  -8.0870  -6.0497  -6.0496  -6.0490
 -1.0884  -1.0064  -1.0029  -0.9539  -0.9499  -0.8699  -0.8611  -0.7953
 -0.7619  -0.7594  -0.7501  -0.6769  -0.6550  -0.6312  -0.6016  -0.5810
 -0.5644  -0.5392  -0.5215  -0.4828  -0.4766  -0.4708  -0.4651  -0.4373
 -0.4344  -0.4328  -0.4310  -0.4275  -0.4231  -0.4151  -0.4095  -0.3964
 -0.3833  -0.3773  -0.3647  -0.3557  -0.3484  -0.3420  -0.3138  -0.3136
 -0.2910  -0.2777  -0.2751  -0.2713  -0.2668  -0.2631  -0.2487  -0.2486
 -0.2401  -0.2348  -0.1484

 Beta MOs
 -- Occupied --
-89.0284 -19.0745 -19.0742 -19.0732 -19.0716 -19.0716 -10.2291 -10.2275
-10.1940 -10.1848 -10.1844 -10.1842 -10.1825 -10.1818 -10.1816 -10.1814
-10.1810 -10.1809 -10.1808 -10.1807  -8.0870  -6.0497  -6.0496  -6.0490
 -1.0884  -0.9962  -0.9924  -0.9539  -0.9498  -0.8673  -0.8599  -0.7913
 -0.7597  -0.7579  -0.7482  -0.6699  -0.6532  -0.6289  -0.6008  -0.5800
 -0.5620  -0.5374  -0.5200  -0.4809  -0.4751  -0.4694  -0.4641  -0.4369
 -0.4333  -0.4325  -0.4305  -0.4215  -0.4161  -0.4107  -0.4064  -0.3939
 -0.3741  -0.3636  -0.3600  -0.3549  -0.3402  -0.3374  -0.3135  -0.3135
 -0.2855  -0.2776  -0.2747  -0.2641  -0.2542  -0.2517  -0.2431  -0.2425
 -0.2347  -0.2346

          Ground-State Mulliken Net Atomic Charges

     Atom                 Charge (a.u.)    Spin (a.u.)
  --------------------------------------------------------
      1 C                    -2.668898       0.022557
      2 C                    -0.302990       0.039087
      3 C                    -0.536290       0.026456
      4 C                    -1.375081       0.077098
      5 O                    -0.230224       0.226615
      6 C                     0.385625       0.037352
      7 C                     1.119833       0.033109
      8 C                     2.076003       0.035134
      9 C                     1.894668       0.042132
     10 C                     0.457776       0.021486
     11 C                    -0.174318       0.046454
     12 C                    -1.660876       0.065357
     13 O                    -0.288158       0.219942
     14 C                    -1.087038       0.067750
     15 C                    -0.999014       0.011452
     16 H                     0.246946      -0.003136
     17 H                     0.232844      -0.001756
     18 H                     0.197912      -0.001794
     19 H                     0.429604      -0.002731
     20 H                     0.415711      -0.003203
     21 H                     0.161107      -0.001423
     22 H                     0.138051      -0.001633
     23 C                     0.012056       0.043851
     24 S                     0.494688      -0.000949
     25 O                    -0.289523       0.000098
     26 O                    -0.364570       0.000454
     27 O                    -0.285847       0.000239
  --------------------------------------------------------
  Sum of atomic charges =    -2.000000

                    Cartesian Multipole Moments
 -----------------------------------------------------------------
    Charge (ESU x 10^10)
                -9.6064
    Dipole Moment (Debye)
         X     -19.7436      Y      -6.5375      Z       0.1590
       Tot      20.7984
    Quadrupole Moments (Debye-Ang)
        XX    -255.6877     XY     -39.7498     YY    -171.1228
        XZ       0.2390     YZ      11.9533     ZZ    -147.6795

 Total job time:  815.55s(wall), 6231.12s(cpu)
        *  Thank you very much for using Q-Chem.  Have a nice day.  *
