 Q-Chem 5.4, Q-Chem, Inc., Pleasanton, CA (2021)
 Q-Chem 5.4.0 for Intel X86 EM64T Linux

User input:
--------------------------------------------------------------
$molecule
0 1
O                 -0.0181840000     -2.3786060000     -0.6984580000
C                 -0.0199320000     -1.2495210000     -0.2421530000
C                  1.2717800000     -0.5681050000      0.0936640000
C                  2.4321050000     -1.3497400000      0.1558760000
C                  3.6470730000     -0.7865320000      0.5273290000
C                  3.7237310000      0.5686200000      0.8512440000
C                  2.5844380000      1.3668690000      0.7922170000
C                  1.3758860000      0.7920060000      0.4139010000
S                 -0.0208250000      1.8977530000      0.1862830000
O                 -0.0141180000      2.3605310000     -1.2050800000
C                 -1.4204020000      0.7929990000      0.4007510000
C                 -2.6320480000      1.3687260000      0.7676820000
C                 -3.7724180000      0.5712940000      0.8159800000
C                 -3.6936850000     -0.7839130000      0.4927920000
C                 -2.4756790000     -1.3479900000      0.1327850000
C                 -1.3142610000     -0.5671870000      0.0814990000
H                  2.3507770000     -2.4023530000     -0.0846990000
H                  4.5356810000     -1.4051700000      0.5723380000
H                  4.6690330000      1.0053050000      1.1515470000
H                  2.6256720000      2.4203000000      1.0406710000
H                 -2.6748640000      2.4221870000      1.0157420000
H                 -4.7201910000      1.0086550000      1.1073770000
H                 -4.5831210000     -1.4019140000      0.5294300000
H                 -2.3928480000     -2.4006620000     -0.1070220000
O                 -0.0255480000      2.8902340000      1.2653860000
$end
$rem
MAX_SCF_CYCLES=200
BASIS  =  6-311++G(d,p)
GUI  =  2
JOB_TYPE  =  SP
METHOD  =  B3LYP
SOLVENT_METHOD = PCM
$end
$pcm
theory = CPCM
$end
$solvent
dielectric 37.219
opticaldielectric 1.43
$end

--------------------------------------------------------------

             Standard Nuclear Orientation (Angstroms)
    I     Atom           X                Y                Z
 ----------------------------------------------------------------
    1      O      -0.0181840000    -2.3786060000    -0.6984580000
    2      C      -0.0199320000    -1.2495210000    -0.2421530000
    3      C       1.2717800000    -0.5681050000     0.0936640000
    4      C       2.4321050000    -1.3497400000     0.1558760000
    5      C       3.6470730000    -0.7865320000     0.5273290000
    6      C       3.7237310000     0.5686200000     0.8512440000
    7      C       2.5844380000     1.3668690000     0.7922170000
    8      C       1.3758860000     0.7920060000     0.4139010000
    9      S      -0.0208250000     1.8977530000     0.1862830000
   10      O      -0.0141180000     2.3605310000    -1.2050800000
   11      C      -1.4204020000     0.7929990000     0.4007510000
   12      C      -2.6320480000     1.3687260000     0.7676820000
   13      C      -3.7724180000     0.5712940000     0.8159800000
   14      C      -3.6936850000    -0.7839130000     0.4927920000
   15      C      -2.4756790000    -1.3479900000     0.1327850000
   16      C      -1.3142610000    -0.5671870000     0.0814990000
   17      H       2.3507770000    -2.4023530000    -0.0846990000
   18      H       4.5356810000    -1.4051700000     0.5723380000
   19      H       4.6690330000     1.0053050000     1.1515470000
   20      H       2.6256720000     2.4203000000     1.0406710000
   21      H      -2.6748640000     2.4221870000     1.0157420000
   22      H      -4.7201910000     1.0086550000     1.1073770000
   23      H      -4.5831210000    -1.4019140000     0.5294300000
   24      H      -2.3928480000    -2.4006620000    -0.1070220000
   25      O      -0.0255480000     2.8902340000     1.2653860000
 ----------------------------------------------------------------

    9   -1124.2303355026      3.76e-06  Convergence criterion met
 Total energy in the final basis set =    -1124.2303355026

                    Orbital Energies (a.u.)
 --------------------------------------------------------------

 Alpha MOs
 -- Occupied --
-89.0756 -19.1420 -19.1406 -19.1398 -10.2961 -10.2382 -10.2382 -10.2233
-10.2233 -10.2106 -10.2106 -10.2054 -10.2054 -10.2053 -10.2053 -10.2017
-10.2017  -8.1400  -6.1026  -6.1015  -6.1013  -1.1377  -1.0767  -1.0315
 -0.9067  -0.8953  -0.8214  -0.7955  -0.7896  -0.7828  -0.7169  -0.6811
 -0.6561  -0.6304  -0.6144  -0.5794  -0.5782  -0.5311  -0.5085  -0.5004
 -0.4981  -0.4944  -0.4846  -0.4661  -0.4605  -0.4587  -0.4583  -0.4467
 -0.4080  -0.4077  -0.3937  -0.3918  -0.3857  -0.3849  -0.3574  -0.3551
 -0.3419  -0.3227  -0.2949  -0.2922  -0.2877  -0.2855  -0.2836

          Ground-State Mulliken Net Atomic Charges

     Atom                 Charge (a.u.)
  ----------------------------------------
      1 O                    -0.261941
      2 C                    -0.636920
      3 C                     2.118320
      4 C                     0.221730
      5 C                    -0.608123
      6 C                    -0.079596
      7 C                    -0.313431
      8 C                    -1.988459
      9 S                     0.634845
     10 O                    -0.075794
     11 C                    -1.988400
     12 C                    -0.313349
     13 C                    -0.079620
     14 C                    -0.608106
     15 C                     0.221651
     16 C                     2.118735
     17 H                     0.221499
     18 H                     0.229898
     19 H                     0.237138
     20 H                     0.251793
     21 H                     0.251800
     22 H                     0.237135
     23 H                     0.229889
     24 H                     0.221481
     25 O                    -0.242178
  ----------------------------------------
  Sum of atomic charges =     0.000000

                    Cartesian Multipole Moments
 -----------------------------------------------------------------
    Charge (ESU x 10^10)
                -0.0000
    Dipole Moment (Debye)
         X      -0.0167      Y      -3.1714      Z       3.3182
       Tot       4.5900
    Quadrupole Moments (Debye-Ang)
        XX     -62.4828     XY       0.0461     YY    -120.1628
        XZ       0.1714     YZ      -0.3079     ZZ    -113.4410

 Total job time:  51.55s(wall), 357.08s(cpu)
        *  Thank you very much for using Q-Chem.  Have a nice day.  *
