 Gaussian 16, Revision A.03,
 Gaussian 16:  ES64L-G16RevA.03 25-Dec-2016

 --------------------------------------
 #P UB3LYP/6-311++G(d,p) nosym opt freq
 --------------------------------------

 --------
 Oxidized
 --------
 Symbolic Z-matrix:
 Charge =  0 Multiplicity = 1

 SCF Done:  E(UB3LYP) =  -1124.20897627     A.U. after   16 cycles
 SCF Done:  E(UB3LYP) =  -1124.20897469     A.U. after   11 cycles
 SCF Done:  E(UB3LYP) =  -1124.20897682     A.U. after   10 cycles
 SCF Done:  E(UB3LYP) =  -1124.20897751     A.U. after   10 cycles
 SCF Done:  E(UB3LYP) =  -1124.20895780     A.U. after   16 cycles
 SCF Done:  E(UB3LYP) =  -1124.20904435     A.U. after   14 cycles
 SCF Done:  E(UB3LYP) =  -1124.20884251     A.U. after   16 cycles
 SCF Done:  E(UB3LYP) =  -1124.20945409     A.U. after   16 cycles
 SCF Done:  E(UB3LYP) =  -1124.20532863     A.U. after   18 cycles
 SCF Done:  E(UB3LYP) =  -1124.20973739     A.U. after   14 cycles
 SCF Done:  E(UB3LYP) =  -1124.21010734     A.U. after   16 cycles
 SCF Done:  E(UB3LYP) =  -1124.21017701     A.U. after   14 cycles
 SCF Done:  E(UB3LYP) =  -1124.21018696     A.U. after   12 cycles
 SCF Done:  E(UB3LYP) =  -1124.21018704     A.U. after   12 cycles
 Optimization completed.
    -- Stationary point found.
 Normal termination of Gaussian 16 at Tue Jan  9 21:37:05 2024.

 ----------------------------------------------------------------------
 #P Geom=AllCheck Guess=TCheck SCRF=Check GenChk UB3LYP/6-311++G(d,p) F
 req
 ----------------------------------------------------------------------

 Structure from the checkpoint file:  "339.chk"
 --------
 Oxidized
 --------
 Charge =  0 Multiplicity = 1

                          Input orientation:
 ---------------------------------------------------------------------
 Center     Atomic      Atomic             Coordinates (Angstroms)
 Number     Number       Type             X           Y           Z
 ---------------------------------------------------------------------
      1          8           0       -0.018184   -2.378606   -0.698458
      2          6           0       -0.019932   -1.249521   -0.242153
      3          6           0        1.271780   -0.568105    0.093664
      4          6           0        2.432105   -1.349740    0.155876
      5          6           0        3.647073   -0.786532    0.527329
      6          6           0        3.723731    0.568620    0.851244
      7          6           0        2.584438    1.366869    0.792217
      8          6           0        1.375886    0.792006    0.413901
      9         16           0       -0.020825    1.897753    0.186283
     10          8           0       -0.014118    2.360531   -1.205080
     11          6           0       -1.420402    0.792999    0.400751
     12          6           0       -2.632048    1.368726    0.767682
     13          6           0       -3.772418    0.571294    0.815980
     14          6           0       -3.693685   -0.783913    0.492792
     15          6           0       -2.475679   -1.347990    0.132785
     16          6           0       -1.314261   -0.567187    0.081499
     17          1           0        2.350777   -2.402353   -0.084699
     18          1           0        4.535681   -1.405170    0.572338
     19          1           0        4.669033    1.005305    1.151547
     20          1           0        2.625672    2.420300    1.040671
     21          1           0       -2.674864    2.422187    1.015742
     22          1           0       -4.720191    1.008655    1.107377
     23          1           0       -4.583121   -1.401914    0.529430
     24          1           0       -2.392848   -2.400662   -0.107022
     25          8           0       -0.025548    2.890234    1.265386
 ---------------------------------------------------------------------

 SCF Done:  E(UB3LYP) =  -1124.21018704     A.U. after    2 cycles

 Alpha  occ. eigenvalues --  -89.06634 -19.13910 -19.12982 -19.12703 -10.29553
 Alpha  occ. eigenvalues --  -10.24047 -10.24047 -10.22752 -10.22752 -10.21729
 Alpha  occ. eigenvalues --  -10.21729 -10.21577 -10.21577 -10.21281 -10.21281
 Alpha  occ. eigenvalues --  -10.21201 -10.21201  -8.13054  -6.09281  -6.09219
 Alpha  occ. eigenvalues --   -6.09213  -1.12526  -1.07525  -1.01751  -0.91093
 Alpha  occ. eigenvalues --   -0.90141  -0.82650  -0.79997  -0.79560  -0.79008
 Alpha  occ. eigenvalues --   -0.71796  -0.68780  -0.66211  -0.63792  -0.61755
 Alpha  occ. eigenvalues --   -0.58456  -0.58298  -0.52941  -0.51421  -0.50608
 Alpha  occ. eigenvalues --   -0.50605  -0.49086  -0.47315  -0.47309  -0.46686
 Alpha  occ. eigenvalues --   -0.46564  -0.45814  -0.44596  -0.41800  -0.41274
 Alpha  occ. eigenvalues --   -0.40058  -0.39444  -0.39352  -0.39175  -0.34597
 Alpha  occ. eigenvalues --   -0.34382  -0.33259  -0.31537  -0.29574  -0.29526
 Alpha  occ. eigenvalues --   -0.29112  -0.28759  -0.28722
 Alpha virt. eigenvalues --   -0.11387  -0.06622  -0.05318  -0.04427  -0.01529
 Alpha virt. eigenvalues --   -0.01022   0.00645   0.01148   0.01208   0.01620
 Alpha virt. eigenvalues --    0.02580   0.03336   0.03444   0.03885   0.04909

  Beta  occ. eigenvalues --  -89.06634 -19.13910 -19.12982 -19.12703 -10.29553
  Beta  occ. eigenvalues --  -10.24047 -10.24047 -10.22752 -10.22752 -10.21729
  Beta  occ. eigenvalues --  -10.21729 -10.21577 -10.21577 -10.21281 -10.21281
  Beta  occ. eigenvalues --  -10.21201 -10.21201  -8.13054  -6.09281  -6.09219
  Beta  occ. eigenvalues --   -6.09213  -1.12526  -1.07525  -1.01751  -0.91093
  Beta  occ. eigenvalues --   -0.90141  -0.82650  -0.79997  -0.79560  -0.79008
  Beta  occ. eigenvalues --   -0.71796  -0.68780  -0.66211  -0.63792  -0.61755
  Beta  occ. eigenvalues --   -0.58456  -0.58298  -0.52941  -0.51421  -0.50608
  Beta  occ. eigenvalues --   -0.50605  -0.49086  -0.47315  -0.47309  -0.46686
  Beta  occ. eigenvalues --   -0.46564  -0.45814  -0.44596  -0.41800  -0.41274
  Beta  occ. eigenvalues --   -0.40058  -0.39444  -0.39352  -0.39175  -0.34597
  Beta  occ. eigenvalues --   -0.34382  -0.33259  -0.31537  -0.29574  -0.29526
  Beta  occ. eigenvalues --   -0.29112  -0.28759  -0.28722
  Beta virt. eigenvalues --   -0.11387  -0.06622  -0.05318  -0.04427  -0.01529
  Beta virt. eigenvalues --   -0.01022   0.00645   0.01148   0.01208   0.01620
  Beta virt. eigenvalues --    0.02580   0.03336   0.03444   0.03885   0.04909

 Mulliken charges and spin densities:
               1          2
     1  O   -0.195665   0.000000
     2  C   -0.612597  -0.000000
     3  C    2.052113   0.000000
     4  C    0.220477  -0.000000
     5  C   -0.554133   0.000000
     6  C   -0.008591  -0.000000
     7  C   -0.312216  -0.000000
     8  C   -2.005409  -0.000000
     9  S    0.557751  -0.000000
    10  O    0.030130  -0.000000
    11  C   -2.005385  -0.000000
    12  C   -0.312221   0.000000
    13  C   -0.008608   0.000000
    14  C   -0.554117  -0.000000
    15  C    0.220448   0.000000
    16  C    2.052123  -0.000000
    17  H    0.204468  -0.000000
    18  H    0.180317   0.000000
    19  H    0.187261  -0.000000
    20  H    0.221584  -0.000000
    21  H    0.221584   0.000000
    22  H    0.187261   0.000000
    23  H    0.180317   0.000000
    24  H    0.204468   0.000000
    25  O   -0.151361  -0.000000
 Sum of Mulliken charges =  -0.00000   0.00000

 Dipole moment (field-independent basis, Debye):
    X=             -0.0122    Y=             -2.3901    Z=              2.4014  Tot=              3.3881
 Quadrupole moment (field-independent basis, Debye-Ang):
   XX=            -72.8084   YY=           -117.1221   ZZ=           -112.8417
   XY=              0.0343   XZ=              0.1388   YZ=             -0.1590

  Exact polarizability: 243.697  -0.103 182.775   0.662  17.289 104.287
 Approx polarizability: 349.369  -0.210 337.382   0.788  43.730 185.268

                      1                      2                      3
                      A                      A                      A
 Frequencies --     34.2697                99.6653               102.6965
 Red. masses --      7.4777                 4.4077                 5.8402
 Frc consts  --      0.0052                 0.0258                 0.0363
 IR Inten    --      6.6133                 0.0045                 0.3766

                      4                      5                      6
                      A                      A                      A
 Frequencies --    135.7375               161.3058               207.2749
 Red. masses --      7.0249                 7.1344                 5.5301
 Frc consts  --      0.0763                 0.1094                 0.1400
 IR Inten    --      0.4134                 0.5329                 0.8975

                      7                      8                      9
                      A                      A                      A
 Frequencies --    243.3218               287.1893               302.3929
 Red. masses --      7.6861                 5.9872                 7.7295
 Frc consts  --      0.2681                 0.2909                 0.4164
 IR Inten    --      2.9295                 1.3676                 0.8632

                     10                     11                     12
                      A                      A                      A
 Frequencies --    333.9727               335.6375               363.1912
 Red. masses --      7.7714                 7.6683                 6.8902
 Frc consts  --      0.5107                 0.5090                 0.5355
 IR Inten    --      8.8892                 1.4827                 2.8038

                     13                     14                     15
                      A                      A                      A
 Frequencies --    399.5652               413.5512               451.6160
 Red. masses --      9.3967                 3.8821                 3.6035
 Frc consts  --      0.8839                 0.3912                 0.4330
 IR Inten    --     16.2651                 0.7817                 2.0555

                     16                     17                     18
                      A                      A                      A
 Frequencies --    496.4887               512.3907               551.0220
 Red. masses --      4.3418                 9.8670                 5.2788
 Frc consts  --      0.6306                 1.5263                 0.9443
 IR Inten    --      1.1926                26.7953                31.8200

                     19                     20                     21
                      A                      A                      A
 Frequencies --    592.3208               596.3293               645.7172
 Red. masses --     10.6604                 6.8439                 7.0493
 Frc consts  --      2.2036                 1.4339                 1.7317
 IR Inten    --     67.3577                 4.8474                 1.5448

                     22                     23                     24
                      A                      A                      A
 Frequencies --    672.7739               692.7773               721.8592
 Red. masses --      6.2565                 4.0330                 4.5631
 Frc consts  --      1.6685                 1.1404                 1.4009
 IR Inten    --      1.8092                36.2430                18.8632

                     25                     26                     27
                      A                      A                      A
 Frequencies --    752.3205               766.5807               771.3212
 Red. masses --      5.3988                 1.8709                 5.4000
 Frc consts  --      1.8003                 0.6478                 1.8929
 IR Inten    --     79.1653                60.6486                 4.6533

                     28                     29                     30
                      A                      A                      A
 Frequencies --    777.8831               820.9546               899.9888
 Red. masses --      1.2954                 2.5326                 1.3197
 Frc consts  --      0.4618                 1.0057                 0.6298
 IR Inten    --      0.4765                16.4145                 0.0168

                     31                     32                     33
                      A                      A                      A
 Frequencies --    908.4575               939.7108               989.0098
 Red. masses --      1.4410                 6.8689                 1.3655
 Frc consts  --      0.7007                 3.5737                 0.7869
 IR Inten    --      1.1191                51.0710                 0.4845

                     34                     35                     36
                      A                      A                      A
 Frequencies --    991.7651              1013.9476              1015.3339
 Red. masses --      1.3861                 1.3283                 1.3351
 Frc consts  --      0.8033                 0.8046                 0.8110
 IR Inten    --      1.8480                 1.4586                 0.3700

                     37                     38                     39
                      A                      A                      A
 Frequencies --   1047.4077              1055.1030              1058.0728
 Red. masses --      8.1976                 2.5502                 2.6991
 Frc consts  --      5.2987                 1.6727                 1.7803
 IR Inten    --     47.0512                12.0451                 0.9438

                     40                     41                     42
                      A                      A                      A
 Frequencies --   1081.7919              1119.4816              1146.9870
 Red. masses --      2.9182                 5.5575                 1.8617
 Frc consts  --      2.0121                 4.1036                 1.4430
 IR Inten    --      3.2129               102.1970                75.8076

                     43                     44                     45
                      A                      A                      A
 Frequencies --   1151.1218              1181.1104              1188.1311
 Red. masses --      2.0112                 1.8275                 1.1325
 Frc consts  --      1.5702                 1.5021                 0.9419
 IR Inten    --     33.7034                 9.0192                 0.2582

                     46                     47                     48
                      A                      A                      A
 Frequencies --   1191.2738              1253.7897              1267.8297
 Red. masses --      1.3364                 1.7839                18.2563
 Frc consts  --      1.1174                 1.6522                17.2896
 IR Inten    --      1.0820                79.5193               179.8084

                     49                     50                     51
                      A                      A                      A
 Frequencies --   1289.4085              1309.3753              1335.7900
 Red. masses --      1.5545                 2.7674                 7.3816
 Frc consts  --      1.5228                 2.7954                 7.7602
 IR Inten    --      1.9772               227.8055                 1.1490

                     52                     53                     54
                      A                      A                      A
 Frequencies --   1347.8900              1469.9804              1470.9904
 Red. masses --      7.4406                 2.1350                 2.1319
 Frc consts  --      7.9646                 2.7182                 2.7179
 IR Inten    --      3.1840                19.9443                 4.9557

                     55                     56                     57
                      A                      A                      A
 Frequencies --   1491.9327              1501.2113              1602.7333
 Red. masses --      2.4528                 2.3980                 5.8441
 Frc consts  --      3.2167                 3.1840                 8.8449
 IR Inten    --      0.0199                 0.5071                 1.2926

                     58                     59                     60
                      A                      A                      A
 Frequencies --   1609.8676              1625.5865              1631.2132
 Red. masses --      5.8981                 5.5709                 6.2514
 Frc consts  --      9.0062                 8.6736                 9.8005
 IR Inten    --     26.8442                28.6116                12.3164

                     61                     62                     63
                      A                      A                      A
 Frequencies --   1726.1094              3175.8893              3175.9315
 Red. masses --     12.4429                 1.0871                 1.0871
 Frc consts  --     21.8428                 6.4601                 6.4604
 IR Inten    --    198.5363                 0.0222                 5.4657

                     64                     65                     66
                      A                      A                      A
 Frequencies --   3188.7319              3188.8614              3199.3496
 Red. masses --      1.0910                 1.0911                 1.0940
 Frc consts  --      6.5359                 6.5370                 6.5979
 IR Inten    --      9.2508                 0.3379                 3.8799

                     67                     68                     69
                      A                      A                      A
 Frequencies --   3199.6561              3204.2311              3204.6699
 Red. masses --      1.0942                 1.0950                 1.0951
 Frc consts  --      6.6001                 6.6239                 6.6264
 IR Inten    --      0.3016                14.3694                 0.4457

 - Thermochemistry -
 -------------------
 Temperature   298.150 Kelvin.  Pressure   1.00000 Atm.
 Atom     1 has atomic number  8 and mass  15.99491

 Molecular mass:   244.01942 amu.
 Principal axes and moments of inertia in atomic units:
                           1         2         3
     Eigenvalues --  2375.355894454.493576256.80877
           X            0.99999  -0.00027  -0.00471
           Y           -0.00036   0.99131  -0.13158
           Z            0.00470   0.13158   0.99129
 This molecule is an asymmetric top.
 Rotational symmetry number  1.
 Warning -- assumption of classical behavior for rotation
           may cause significant error
 Rotational temperatures (Kelvin)      0.03646     0.01944     0.01384
 Rotational constants (GHZ):           0.75978     0.40515     0.28844
 Zero-point vibrational energy     470681.8 (Joules/Mol)
                                  112.49565 (Kcal/Mol)
 Warning -- explicit consideration of  20 degrees of freedom as
           vibrations may cause significant error
 Vibrational temperatures:     49.31   143.40   147.76   195.30   232.08
          (Kelvin)            298.22   350.09   413.20   435.08   480.51
                              482.91   522.55   574.89   595.01   649.77
                              714.34   737.22   792.80   852.22   857.98
                              929.04   967.97   996.75  1038.59  1082.42
                             1102.94  1109.76  1119.20  1181.17  1294.88
                             1307.07  1352.03  1422.96  1426.93  1458.84
                             1460.84  1506.99  1518.06  1522.33  1556.46
                             1610.68  1650.26  1656.21  1699.35  1709.46
                             1713.98  1803.92  1824.12  1855.17  1883.90
                             1921.90  1939.31  2114.97  2116.43  2146.56
                             2159.91  2305.98  2316.24  2338.86  2346.95
                             2483.49  4569.40  4569.46  4587.87  4588.06
                             4603.15  4603.59  4610.17  4610.81

 Zero-point correction=                           0.179273 (Hartree/Particle)
 Thermal correction to Energy=                    0.192102
 Thermal correction to Enthalpy=                  0.193046
 Thermal correction to Gibbs Free Energy=         0.139567
 Sum of electronic and zero-point Energies=          -1124.030914
 Sum of electronic and thermal Energies=             -1124.018085
 Sum of electronic and thermal Enthalpies=           -1124.017141
 Sum of electronic and thermal Free Energies=        -1124.070620

                     E (Thermal)             CV                S
                      KCal/Mol        Cal/Mol-Kelvin    Cal/Mol-Kelvin
 Total                  120.546             51.271            112.556
 Electronic               0.000              0.000              0.000
 Translational            0.889              2.981             42.377
 Rotational               0.889              2.981             32.559
 Vibrational            118.768             45.309             37.619
 Vibration     1          0.594              1.983              5.566
 Vibration     2          0.604              1.949              3.461
 Vibration     3          0.605              1.947              3.402
 Vibration     4          0.614              1.918              2.863
 Vibration     5          0.622              1.890              2.534
 Vibration     6          0.641              1.829              2.068
 Vibration     7          0.659              1.774              1.778
 Vibration     8          0.684              1.698              1.490
 Vibration     9          0.694              1.669              1.404
 Vibration    10          0.715              1.608              1.241
 Vibration    11          0.717              1.604              1.233
 Vibration    12          0.737              1.548              1.108
 Vibration    13          0.766              1.471              0.964
 Vibration    14          0.777              1.441              0.914
 Vibration    15          0.810              1.357              0.791
 Vibration    16          0.852              1.258              0.667
 Vibration    17          0.867              1.223              0.628
 Vibration    18          0.906              1.137              0.542
 Vibration    19          0.950              1.048              0.463
 Vibration    20          0.954              1.040              0.456

 Optimization completed.
    -- Stationary point found.
 Normal termination of Gaussian 16 at Tue Jan  9 22:28:19 2024.
