 Gaussian 16, Revision A.03,
 Gaussian 16:  ES64L-G16RevA.03 25-Dec-2016

 ----------------------------------------------------------------------
 #P UB3LYP/6-311++G(d,p) nosym opt freq SCRF=(PCM,Solvent=n,n-DiMethylF
 ormamide)
 ----------------------------------------------------------------------

 -------
 Radical
 -------
 Symbolic Z-matrix:
 Charge = -1 Multiplicity = 2

 SCF Done:  E(UB3LYP) =  -10675.8796842     A.U. after   18 cycles
 SCF Done:  E(UB3LYP) =  -10675.8800089     A.U. after   14 cycles
 SCF Done:  E(UB3LYP) =  -10675.8800566     A.U. after   13 cycles
 SCF Done:  E(UB3LYP) =  -10675.8800585     A.U. after   12 cycles
 SCF Done:  E(UB3LYP) =  -10675.8800594     A.U. after   11 cycles
 Optimization completed.
    -- Stationary point found.
 Normal termination of Gaussian 16 at Sun Feb 11 15:19:02 2024.

 ----------------------------------------------------------------------
 #P Geom=AllCheck Guess=TCheck SCRF=Check GenChk UB3LYP/6-311++G(d,p) F
 req
 ----------------------------------------------------------------------

 Structure from the checkpoint file:  "318-rad.chk"
 -------
 Radical
 -------
 Charge = -1 Multiplicity = 2

                          Input orientation:
 ---------------------------------------------------------------------
 Center     Atomic      Atomic             Coordinates (Angstroms)
 Number     Number       Type             X           Y           Z
 ---------------------------------------------------------------------
      1         35           0       -2.333999    2.126603    0.804432
      2          6           0       -0.987230    0.852289    0.335596
      3          6           0       -1.299585   -0.490528    0.253400
      4         35           0       -3.063610   -1.150897    0.598125
      5          6           0       -0.325453   -1.500407   -0.097127
      6          8           0       -0.593486   -2.714690   -0.171023
      7          6           0        1.076943   -1.030973   -0.380273
      8          8           0        1.952598   -1.861248   -0.689863
      9          6           0        1.329554    0.388869   -0.272729
     10          6           0        0.348571    1.298848    0.069399
     11         35           0        0.764433    3.161446    0.191533
     12         35           0        3.131265    0.920690   -0.641467
 ---------------------------------------------------------------------

 SCF Done:  E(UB3LYP) =  -10675.8800594     A.U. after    1 cycles

 Alpha  occ. eigenvalues -- -482.84309-482.84309-482.83460-482.83457 -62.49587
 Alpha  occ. eigenvalues --  -62.49587 -62.48733 -62.48730 -56.31636 -56.31635
 Alpha  occ. eigenvalues --  -56.31246 -56.31245 -56.31202 -56.31202 -56.30772
 Alpha  occ. eigenvalues --  -56.30769 -56.30395 -56.30392 -56.30354 -56.30351
 Alpha  occ. eigenvalues --  -19.10074 -19.10072 -10.25791 -10.25751 -10.24855
 Alpha  occ. eigenvalues --  -10.24829 -10.23755 -10.23750  -8.70564  -8.70563
 Alpha  occ. eigenvalues --   -8.69701  -8.69698  -6.53741  -6.53740  -6.52850
 Alpha  occ. eigenvalues --   -6.52847  -6.52434  -6.52434  -6.52324  -6.52324
 Alpha  occ. eigenvalues --   -6.51589  -6.51587  -6.51475  -6.51473  -2.64829
 Alpha  occ. eigenvalues --   -2.64828  -2.64474  -2.64473  -2.64393  -2.64393
 Alpha  occ. eigenvalues --   -2.63943  -2.63940  -2.63601  -2.63599  -2.63516
 Alpha  occ. eigenvalues --   -2.63513  -2.63349  -2.63349  -2.63349  -2.63349
 Alpha  occ. eigenvalues --   -2.62511  -2.62510  -2.62508  -2.62507  -1.04207
 Alpha  occ. eigenvalues --   -1.01257  -0.90038  -0.84260  -0.81432  -0.79347
 Alpha  occ. eigenvalues --   -0.77943  -0.70890  -0.69813  -0.58991  -0.58842
 Alpha  occ. eigenvalues --   -0.52611  -0.47919  -0.45012  -0.44495  -0.42855
 Alpha  occ. eigenvalues --   -0.42089  -0.40291  -0.39230  -0.38878  -0.38463
 Alpha  occ. eigenvalues --   -0.33694  -0.32975  -0.31719  -0.31392  -0.30761
 Alpha  occ. eigenvalues --   -0.29046  -0.28790  -0.28717  -0.26128  -0.25103
 Alpha  occ. eigenvalues --   -0.23825  -0.18903
 Alpha virt. eigenvalues --   -0.06727  -0.01919  -0.01914  -0.01751   0.00049
 Alpha virt. eigenvalues --    0.00309   0.00855   0.02358   0.02919   0.03769
 Alpha virt. eigenvalues --    0.04607   0.05023   0.05148   0.05835   0.05916

  Beta  occ. eigenvalues -- -482.84305-482.84305-482.83458-482.83455 -62.49584
  Beta  occ. eigenvalues --  -62.49584 -62.48731 -62.48728 -56.31636 -56.31636
  Beta  occ. eigenvalues --  -56.31234 -56.31233 -56.31200 -56.31200 -56.30773
  Beta  occ. eigenvalues --  -56.30770 -56.30389 -56.30386 -56.30354 -56.30351
  Beta  occ. eigenvalues --  -19.09440 -19.09438 -10.25620 -10.25581 -10.24760
  Beta  occ. eigenvalues --  -10.24735 -10.23663 -10.23658  -8.70558  -8.70557
  Beta  occ. eigenvalues --   -8.69698  -8.69696  -6.53743  -6.53743  -6.52852
  Beta  occ. eigenvalues --   -6.52849  -6.52413  -6.52413  -6.52322  -6.52321
  Beta  occ. eigenvalues --   -6.51578  -6.51575  -6.51474  -6.51472  -2.64828
  Beta  occ. eigenvalues --   -2.64827  -2.64463  -2.64463  -2.64394  -2.64394
  Beta  occ. eigenvalues --   -2.63943  -2.63940  -2.63596  -2.63594  -2.63518
  Beta  occ. eigenvalues --   -2.63515  -2.63338  -2.63338  -2.63338  -2.63337
  Beta  occ. eigenvalues --   -2.62505  -2.62504  -2.62502  -2.62502  -1.03155
  Beta  occ. eigenvalues --   -1.00087  -0.89609  -0.84096  -0.81200  -0.79258
  Beta  occ. eigenvalues --   -0.77730  -0.70641  -0.68956  -0.58581  -0.58346
  Beta  occ. eigenvalues --   -0.52389  -0.47632  -0.43958  -0.43385  -0.42302
  Beta  occ. eigenvalues --   -0.41973  -0.40026  -0.38722  -0.37467  -0.36929
  Beta  occ. eigenvalues --   -0.32929  -0.32138  -0.31322  -0.31298  -0.30244
  Beta  occ. eigenvalues --   -0.29024  -0.28324  -0.27999  -0.25889  -0.24521
  Beta  occ. eigenvalues --   -0.22676
  Beta virt. eigenvalues --   -0.12163  -0.06594  -0.01827   0.00036   0.00089
  Beta virt. eigenvalues --    0.00269   0.00517   0.00921   0.02376   0.02969
  Beta virt. eigenvalues --    0.03792   0.04649   0.05063   0.05158   0.05856

 Mulliken charges and spin densities:
               1          2
     1  Br  -0.111768   0.011590
     2  C   -0.472341   0.082025
     3  C    0.746476   0.076463
     4  Br  -0.101299   0.006514
     5  C   -0.166283   0.086745
     6  O   -0.395061   0.236639
     7  C   -0.166539   0.086735
     8  O   -0.394939   0.236606
     9  C    0.746566   0.076442
    10  C   -0.471830   0.082108
    11  Br  -0.111790   0.011601
    12  Br  -0.101194   0.006532
 Sum of Mulliken charges =  -1.00000   1.00000

 Dipole moment (field-independent basis, Debye):
    X=             -2.3033    Y=              7.7575    Z=              1.4578  Tot=              8.2225
 Quadrupole moment (field-independent basis, Debye-Ang):
   XX=           -138.3742   YY=           -149.0400   ZZ=           -122.5862
   XY=              2.7822   XZ=              4.5032   YZ=             -3.9294

  Exact polarizability: 314.274  12.316 301.070 -44.163  17.782 136.624
 Approx polarizability: 327.958   3.514 340.636 -43.837  22.270 156.404

                      1                      2                      3
                      A                      A                      A
 Frequencies --     33.8917                48.7561                76.5124
 Red. masses --     51.8943                26.3739                17.8620
 Frc consts  --      0.0351                 0.0369                 0.0616
 IR Inten    --      0.0009                 5.0908                 0.0038

                      4                      5                      6
                      A                      A                      A
 Frequencies --    138.6626               140.0302               150.5278
 Red. masses --     67.7684                50.2503                74.7697
 Frc consts  --      0.7677                 0.5805                 0.9982
 IR Inten    --      0.8963                 2.5207                 0.2578

                      7                      8                      9
                      A                      A                      A
 Frequencies --    161.6771               201.9688               212.0605
 Red. masses --     13.3361                63.3955                62.7539
 Frc consts  --      0.2054                 1.5236                 1.6627
 IR Inten    --      2.2059                 0.4883                 3.6915

                     10                     11                     12
                      A                      A                      A
 Frequencies --    253.7362               282.0942               325.6688
 Red. masses --     19.1844                12.3160                19.1238
 Frc consts  --      0.7277                 0.5774                 1.1950
 IR Inten    --      4.9441                 0.0002                 0.1616

                     13                     14                     15
                      A                      A                      A
 Frequencies --    361.7361               392.5423               425.0282
 Red. masses --     12.4026                15.8039                15.2819
 Frc consts  --      0.9562                 1.4348                 1.6265
 IR Inten    --      6.9241                 5.3400                 0.2839

                     16                     17                     18
                      A                      A                      A
 Frequencies --    551.8833               570.9136               590.6191
 Red. masses --     12.0317                12.2013                13.2658
 Frc consts  --      2.1591                 2.3431                 2.7265
 IR Inten    --      0.0043                14.2307               160.4847

                     19                     20                     21
                      A                      A                      A
 Frequencies --    713.4091               717.3561               763.7978
 Red. masses --     12.7453                12.7065                12.1846
 Frc consts  --      3.8219                 3.8525                 4.1881
 IR Inten    --     79.9849               110.4041                 0.0033

                     22                     23                     24
                      A                      A                      A
 Frequencies --    875.2638               923.5642              1145.6466
 Red. masses --     12.6781                12.3837                12.0402
 Frc consts  --      5.7224                 6.2235                 9.3108
 IR Inten    --      0.3678                48.8537                37.8853

                     25                     26                     27
                      A                      A                      A
 Frequencies --   1184.3408              1270.8767              1435.7657
 Red. masses --     12.1936                12.0435                12.0890
 Frc consts  --     10.0771                11.4607                14.6827
 IR Inten    --    144.3792               138.3936               121.5912

                     28                     29                     30
                      A                      A                      A
 Frequencies --   1481.5295              1541.3927              1554.6588
 Red. masses --     12.0073                13.0803                13.0925
 Frc consts  --     15.5281                18.3102                18.6441
 IR Inten    --      2.0212               270.1609              1286.8316

 - Thermochemistry -
 -------------------
 Temperature   298.150 Kelvin.  Pressure   1.00000 Atm.
 Atom     1 has atomic number 35 and mass  78.91834

 Molecular mass:   419.66317 amu.
 Principal axes and moments of inertia in atomic units:
                           1         2         3
     Eigenvalues --  4393.314598262.37744**********
           X            0.93184  -0.27987   0.23096
           Y            0.31147   0.94346  -0.11342
           Z           -0.18616   0.17763   0.96633
 This molecule is an asymmetric top.
 Rotational symmetry number  1.
 Warning -- assumption of classical behavior for rotation
           may cause significant error
 Rotational temperatures (Kelvin)      0.01971     0.01048     0.00684
 Rotational constants (GHZ):           0.41079     0.21843     0.14260
 Zero-point vibrational energy     110809.6 (Joules/Mol)
                                   26.48412 (Kcal/Mol)
 Warning -- explicit consideration of  18 degrees of freedom as
           vibrations may cause significant error
 Vibrational temperatures:     48.76    70.15   110.08   199.50   201.47
          (Kelvin)            216.58   232.62   290.59   305.11   365.07
                              405.87   468.56   520.46   564.78   611.52
                              794.04   821.42   849.77  1026.44  1032.12
                             1098.93  1259.31  1328.80  1648.33  1704.00
                             1828.51  2065.75  2131.59  2217.72  2236.81

 Zero-point correction=                           0.042205 (Hartree/Particle)
 Thermal correction to Energy=                    0.054491
 Thermal correction to Enthalpy=                  0.055436
 Thermal correction to Gibbs Free Energy=        -0.001351
 Sum of electronic and zero-point Energies=         -10675.837854
 Sum of electronic and thermal Energies=            -10675.825568
 Sum of electronic and thermal Enthalpies=          -10675.824624
 Sum of electronic and thermal Free Energies=       -10675.881410

                     E (Thermal)             CV                S
                      KCal/Mol        Cal/Mol-Kelvin    Cal/Mol-Kelvin
 Total                   34.194             40.225            119.517
 Electronic               0.000              0.000              1.377
 Translational            0.889              2.981             43.993
 Rotational               0.889              2.981             34.484
 Vibrational             32.416             34.264             39.662
 Vibration     1          0.594              1.983              5.588
 Vibration     2          0.595              1.978              4.867
 Vibration     3          0.599              1.965              3.978
 Vibration     4          0.614              1.915              2.822
 Vibration     5          0.615              1.913              2.803
 Vibration     6          0.618              1.902              2.666
 Vibration     7          0.622              1.889              2.530
 Vibration     8          0.639              1.837              2.115
 Vibration     9          0.643              1.823              2.026
 Vibration    10          0.665              1.756              1.704
 Vibration    11          0.681              1.707              1.521
 Vibration    12          0.710              1.624              1.281
 Vibration    13          0.736              1.551              1.115
 Vibration    14          0.760              1.486              0.990
 Vibration    15          0.787              1.416              0.875
 Vibration    16          0.907              1.136              0.540
 Vibration    17          0.927              1.094              0.502
 Vibration    18          0.948              1.052              0.466

 Optimization completed.
    -- Stationary point found.
 Normal termination of Gaussian 16 at Sun Feb 11 15:43:02 2024.
