 Q-Chem 5.4, Q-Chem, Inc., Pleasanton, CA (2021)
 Q-Chem 5.4.0 for Intel X86 EM64T Linux

User input:
--------------------------------------------------------------
$molecule
-2 1
C                 -1.2517340000      2.8555330000      0.2604250000
C                 -2.5893440000      2.4779280000      0.1724600000
C                 -2.9445290000      1.1339150000     -0.0800800000
C                 -0.1876550000      1.9257370000      0.1033800000
C                 -0.5789610000      0.5493530000     -0.1836210000
C                 -1.9575340000      0.1863930000     -0.2299740000
C                  1.2349390000      2.2984180000      0.1757860000
C                  2.1225230000      1.2228500000     -0.1359350000
C                  1.7238980000     -0.0795960000     -0.4521810000
C                  0.3714990000     -0.4852020000     -0.4972160000
O                  1.6647210000      3.4656670000      0.4841070000
O                 -0.0336620000     -1.6840730000     -0.8144690000
O                 -0.9760990000      4.1900580000      0.5011670000
H                 -3.9914920000      0.8464870000     -0.1264460000
H                  2.4762060000     -0.8328970000     -0.6884290000
C                 -2.3578730000     -1.2430470000     -0.4057010000
O                 -3.0082700000     -1.6982690000     -1.3310120000
O                 -2.2114320000     -1.9549560000      0.7722420000
C                 -2.1688500000     -3.3645870000      0.6003080000
H                 -3.3639650000      3.2288010000      0.3295140000
H                  3.1832210000      1.4710750000     -0.1107160000
H                 -1.8184910000      4.6512720000      0.4082430000
H                 -2.0277610000     -3.7891390000      1.5982830000
H                 -1.3175140000     -3.6096430000     -0.0410770000
H                 -3.0962910000     -3.7482210000      0.1595320000
$end

$rem
BASIS  =  6-311++G(d,p)
GUI  =  2
JOB_TYPE  =  SP
METHOD  =  B3LYP
SCF_CONVERGENCE  = 8
SOLVENT_METHOD = sm12
$end

$smx
solvent dimethylformamide
charges CM5
$end

--------------------------------------------------------------

             Standard Nuclear Orientation (Angstroms)
    I     Atom           X                Y                Z
 ----------------------------------------------------------------
    1      C      -1.2517340000     2.8555330000     0.2604250000
    2      C      -2.5893440000     2.4779280000     0.1724600000
    3      C      -2.9445290000     1.1339150000    -0.0800800000
    4      C      -0.1876550000     1.9257370000     0.1033800000
    5      C      -0.5789610000     0.5493530000    -0.1836210000
    6      C      -1.9575340000     0.1863930000    -0.2299740000
    7      C       1.2349390000     2.2984180000     0.1757860000
    8      C       2.1225230000     1.2228500000    -0.1359350000
    9      C       1.7238980000    -0.0795960000    -0.4521810000
   10      C       0.3714990000    -0.4852020000    -0.4972160000
   11      O       1.6647210000     3.4656670000     0.4841070000
   12      O      -0.0336620000    -1.6840730000    -0.8144690000
   13      O      -0.9760990000     4.1900580000     0.5011670000
   14      H      -3.9914920000     0.8464870000    -0.1264460000
   15      H       2.4762060000    -0.8328970000    -0.6884290000
   16      C      -2.3578730000    -1.2430470000    -0.4057010000
   17      O      -3.0082700000    -1.6982690000    -1.3310120000
   18      O      -2.2114320000    -1.9549560000     0.7722420000
   19      C      -2.1688500000    -3.3645870000     0.6003080000
   20      H      -3.3639650000     3.2288010000     0.3295140000
   21      H       3.1832210000     1.4710750000    -0.1107160000
   22      H      -1.8184910000     4.6512720000     0.4082430000
   23      H      -2.0277610000    -3.7891390000     1.5982830000
   24      H      -1.3175140000    -3.6096430000    -0.0410770000
   25      H      -3.0962910000    -3.7482210000     0.1595320000
 ----------------------------------------------------------------

   19    -838.4060378555      5.76e-09  Convergence criterion met
 Total energy in the final basis set =     -838.6939886773

                    Orbital Energies (a.u.)
 --------------------------------------------------------------

 Alpha MOs
 -- Occupied --
-19.1464 -19.1398 -19.0942 -19.0247 -19.0195 -10.2920 -10.2348 -10.2086
-10.1900 -10.1805 -10.1763 -10.1712 -10.1680 -10.1627 -10.1605 -10.1436
-10.1381  -1.0805  -1.0545  -0.9978  -0.9395  -0.9362  -0.8448  -0.7828
 -0.7542  -0.7272  -0.7022  -0.6589  -0.6229  -0.6109  -0.5727  -0.5511
 -0.5251  -0.4990  -0.4804  -0.4655  -0.4613  -0.4561  -0.4396  -0.4337
 -0.4131  -0.4092  -0.4004  -0.3878  -0.3695  -0.3659  -0.3610  -0.3570
 -0.3423  -0.3346  -0.3344  -0.3286  -0.3129  -0.2812  -0.2673  -0.2384
 -0.2307  -0.2223  -0.2048  -0.1925  -0.1209

          Ground-State Mulliken Net Atomic Charges

     Atom                 Charge (a.u.)
  ----------------------------------------
      1 C                     1.547187
      2 C                     2.936791
      3 C                     0.068832
      4 C                    -2.897461
      5 C                    -1.186960
      6 C                     0.187373
      7 C                    -1.677362
      8 C                    -1.257652
      9 C                    -1.085574
     10 C                    -1.278571
     11 O                    -0.332698
     12 O                    -0.296290
     13 O                    -0.065503
     14 H                     0.251970
     15 H                     0.076086
     16 C                     1.522538
     17 O                    -0.146228
     18 O                     0.023905
     19 C                     0.250695
     20 H                     0.405004
     21 H                     0.002476
     22 H                     0.395794
     23 H                     0.270835
     24 H                     0.090285
     25 H                     0.194527
  ----------------------------------------
  Sum of atomic charges =    -2.000000

                    Cartesian Multipole Moments
 -----------------------------------------------------------------
    Charge (ESU x 10^10)
                -9.6064
    Dipole Moment (Debye)
         X      -2.7695      Y      -6.9764      Z       2.6117
       Tot       7.9474
    Quadrupole Moments (Debye-Ang)
        XX    -139.4513     XY     -31.0466     YY    -157.6313
        XZ      -8.3873     YZ     -14.1463     ZZ    -118.1815

 Total job time:  655.02s(wall), 4428.01s(cpu)
        *  Thank you very much for using Q-Chem.  Have a nice day.  *
