 Q-Chem 5.4, Q-Chem, Inc., Pleasanton, CA (2021)
 Q-Chem 5.4.0 for Intel X86 EM64T Linux

User input:
--------------------------------------------------------------
$molecule
-1 2
O                 -1.2702140000      2.5196350000      0.3353790000
C                 -1.2449400000      1.2687290000      0.2174870000
C                 -2.4376550000      0.4671370000      0.1936810000
C                 -2.3862980000     -0.8993370000      0.0637190000
O                 -3.5094920000     -1.6694900000      0.0399670000
C                 -1.1571540000     -1.6500920000     -0.0592350000
O                 -1.2329660000     -2.9176710000     -0.1743820000
C                  0.0732000000     -0.8840250000     -0.0403750000
C                  1.3231510000     -1.5314390000     -0.1545000000
C                  2.5012630000     -0.8081330000     -0.1373820000
C                  2.4672920000      0.5945130000     -0.0048090000
C                  1.2494750000      1.2462480000      0.1083520000
C                  0.0381460000      0.5350280000      0.0938260000
H                 -3.3918670000      0.9749820000      0.2820790000
H                  1.3250400000     -2.6109750000     -0.2554770000
H                  3.4547740000     -1.3210590000     -0.2262010000
H                  3.3933830000      1.1615760000      0.0084900000
H                  1.1913470000      2.3241020000      0.2115760000
H                 -3.1370090000     -2.5726020000     -0.0603660000
$end
$rem
MAX_SCF_CYCLES=200
BASIS  =  6-311++G(d,p)
GUI  =  2
JOB_TYPE  =  SP
METHOD  =  B3LYP
SOLVENT_METHOD = PCM
$end
$pcm
theory = CPCM
$end
$solvent
dielectric 37.219
opticaldielectric 1.43
$end

--------------------------------------------------------------

             Standard Nuclear Orientation (Angstroms)
    I     Atom           X                Y                Z
 ----------------------------------------------------------------
    1      O      -1.2702140000     2.5196350000     0.3353790000
    2      C      -1.2449400000     1.2687290000     0.2174870000
    3      C      -2.4376550000     0.4671370000     0.1936810000
    4      C      -2.3862980000    -0.8993370000     0.0637190000
    5      O      -3.5094920000    -1.6694900000     0.0399670000
    6      C      -1.1571540000    -1.6500920000    -0.0592350000
    7      O      -1.2329660000    -2.9176710000    -0.1743820000
    8      C       0.0732000000    -0.8840250000    -0.0403750000
    9      C       1.3231510000    -1.5314390000    -0.1545000000
   10      C       2.5012630000    -0.8081330000    -0.1373820000
   11      C       2.4672920000     0.5945130000    -0.0048090000
   12      C       1.2494750000     1.2462480000     0.1083520000
   13      C       0.0381460000     0.5350280000     0.0938260000
   14      H      -3.3918670000     0.9749820000     0.2820790000
   15      H       1.3250400000    -2.6109750000    -0.2554770000
   16      H       3.4547740000    -1.3210590000    -0.2262010000
   17      H       3.3933830000     1.1615760000     0.0084900000
   18      H       1.1913470000     2.3241020000     0.2115760000
   19      H      -3.1370090000    -2.5726020000    -0.0603660000
 ----------------------------------------------------------------

    9    -610.6752756615      5.62e-06  Convergence criterion met
 Total energy in the final basis set =     -610.6752756615

                    Orbital Energies (a.u.)
 --------------------------------------------------------------

 Alpha MOs
 -- Occupied --
-19.1483 -19.0897 -19.0787 -10.2298 -10.2287 -10.2247 -10.1778 -10.1752
-10.1737 -10.1726 -10.1722 -10.1710 -10.1575  -1.0679  -1.0044  -0.9999
 -0.8603  -0.8031  -0.7529  -0.7393  -0.6777  -0.6255  -0.6101  -0.5715
 -0.5387  -0.5111  -0.4882  -0.4588  -0.4572  -0.4367  -0.4288  -0.4208
 -0.4108  -0.3994  -0.3914  -0.3800  -0.3721  -0.3509  -0.3459  -0.3390
 -0.2709  -0.2633  -0.2595  -0.2449  -0.2382  -0.1557

 Beta MOs
 -- Occupied --
-19.1477 -19.0833 -19.0737 -10.2285 -10.2273 -10.2217 -10.1778 -10.1742
-10.1737 -10.1718 -10.1717 -10.1711 -10.1568  -1.0655  -0.9955  -0.9890
 -0.8581  -0.7985  -0.7506  -0.7375  -0.6679  -0.6237  -0.6069  -0.5693
 -0.5369  -0.5087  -0.4844  -0.4578  -0.4560  -0.4275  -0.4222  -0.4169
 -0.4075  -0.3971  -0.3802  -0.3779  -0.3550  -0.3494  -0.3377  -0.3299
 -0.2576  -0.2528  -0.2506  -0.2401  -0.2297

          Ground-State Mulliken Net Atomic Charges

     Atom                 Charge (a.u.)    Spin (a.u.)
  --------------------------------------------------------
      1 O                    -0.510732       0.181001
      2 C                    -0.372625       0.066224
      3 C                     0.351069       0.055457
      4 C                    -0.211871       0.094447
      5 O                    -0.304893       0.019431
      6 C                    -0.627776       0.174140
      7 O                    -0.529901       0.236787
      8 C                     0.244834      -0.018981
      9 C                     0.148865       0.081340
     10 C                    -0.397430      -0.007395
     11 C                    -0.407825       0.072242
     12 C                     0.194793      -0.003333
     13 C                     0.172243       0.067899
     14 H                     0.205717      -0.006170
     15 H                     0.173602      -0.004359
     16 H                     0.203271      -0.000432
     17 H                     0.200514      -0.004835
     18 H                     0.167140      -0.000329
     19 H                     0.301006      -0.003135
  --------------------------------------------------------
  Sum of atomic charges =    -1.000000

                    Cartesian Multipole Moments
 -----------------------------------------------------------------
    Charge (ESU x 10^10)
                -4.8032
    Dipole Moment (Debye)
         X       7.6168      Y      -0.1939      Z      -0.5612
       Tot       7.6399
    Quadrupole Moments (Debye-Ang)
        XX     -89.3902     XY       0.1816     YY    -109.5780
        XZ       0.7447     YZ      -2.7234     ZZ     -80.8231

 Total job time:  32.67s(wall), 192.57s(cpu)
        *  Thank you very much for using Q-Chem.  Have a nice day.  *
