 Gaussian 16, Revision A.03,
 Gaussian 16:  ES64L-G16RevA.03 25-Dec-2016

 ----------------------------------------------------------------------
 #P UB3LYP/6-311++G(d,p) nosym opt freq SCRF=(PCM,Solvent=n,n-DiMethylF
 ormamide)
 ----------------------------------------------------------------------

 -------
 Reduced
 -------
 Symbolic Z-matrix:
 Charge = -2 Multiplicity = 1

 SCF Done:  E(UB3LYP) =  -728.515389904     A.U. after   17 cycles
 SCF Done:  E(UB3LYP) =  -728.516645091     A.U. after   13 cycles
 SCF Done:  E(UB3LYP) =  -728.516821991     A.U. after   12 cycles
 SCF Done:  E(UB3LYP) =  -728.516815937     A.U. after   13 cycles
 SCF Done:  E(UB3LYP) =  -728.516833772     A.U. after   11 cycles
 SCF Done:  E(UB3LYP) =  -728.516836454     A.U. after   11 cycles
 Optimization completed.
    -- Stationary point found.
 Normal termination of Gaussian 16 at Sat Feb 10 17:58:38 2024.

 ----------------------------------------------------------------------
 #P Geom=AllCheck Guess=TCheck SCRF=Check GenChk UB3LYP/6-311++G(d,p) F
 req
 ----------------------------------------------------------------------

 Structure from the checkpoint file:  "124-an.chk"
 -------
 Reduced
 -------
 Charge = -2 Multiplicity = 1

                          Input orientation:
 ---------------------------------------------------------------------
 Center     Atomic      Atomic             Coordinates (Angstroms)
 Number     Number       Type             X           Y           Z
 ---------------------------------------------------------------------
      1          6           0       -4.567604    0.229016    0.047253
      2          6           0       -3.114739   -0.181575    0.006292
      3          6           0       -2.768921   -1.559897   -0.152905
      4          6           0       -1.451863   -1.950605   -0.188552
      5          6           0       -0.374462   -1.025763   -0.072283
      6          6           0        0.984172   -1.495784   -0.114625
      7          8           0        1.284411   -2.756844   -0.257352
      8          6           0        1.988586   -0.474442    0.012698
      9          6           0        3.367624   -0.831484   -0.014451
     10          6           0        4.374821    0.098551    0.101945
     11          6           0        4.045502    1.475605    0.257032
     12          6           0        2.725506    1.861719    0.288386
     13          6           0        1.651581    0.930673    0.171432
     14          6           0        0.292383    1.397076    0.212954
     15          8           0       -0.009426    2.660300    0.354672
     16          6           0       -0.710365    0.375752    0.087332
     17          6           0       -2.092674    0.733279    0.118966
     18          1           0       -5.101165   -0.260744    0.870528
     19          1           0       -5.091344   -0.049304   -0.874994
     20          1           0       -4.671297    1.308912    0.177431
     21          1           0       -3.558989   -2.300994   -0.245043
     22          1           0       -1.196194   -2.997810   -0.308111
     23          1           0        3.601161   -1.883932   -0.132860
     24          1           0        5.415155   -0.211663    0.076361
     25          1           0        4.835392    2.215144    0.349617
     26          1           0        2.462842    2.907314    0.405477
     27          1           0       -2.320092    1.787501    0.240283
 ---------------------------------------------------------------------

 SCF Done:  E(UB3LYP) =  -728.516836454     A.U. after    1 cycles

 Alpha  occ. eigenvalues --  -19.01678 -19.01472 -10.17137 -10.16916 -10.15552
 Alpha  occ. eigenvalues --  -10.15326 -10.14772 -10.14708 -10.14583 -10.14522
 Alpha  occ. eigenvalues --  -10.14504 -10.14496 -10.14022 -10.13541 -10.13489
 Alpha  occ. eigenvalues --  -10.13450 -10.13407  -0.92806  -0.92307  -0.82732
 Alpha  occ. eigenvalues --   -0.82046  -0.76131  -0.73190  -0.72132  -0.71139
 Alpha  occ. eigenvalues --   -0.67122  -0.63187  -0.60281  -0.57724  -0.55688
 Alpha  occ. eigenvalues --   -0.52346  -0.50227  -0.48642  -0.44124  -0.43626
 Alpha  occ. eigenvalues --   -0.42816  -0.41581  -0.40622  -0.39716  -0.39636
 Alpha  occ. eigenvalues --   -0.38333  -0.37564  -0.36504  -0.36118  -0.35311
 Alpha  occ. eigenvalues --   -0.34715  -0.33281  -0.31940  -0.31423  -0.31154
 Alpha  occ. eigenvalues --   -0.29405  -0.29357  -0.23281  -0.22190  -0.21936
 Alpha  occ. eigenvalues --   -0.21014  -0.19816  -0.19235  -0.10630
 Alpha virt. eigenvalues --   -0.02546  -0.00060   0.00300   0.00609   0.01483
 Alpha virt. eigenvalues --    0.02098   0.02189   0.02542   0.03866   0.04229
 Alpha virt. eigenvalues --    0.04490   0.04957   0.05413   0.06403   0.06621

  Beta  occ. eigenvalues --  -19.01678 -19.01472 -10.17137 -10.16916 -10.15552
  Beta  occ. eigenvalues --  -10.15326 -10.14772 -10.14708 -10.14583 -10.14522
  Beta  occ. eigenvalues --  -10.14504 -10.14496 -10.14022 -10.13541 -10.13489
  Beta  occ. eigenvalues --  -10.13450 -10.13407  -0.92806  -0.92307  -0.82732
  Beta  occ. eigenvalues --   -0.82046  -0.76131  -0.73190  -0.72132  -0.71139
  Beta  occ. eigenvalues --   -0.67122  -0.63187  -0.60281  -0.57724  -0.55688
  Beta  occ. eigenvalues --   -0.52346  -0.50227  -0.48642  -0.44124  -0.43626
  Beta  occ. eigenvalues --   -0.42816  -0.41581  -0.40622  -0.39716  -0.39636
  Beta  occ. eigenvalues --   -0.38333  -0.37564  -0.36504  -0.36118  -0.35311
  Beta  occ. eigenvalues --   -0.34715  -0.33281  -0.31940  -0.31423  -0.31154
  Beta  occ. eigenvalues --   -0.29405  -0.29357  -0.23281  -0.22190  -0.21936
  Beta  occ. eigenvalues --   -0.21014  -0.19816  -0.19235  -0.10630
  Beta virt. eigenvalues --   -0.02546  -0.00060   0.00300   0.00609   0.01483
  Beta virt. eigenvalues --    0.02098   0.02189   0.02542   0.03866   0.04229
  Beta virt. eigenvalues --    0.04490   0.04957   0.05413   0.06403   0.06621

 Mulliken charges and spin densities:
               1          2
     1  C   -0.386771   0.000000
     2  C    0.296795  -0.000000
     3  C   -0.493837  -0.000000
     4  C    0.000224   0.000000
     5  C    0.094572   0.000000
     6  C   -0.569280  -0.000000
     7  O   -0.677873   0.000000
     8  C    0.255883   0.000000
     9  C   -0.030247   0.000000
    10  C   -0.492063   0.000000
    11  C   -0.502811   0.000000
    12  C   -0.071828  -0.000000
    13  C    0.442774   0.000000
    14  C   -0.504372  -0.000000
    15  O   -0.681843   0.000000
    16  C    0.169043   0.000000
    17  C   -0.309964   0.000000
    18  H    0.148713   0.000000
    19  H    0.148909   0.000000
    20  H    0.155563   0.000000
    21  H    0.155254  -0.000000
    22  H    0.141837   0.000000
    23  H    0.143622  -0.000000
    24  H    0.156091   0.000000
    25  H    0.156972  -0.000000
    26  H    0.143123   0.000000
    27  H    0.111514  -0.000000
 Sum of Mulliken charges =  -2.00000   0.00000

 Dipole moment (field-independent basis, Debye):
    X=             -6.7017    Y=              0.2667    Z=             -0.4970  Tot=              6.7254
 Quadrupole moment (field-independent basis, Debye-Ang):
   XX=           -128.7109   YY=           -161.3429   ZZ=           -112.9578
   XY=              9.3481   XZ=              0.5878   YZ=             -5.5480

  Exact polarizability: 574.804  38.253 382.115   7.941  25.524 166.760
 Approx polarizability: 621.891  36.821 447.057   8.054  31.075 183.935

                      1                      2                      3
                      A                      A                      A
 Frequencies --     55.4243               109.8411               114.7105
 Red. masses --      5.1313                 4.0532                 1.1471
 Frc consts  --      0.0093                 0.0288                 0.0089
 IR Inten    --     18.2606                 3.2997                 0.3553

                      4                      5                      6
                      A                      A                      A
 Frequencies --    140.7179               165.1789               185.2269
 Red. masses --      3.5570                 6.2645                 4.0542
 Frc consts  --      0.0415                 0.1007                 0.0820
 IR Inten    --      0.9168                 5.6900                18.1992

                      7                      8                      9
                      A                      A                      A
 Frequencies --    212.1543               273.9876               297.4700
 Red. masses --      4.3633                 5.5898                 4.4726
 Frc consts  --      0.1157                 0.2472                 0.2332
 IR Inten    --      2.1878                 8.2641                 3.7855

                     10                     11                     12
                      A                      A                      A
 Frequencies --    334.7485               360.5863               370.9269
 Red. masses --      5.9003                 6.4141                 5.6930
 Frc consts  --      0.3895                 0.4914                 0.4615
 IR Inten    --      6.0856                 1.5550                 1.7125

                     13                     14                     15
                      A                      A                      A
 Frequencies --    407.8040               429.5405               437.6396
 Red. masses --      6.6968                 3.3313                 5.5414
 Frc consts  --      0.6562                 0.3621                 0.6253
 IR Inten    --      0.1558                12.0175                 1.0491

                     16                     17                     18
                      A                      A                      A
 Frequencies --    484.1070               495.0923               524.1704
 Red. masses --      2.8756                11.9517                 3.8870
 Frc consts  --      0.3971                 1.7260                 0.6292
 IR Inten    --      0.2238                 1.2371                10.5879

                     19                     20                     21
                      A                      A                      A
 Frequencies --    567.0630               630.0346               633.8168
 Red. masses --      5.6286                 6.6997                 3.8073
 Frc consts  --      1.0664                 1.5669                 0.9011
 IR Inten    --     44.1962                23.7419                11.8025

                     22                     23                     24
                      A                      A                      A
 Frequencies --    660.2052               690.6049               695.8724
 Red. masses --      6.4378                 6.2277                 2.2962
 Frc consts  --      1.6533                 1.7500                 0.6551
 IR Inten    --      9.6968                 3.0884               131.0073

                     25                     26                     27
                      A                      A                      A
 Frequencies --    733.4782               743.1331               771.5507
 Red. masses --      4.3784                 6.0137                 1.7385
 Frc consts  --      1.3878                 1.9567                 0.6097
 IR Inten    --      0.0468                15.5760                24.6660

                     28                     29                     30
                      A                      A                      A
 Frequencies --    798.0518               822.8121               850.9457
 Red. masses --      1.8029                 2.0575                 6.0108
 Frc consts  --      0.6765                 0.8207                 2.5644
 IR Inten    --     30.0542                23.7896                23.5324

                     31                     32                     33
                      A                      A                      A
 Frequencies --    856.4496               913.3045               922.7551
 Red. masses --      2.0668                 1.4257                 6.0404
 Frc consts  --      0.8932                 0.7007                 3.0303
 IR Inten    --      0.4981                13.4299                28.7353

                     34                     35                     36
                      A                      A                      A
 Frequencies --    960.1381               975.1523               982.6405
 Red. masses --      2.3937                 1.3358                 1.3015
 Frc consts  --      1.3001                 0.7484                 0.7404
 IR Inten    --      4.9081                 2.6272                 2.2706

                     37                     38                     39
                      A                      A                      A
 Frequencies --    984.3185              1012.1094              1022.9392
 Red. masses --      1.2626                 2.1037                 1.7207
 Frc consts  --      0.7208                 1.2697                 1.0609
 IR Inten    --      1.0441                91.6528                16.0739

                     40                     41                     42
                      A                      A                      A
 Frequencies --   1056.3146              1079.8709              1108.2638
 Red. masses --      1.4943                 4.1711                 1.8100
 Frc consts  --      0.9824                 2.8658                 1.3098
 IR Inten    --      5.5485               808.4096               114.6805

                     43                     44                     45
                      A                      A                      A
 Frequencies --   1129.4335              1138.9942              1170.1201
 Red. masses --      1.6577                 1.7601                 1.4788
 Frc consts  --      1.2459                 1.3453                 1.1930
 IR Inten    --    207.6320                10.9963               565.3643

                     46                     47                     48
                      A                      A                      A
 Frequencies --   1196.9649              1200.8903              1214.7317
 Red. masses --      3.2128                 1.7549                 2.7686
 Frc consts  --      2.7121                 1.4911                 2.4070
 IR Inten    --    197.8008                72.2134               375.9094

                     49                     50                     51
                      A                      A                      A
 Frequencies --   1258.8486              1305.5807              1333.6112
 Red. masses --      2.4768                 6.0069                 2.9776
 Frc consts  --      2.3125                 6.0327                 3.1201
 IR Inten    --    258.5285                13.8614              1791.3335

                     52                     53                     54
                      A                      A                      A
 Frequencies --   1350.0149              1355.6108              1403.2593
 Red. masses --      6.6101                 2.3293                 1.2818
 Frc consts  --      7.0979                 2.5220                 1.4872
 IR Inten    --    740.2452               836.7564                32.4289

                     55                     56                     57
                      A                      A                      A
 Frequencies --   1433.4522              1446.9381              1462.2969
 Red. masses --      3.0087                 6.2369                 2.6496
 Frc consts  --      3.6425                 7.6934                 3.3381
 IR Inten    --    179.4862                 7.5291                10.8737

                     58                     59                     60
                      A                      A                      A
 Frequencies --   1470.9397              1476.5310              1488.4208
 Red. masses --      1.0442                 2.1037                 1.5446
 Frc consts  --      1.3312                 2.7022                 2.0161
 IR Inten    --      8.7885                73.3945                 7.3129

                     61                     62                     63
                      A                      A                      A
 Frequencies --   1506.0435              1526.3113              1575.6497
 Red. masses --      4.4276                 4.5699                 7.6190
 Frc consts  --      5.9168                 6.2725                11.1447
 IR Inten    --      1.3427                80.2321                 1.4614

                     64                     65                     66
                      A                      A                      A
 Frequencies --   1605.3068              1625.5505              2998.3597
 Red. masses --      5.2486                 5.7717                 1.0385
 Frc consts  --      7.9691                 8.9858                 5.5008
 IR Inten    --     11.9359                57.2774               212.2257

                     67                     68                     69
                      A                      A                      A
 Frequencies --   3035.7796              3085.2923              3132.2633
 Red. masses --      1.0999                 1.0982                 1.0872
 Frc consts  --      5.9724                 6.1590                 6.2847
 IR Inten    --     49.8267                47.1741                49.6303

                     70                     71                     72
                      A                      A                      A
 Frequencies --   3136.6326              3151.3230              3152.9205
 Red. masses --      1.0843                 1.0883                 1.0887
 Frc consts  --      6.2855                 6.3676                 6.3766
 IR Inten    --     23.3254                23.2188                38.0915

                     73                     74                     75
                      A                      A                      A
 Frequencies --   3166.7220              3168.7924              3172.4535
 Red. masses --      1.0921                 1.0915                 1.0942
 Frc consts  --      6.4524                 6.4576                 6.4885
 IR Inten    --     49.3642                68.1616                79.2892

 - Thermochemistry -
 -------------------
 Temperature   298.150 Kelvin.  Pressure   1.00000 Atm.
 Atom     1 has atomic number  6 and mass  12.00000

 Molecular mass:   222.06808 amu.
 Principal axes and moments of inertia in atomic units:
                           1         2         3
     Eigenvalues --  1787.035615278.052837053.94992
           X            0.99208  -0.12535  -0.00809
           Y            0.12361   0.98568  -0.11474
           Z            0.02236   0.11283   0.99336
 This molecule is an asymmetric top.
 Rotational symmetry number  1.
 Warning -- assumption of classical behavior for rotation
           may cause significant error
 Rotational temperatures (Kelvin)      0.04847     0.01641     0.01228
 Rotational constants (GHZ):           1.00991     0.34193     0.25585
 Zero-point vibrational energy     530826.1 (Joules/Mol)
                                  126.87048 (Kcal/Mol)
 Warning -- explicit consideration of  19 degrees of freedom as
           vibrations may cause significant error
 Vibrational temperatures:     79.74   158.04   165.04   202.46   237.66
          (Kelvin)            266.50   305.24   394.21   427.99   481.63
                              518.80   533.68   586.74   618.01   629.67
                              696.52   712.33   754.16   815.88   906.48
                              911.92   949.89   993.63  1001.21  1055.31
                             1069.20  1110.09  1148.22  1183.84  1224.32
                             1232.24  1314.04  1327.64  1381.42  1403.03
                             1413.80  1416.21  1456.20  1471.78  1519.80
                             1553.69  1594.54  1625.00  1638.76  1683.54
                             1722.17  1727.81  1747.73  1811.20  1878.44
                             1918.77  1942.37  1950.42  2018.98  2062.42
                             2081.82  2103.92  2116.35  2124.40  2141.51
                             2166.86  2196.02  2267.01  2309.68  2338.80
                             4313.97  4367.81  4439.05  4506.63  4512.91
                             4534.05  4536.35  4556.21  4559.19  4564.45

 Zero-point correction=                           0.202181 (Hartree/Particle)
 Thermal correction to Energy=                    0.215162
 Thermal correction to Enthalpy=                  0.216106
 Thermal correction to Gibbs Free Energy=         0.163017
 Sum of electronic and zero-point Energies=           -728.314655
 Sum of electronic and thermal Energies=              -728.301675
 Sum of electronic and thermal Enthalpies=            -728.300730
 Sum of electronic and thermal Free Energies=         -728.353819

                     E (Thermal)             CV                S
                      KCal/Mol        Cal/Mol-Kelvin    Cal/Mol-Kelvin
 Total                  135.016             52.742            111.734
 Electronic               0.000              0.000              0.000
 Translational            0.889              2.981             42.096
 Rotational               0.889              2.981             32.564
 Vibrational            133.239             46.780             37.074
 Vibration     1          0.596              1.975              4.614
 Vibration     2          0.606              1.941              3.272
 Vibration     3          0.608              1.937              3.188
 Vibration     4          0.615              1.913              2.794
 Vibration     5          0.624              1.885              2.490
 Vibration     6          0.631              1.860              2.275
 Vibration     7          0.643              1.822              2.025
 Vibration     8          0.676              1.721              1.571
 Vibration     9          0.691              1.678              1.431
 Vibration    10          0.716              1.606              1.237
 Vibration    11          0.735              1.553              1.120
 Vibration    12          0.743              1.532              1.076
 Vibration    13          0.772              1.453              0.934
 Vibration    14          0.791              1.406              0.860
 Vibration    15          0.798              1.388              0.834
 Vibration    16          0.840              1.285              0.699
 Vibration    17          0.851              1.261              0.671
 Vibration    18          0.879              1.196              0.600
 Vibration    19          0.923              1.103              0.510

                           ! Non-Optimized Parameters !
 Normal termination of Gaussian 16 at Sat Feb 10 19:07:15 2024.
