 Q-Chem 5.4, Q-Chem, Inc., Pleasanton, CA (2021)
 Q-Chem 5.4.0 for Intel X86 EM64T Linux

User input:
--------------------------------------------------------------
$molecule
-1 2
O                 -0.1129530000     -2.4628750000      0.6096430000
C                 -0.0472750000     -1.2134190000      0.3933210000
C                 -1.2719410000     -0.4167170000      0.3178200000
C                 -2.5213880000     -1.0894830000      0.3765690000
C                 -3.7279020000     -0.4111590000      0.2799570000
C                 -3.7504690000      0.9762410000      0.1026410000
C                 -2.5324340000      1.6679950000      0.0340670000
C                 -1.3225560000      0.9917890000      0.1562190000
S                  0.1544320000      1.9890840000      0.2103560000
C                  1.4504870000      0.8029220000     -0.0930710000
C                  2.6992610000      1.3116120000     -0.4362260000
C                  3.8057940000      0.4615120000     -0.5768320000
C                  3.6285840000     -0.9122890000     -0.3817880000
C                  2.3782670000     -1.4232570000     -0.0642700000
C                  1.2403600000     -0.5878950000      0.0918500000
H                 -2.4831040000     -2.1642240000      0.5053360000
H                 -4.6610990000     -0.9650160000      0.3370160000
H                 -4.6884240000      1.5150370000      0.0191900000
H                 -2.5272330000      2.7451360000     -0.1054370000
H                  2.8144060000      2.3812890000     -0.5854750000
H                  4.7778430000      0.8702460000     -0.8319670000
H                  4.4738840000     -1.5873480000     -0.4848440000
H                  2.2192600000     -2.4845830000      0.0821250000
$end
$rem
MAX_SCF_CYCLES=200
BASIS  =  6-311++G(d,p)
GUI  =  2
JOB_TYPE  =  SP
METHOD  =  B3LYP
SOLVENT_METHOD = COSMO
$end
$solvent
dielectric 37.219
opticaldielectric 1.43
$end

--------------------------------------------------------------

             Standard Nuclear Orientation (Angstroms)
    I     Atom           X                Y                Z
 ----------------------------------------------------------------
    1      O       0.0000219805     2.6279486507     0.2730757825
    2      C      -0.0000017718     1.3614313382     0.1826158474
    3      C       1.2641233044     0.6343931998     0.0658056310
    4      C       2.4654062968     1.3817923446    -0.0586814447
    5      C       3.7015944545     0.7691573396    -0.2058227008
    6      C       3.8020823671    -0.6252954646    -0.2530725633
    7      C       2.6324205633    -1.3906945342    -0.1395349922
    8      C       1.3953154307    -0.7778060650     0.0334362645
    9      S      -0.0000192294    -1.8496022732     0.3220809568
   10      C      -1.3953088214    -0.7778194860     0.0335408222
   11      C      -2.6324457098    -1.3906562616    -0.1393197546
   12      C      -3.8021098987    -0.6252654611    -0.2529768931
   13      C      -3.7015754051     0.7691725613    -0.2059646526
   14      C      -2.4653505609     1.3817982678    -0.0588712938
   15      C      -1.2641212764     0.6344382309     0.0657747947
   16      H       2.3661248239     2.4599172826    -0.0286043896
   17      H       4.5965186918     1.3797286636    -0.2905765475
   18      H       4.7631363942    -1.1137814967    -0.3746510756
   19      H       2.6876940711    -2.4748281199    -0.1758717244
   20      H      -2.6877992270    -2.4748004327    -0.1755126216
   21      H      -4.7631658555    -1.1137834418    -0.3744603900
   22      H      -4.5964495605     1.3797833056    -0.2908884272
   23      H      -2.3661013471     2.4599353470    -0.0289107796
 ----------------------------------------------------------------

   10    -973.8330474741      8.84e-06  Convergence criterion met
 Total energy in the final basis set =     -973.8330474741
    4    -973.9144741846      9.32e-06  Convergence criterion met
 Total energy in the final basis set =     -973.9144741846

                    Orbital Energies (a.u.)
 --------------------------------------------------------------

 Alpha MOs
 -- Occupied --
-88.8575 -19.0573 -10.2049 -10.2040 -10.2040 -10.1719 -10.1719 -10.1701
-10.1701 -10.1656 -10.1656 -10.1650 -10.1650 -10.1598 -10.1598  -7.9438
 -5.9072  -5.9036  -5.8985  -0.9827  -0.8694  -0.8500  -0.7957  -0.7569
 -0.7464  -0.7391  -0.6948  -0.6417  -0.6088  -0.5888  -0.5771  -0.5374
 -0.5200  -0.4768  -0.4574  -0.4559  -0.4495  -0.4239  -0.4170  -0.4105
 -0.4055  -0.3976  -0.3788  -0.3683  -0.3586  -0.3509  -0.3474  -0.3295
 -0.3180  -0.3055  -0.2612  -0.2526  -0.2514  -0.2323  -0.2129  -0.1131

 Beta MOs
 -- Occupied --
-88.8573 -19.0519 -10.2027 -10.2027 -10.2008 -10.1725 -10.1725 -10.1705
-10.1704 -10.1663 -10.1663 -10.1630 -10.1630 -10.1579 -10.1579  -7.9436
 -5.9071  -5.9036  -5.8979  -0.9725  -0.8670  -0.8480  -0.7936  -0.7527
 -0.7442  -0.7368  -0.6930  -0.6349  -0.6067  -0.5871  -0.5744  -0.5341
 -0.5187  -0.4745  -0.4560  -0.4538  -0.4487  -0.4228  -0.4163  -0.4039
 -0.3999  -0.3928  -0.3772  -0.3630  -0.3561  -0.3461  -0.3315  -0.3284
 -0.3157  -0.3009  -0.2555  -0.2436  -0.2375  -0.2276  -0.2062

          Ground-State Mulliken Net Atomic Charges

     Atom                 Charge (a.u.)    Spin (a.u.)
  --------------------------------------------------------
      1 O                    -0.577527       0.203652
      2 C                    -0.076357       0.294411
      3 C                     1.300646      -0.023059
      4 C                     0.230275       0.196883
      5 C                    -0.527901      -0.069544
      6 C                    -0.324593       0.170995
      7 C                    -0.369715      -0.045244
      8 C                    -0.823760       0.020105
      9 S                    -0.851252       0.040323
     10 C                    -0.825042       0.020040
     11 C                    -0.369725      -0.045228
     12 C                    -0.324774       0.170940
     13 C                    -0.527294      -0.069543
     14 C                     0.230223       0.196815
     15 C                     1.302379      -0.023172
     16 H                     0.184667      -0.011785
     17 H                     0.191252       0.003909
     18 H                     0.192592      -0.011688
     19 H                     0.198823       0.000376
     20 H                     0.198808       0.000377
     21 H                     0.192563      -0.011685
     22 H                     0.191279       0.003909
     23 H                     0.184435      -0.011787
  --------------------------------------------------------
  Sum of atomic charges =    -1.000000

                    Cartesian Multipole Moments
 -----------------------------------------------------------------
    Charge (ESU x 10^10)
                -4.8032
    Dipole Moment (Debye)
         X      -0.0007      Y      -6.7557      Z      -1.1552
       Tot       6.8538
    Quadrupole Moments (Debye-Ang)
        XX     -98.5592     XY       0.0027     YY    -117.3772
        XZ      -0.0005     YZ      -1.7485     ZZ    -105.2158

 Total job time:  67.70s(wall), 515.00s(cpu)
        *  Thank you very much for using Q-Chem.  Have a nice day.  *
