 Gaussian 16, Revision A.03,
 Gaussian 16:  ES64L-G16RevA.03 25-Dec-2016

 ----------------------------------------------------------------
 #P UB3LYP/6-311++G(d,p) SCRF=(PCM,Solvent=n,n-DiMethylFormamide)
 ----------------------------------------------------------------

 ------------------
 Radical PCM in DMF
 ------------------
 Symbolic Z-matrix:
 Charge = -1 Multiplicity = 2

                         Standard orientation:
 ---------------------------------------------------------------------
 Center     Atomic      Atomic             Coordinates (Angstroms)
 Number     Number       Type             X           Y           Z
 ---------------------------------------------------------------------
      1          6           0       -2.340682    0.144979    1.263118
      2          6           0       -1.657032   -0.433155   -0.000030
      3          6           0       -1.884812   -1.956815   -0.000646
      4          6           0       -2.340669    0.145880   -1.262764
      5          6           0       -0.162799   -0.059436    0.000100
      6          6           0        0.827193   -1.015407    0.000179
      7          6           0        2.249563   -0.732369    0.000097
      8          8           0        3.116183   -1.655567    0.000137
      9          6           0        2.599135    0.668888   -0.000223
     10          6           0        1.636857    1.641041   -0.000223
     11          6           0        0.217287    1.359869    0.000132
     12          8           0       -0.626771    2.307638    0.000276
     13          1           0       -3.409924   -0.103349    1.264259
     14          1           0       -1.893221   -0.280852    2.167449
     15          1           0       -2.225759    1.228206    1.293397
     16          1           0       -2.961081   -2.162348   -0.000860
     17          1           0       -1.453236   -2.433804    0.884201
     18          1           0       -1.452990   -2.433040   -0.885788
     19          1           0       -1.893227   -0.279345   -2.167390
     20          1           0       -3.409927   -0.102370   -1.264082
     21          1           0       -2.225624    1.229103   -1.292201
     22          1           0        0.585627   -2.072227    0.000099
     23          1           0        3.657131    0.917646   -0.000431
     24          1           0        1.902695    2.694961   -0.000400
 ---------------------------------------------------------------------

 SCF Done:  E(UB3LYP) =  -539.016696620     A.U. after   17 cycles

 The electronic state is 2-A.
 Alpha  occ. eigenvalues --  -19.07381 -19.07190 -10.21567 -10.21485 -10.18061
 Alpha  occ. eigenvalues --  -10.16956 -10.15978 -10.15857 -10.15492 -10.14993
 Alpha  occ. eigenvalues --  -10.14494 -10.14492  -0.99421  -0.99177  -0.82963
 Alpha  occ. eigenvalues --   -0.79753  -0.73005  -0.68154  -0.67430  -0.67165
 Alpha  occ. eigenvalues --   -0.60384  -0.56842  -0.52344  -0.47231  -0.46704
 Alpha  occ. eigenvalues --   -0.44841  -0.43075  -0.42892  -0.41800  -0.40809
 Alpha  occ. eigenvalues --   -0.39865  -0.38256  -0.38200  -0.36788  -0.36483
 Alpha  occ. eigenvalues --   -0.35565  -0.35205  -0.32969  -0.32482  -0.31778
 Alpha  occ. eigenvalues --   -0.27660  -0.25012  -0.23800  -0.23060  -0.15889
 Alpha virt. eigenvalues --   -0.00466  -0.00263   0.00984   0.01524   0.01738
 Alpha virt. eigenvalues --    0.02847   0.03165   0.03269   0.04176   0.04318
 Alpha virt. eigenvalues --    0.05328   0.05772   0.05937   0.06865   0.08113

  Beta  occ. eigenvalues --  -19.06692 -19.06479 -10.21418 -10.21346 -10.18068
  Beta  occ. eigenvalues --  -10.16850 -10.15859 -10.15738 -10.15407 -10.14993
  Beta  occ. eigenvalues --  -10.14487 -10.14486  -0.98203  -0.97920  -0.82602
  Beta  occ. eigenvalues --   -0.79394  -0.72758  -0.67899  -0.67407  -0.66323
  Beta  occ. eigenvalues --   -0.60024  -0.56480  -0.52120  -0.47047  -0.46321
  Beta  occ. eigenvalues --   -0.44637  -0.42979  -0.42659  -0.41712  -0.39550
  Beta  occ. eigenvalues --   -0.39278  -0.37901  -0.36980  -0.36701  -0.35779
  Beta  occ. eigenvalues --   -0.35312  -0.33498  -0.32808  -0.32270  -0.31726
  Beta  occ. eigenvalues --   -0.24543  -0.24016  -0.23164  -0.22451
  Beta virt. eigenvalues --   -0.08600  -0.00247   0.00889   0.01000   0.01551
  Beta virt. eigenvalues --    0.02006   0.02866   0.03186   0.04196   0.04381
  Beta virt. eigenvalues --    0.04868   0.05350   0.05975   0.06132   0.06899

 Mulliken charges and spin densities:
               1          2
     1  C   -0.682576   0.011210
     2  C    0.616565  -0.014949
     3  C   -0.487789  -0.000252
     4  C   -0.682483   0.011212
     5  C    1.210843   0.129431
     6  C   -0.533320  -0.007942
     7  C   -0.590652   0.130573
     8  O   -0.512100   0.239303
     9  C    0.146162   0.092627
    10  C   -0.024356   0.121653
    11  C   -0.912348   0.056609
    12  O   -0.444607   0.256511
    13  H    0.145693   0.000498
    14  H    0.131611   0.000755
    15  H    0.176547  -0.002522
    16  H    0.169044   0.000012
    17  H    0.130740  -0.000210
    18  H    0.130762  -0.000210
    19  H    0.131586   0.000756
    20  H    0.145669   0.000496
    21  H    0.176532  -0.002522
    22  H    0.196254  -0.007256
    23  H    0.179795  -0.006977
    24  H    0.182429  -0.008808
 Sum of Mulliken charges =  -1.00000   1.00000

 Dipole moment (field-independent basis, Debye):
    X=             -6.5371    Y=             -1.0749    Z=             -0.0011  Tot=              6.6249
 Quadrupole moment (field-independent basis, Debye-Ang):
   XX=           -103.7604   YY=            -98.0696   ZZ=            -78.5231
   XY=             19.9822   XZ=             -0.0016   YZ=             -0.0011

 Normal termination of Gaussian 16 at Sun Jan 21 07:17:30 2024.
