 Gaussian 16, Revision A.03,
 Gaussian 16:  ES64L-G16RevA.03 25-Dec-2016

 --------------------------------------
 #P UB3LYP/6-311++G(d,p) nosym opt freq
 --------------------------------------

 --------
 Oxidized
 --------
 Symbolic Z-matrix:
 Charge =  0 Multiplicity = 1

 SCF Done:  E(UB3LYP) =  -1431.90903832     A.U. after   24 cycles
 SCF Done:  E(UB3LYP) =  -1431.92128532     A.U. after   19 cycles
 SCF Done:  E(UB3LYP) =  -1431.89673241     A.U. after   19 cycles
 SCF Done:  E(UB3LYP) =  -1431.92116597     A.U. after   18 cycles
 SCF Done:  E(UB3LYP) =  -1431.92430286     A.U. after   15 cycles
 SCF Done:  E(UB3LYP) =  -1431.92227923     A.U. after   19 cycles
 SCF Done:  E(UB3LYP) =  -1431.92605335     A.U. after   17 cycles
 SCF Done:  E(UB3LYP) =  -1431.92678519     A.U. after   19 cycles
 SCF Done:  E(UB3LYP) =  -1431.92731290     A.U. after   18 cycles
 SCF Done:  E(UB3LYP) =  -1431.92763294     A.U. after   17 cycles
 SCF Done:  E(UB3LYP) =  -1431.94727081     A.U. after   15 cycles
 SCF Done:  E(UB3LYP) =  -1431.94732257     A.U. after   16 cycles
 SCF Done:  E(UB3LYP) =  -1431.94735573     A.U. after   16 cycles
 SCF Done:  E(UB3LYP) =  -1431.94737019     A.U. after   14 cycles
 SCF Done:  E(UB3LYP) =  -1431.94737694     A.U. after   14 cycles
 SCF Done:  E(UB3LYP) =  -1431.94738285     A.U. after   14 cycles
 SCF Done:  E(UB3LYP) =  -1431.94738517     A.U. after   14 cycles
 SCF Done:  E(UB3LYP) =  -1431.94738650     A.U. after   13 cycles
 SCF Done:  E(UB3LYP) =  -1431.94738677     A.U. after   12 cycles
 Optimization completed.
    -- Stationary point found.
 Normal termination of Gaussian 16 at Wed Dec 20 15:41:09 2023.

 ----------------------------------------------------------------------
 #P Geom=AllCheck Guess=TCheck SCRF=Check GenChk UB3LYP/6-311++G(d,p) F
 req
 ----------------------------------------------------------------------

 Structure from the checkpoint file:  "068.chk"
 --------
 Oxidized
 --------
 Charge =  0 Multiplicity = 1

                          Input orientation:
 ---------------------------------------------------------------------
 Center     Atomic      Atomic             Coordinates (Angstroms)
 Number     Number       Type             X           Y           Z
 ---------------------------------------------------------------------
      1          6           0        0.826522    1.082517   -1.537483
      2          6           0       -0.413985    0.315483   -1.796395
      3          6           0       -0.669029   -0.828218   -1.154804
      4          6           0        0.273398   -1.376651   -0.155965
      5          6           0        1.491501   -0.560434    0.214589
      6          6           0        1.709842    0.601916   -0.429468
      7          8           0        1.117939    2.041641   -2.225779
      8          8           0        0.074609   -2.462338    0.354775
      9         16           0        3.099875    1.703973    0.032705
     10          6           0        4.227498    1.643282   -1.362674
     11          6           0        5.089185    0.552421   -1.478091
     12          6           0        4.233754    2.696745   -2.273446
     13          6           0        5.136806    2.653018   -3.332395
     14          6           0        5.978689    0.520566   -2.548778
     15          6           0        6.003135    1.568315   -3.469853
     16          8           0        3.747955    1.039104    1.169837
     17          8           0        2.565583    3.056033    0.179457
     18          1           0       -1.067647    0.725794   -2.557899
     19          1           0       -1.550754   -1.429569   -1.345526
     20          1           0        5.064810   -0.246554   -0.746969
     21          1           0        3.544775    3.521188   -2.147837
     22          1           0        5.162242    3.465284   -4.049184
     23          1           0        6.656550   -0.317785   -2.657453
     24          1           0        6.701822    1.539463   -4.298376
     25          6           0        2.446956   -1.280111    1.190991
     26          8           0        3.295690   -1.955364    0.658093
     27          6           0        2.219718   -1.254016    2.712115
     28          6           0        1.267389   -0.124492    3.136379
     29          6           0        1.624097   -2.628352    3.115528
     30          6           0        3.588277   -1.095692    3.408932
     31          1           0        0.278135   -0.224662    2.678746
     32          1           0        1.673176    0.857426    2.886349
     33          1           0        1.122791   -0.160020    4.219370
     34          1           0        0.639790   -2.796328    2.679428
     35          1           0        1.534262   -2.661864    4.204831
     36          1           0        2.281127   -3.440432    2.797971
     37          1           0        4.030625   -0.123784    3.195425
     38          1           0        4.279683   -1.873331    3.080131
     39          1           0        3.450420   -1.192162    4.489512
 ---------------------------------------------------------------------

 SCF Done:  E(UB3LYP) =  -1431.94738677     A.U. after    2 cycles

 Alpha  occ. eigenvalues --  -89.07055 -19.16543 -19.16064 -19.13951 -19.13245
 Alpha  occ. eigenvalues --  -19.13213 -10.31429 -10.31175 -10.29325 -10.25820
 Alpha  occ. eigenvalues --  -10.25736 -10.23783 -10.23675 -10.22820 -10.20877
 Alpha  occ. eigenvalues --  -10.20728 -10.20498 -10.20324 -10.20184 -10.20151
 Alpha  occ. eigenvalues --  -10.16774 -10.16329 -10.15569  -8.13422  -6.09668
 Alpha  occ. eigenvalues --   -6.09625  -6.09531  -1.13000  -1.09921  -1.09334
 Alpha  occ. eigenvalues --   -1.07585  -1.02468  -0.89539  -0.89163  -0.83697
 Alpha  occ. eigenvalues --   -0.82487  -0.79639  -0.77884  -0.74730  -0.70776
 Alpha  occ. eigenvalues --   -0.69626  -0.68890  -0.67657  -0.64850  -0.63799
 Alpha  occ. eigenvalues --   -0.62115  -0.60366  -0.56194  -0.55921  -0.54827
 Alpha  occ. eigenvalues --   -0.52830  -0.51669  -0.49972  -0.49656  -0.49114
 Alpha  occ. eigenvalues --   -0.48536  -0.47429  -0.47045  -0.46636  -0.46579
 Alpha  occ. eigenvalues --   -0.46126  -0.45257  -0.44690  -0.44436  -0.44191
 Alpha  occ. eigenvalues --   -0.43051  -0.41488  -0.40135  -0.39682  -0.39364
 Alpha  occ. eigenvalues --   -0.38597  -0.37808  -0.37530  -0.37042  -0.35636
 Alpha  occ. eigenvalues --   -0.34604  -0.34027  -0.33652  -0.33398  -0.33317
 Alpha  occ. eigenvalues --   -0.32713  -0.31966  -0.31184  -0.30170  -0.28763
 Alpha  occ. eigenvalues --   -0.28304  -0.26976
 Alpha virt. eigenvalues --   -0.15876  -0.07460  -0.05249  -0.04624  -0.03767
 Alpha virt. eigenvalues --   -0.03046  -0.01393  -0.00923  -0.00107   0.00954
 Alpha virt. eigenvalues --    0.01321   0.01556   0.02000   0.02212   0.02940

  Beta  occ. eigenvalues --  -89.07055 -19.16543 -19.16064 -19.13951 -19.13245
  Beta  occ. eigenvalues --  -19.13213 -10.31429 -10.31175 -10.29325 -10.25820
  Beta  occ. eigenvalues --  -10.25736 -10.23783 -10.23675 -10.22820 -10.20877
  Beta  occ. eigenvalues --  -10.20728 -10.20498 -10.20324 -10.20184 -10.20151
  Beta  occ. eigenvalues --  -10.16774 -10.16329 -10.15569  -8.13422  -6.09668
  Beta  occ. eigenvalues --   -6.09625  -6.09531  -1.13000  -1.09921  -1.09334
  Beta  occ. eigenvalues --   -1.07585  -1.02468  -0.89539  -0.89163  -0.83697
  Beta  occ. eigenvalues --   -0.82487  -0.79639  -0.77884  -0.74730  -0.70776
  Beta  occ. eigenvalues --   -0.69626  -0.68890  -0.67657  -0.64850  -0.63799
  Beta  occ. eigenvalues --   -0.62115  -0.60366  -0.56194  -0.55921  -0.54827
  Beta  occ. eigenvalues --   -0.52830  -0.51669  -0.49972  -0.49656  -0.49114
  Beta  occ. eigenvalues --   -0.48536  -0.47429  -0.47045  -0.46636  -0.46579
  Beta  occ. eigenvalues --   -0.46126  -0.45257  -0.44690  -0.44436  -0.44191
  Beta  occ. eigenvalues --   -0.43051  -0.41488  -0.40135  -0.39682  -0.39364
  Beta  occ. eigenvalues --   -0.38597  -0.37808  -0.37530  -0.37042  -0.35636
  Beta  occ. eigenvalues --   -0.34604  -0.34027  -0.33652  -0.33398  -0.33317
  Beta  occ. eigenvalues --   -0.32713  -0.31966  -0.31184  -0.30170  -0.28763
  Beta  occ. eigenvalues --   -0.28304  -0.26976
  Beta virt. eigenvalues --   -0.15876  -0.07460  -0.05249  -0.04624  -0.03767
  Beta virt. eigenvalues --   -0.03046  -0.01393  -0.00923  -0.00107   0.00954
  Beta virt. eigenvalues --    0.01321   0.01556   0.02000   0.02212   0.02940

 Mulliken charges and spin densities:
               1          2
     1  C   -0.232050   0.000000
     2  C   -0.087665   0.000000
     3  C   -0.043172   0.000000
     4  C   -0.487984  -0.000000
     5  C    0.511574   0.000000
     6  C   -0.026880  -0.000000
     7  O   -0.150214  -0.000000
     8  O   -0.134695   0.000000
     9  S    0.214461  -0.000000
    10  C    0.875263  -0.000000
    11  C   -0.356561   0.000000
    12  C   -0.073137   0.000000
    13  C   -0.433835   0.000000
    14  C   -0.536800   0.000000
    15  C   -0.318031   0.000000
    16  O   -0.043114   0.000000
    17  O   -0.020637   0.000000
    18  H    0.237238  -0.000000
    19  H    0.232419   0.000000
    20  H    0.226197   0.000000
    21  H    0.269721  -0.000000
    22  H    0.193377   0.000000
    23  H    0.201413   0.000000
    24  H    0.169806   0.000000
    25  C   -0.203724   0.000000
    26  O   -0.136226  -0.000000
    27  C    0.179787  -0.000000
    28  C   -0.483945  -0.000000
    29  C   -0.515892   0.000000
    30  C   -0.545575   0.000000
    31  H    0.123578  -0.000000
    32  H    0.218733   0.000000
    33  H    0.173232   0.000000
    34  H    0.172156   0.000000
    35  H    0.149253  -0.000000
    36  H    0.183755  -0.000000
    37  H    0.168384   0.000000
    38  H    0.173164  -0.000000
    39  H    0.156627  -0.000000
 Sum of Mulliken charges =  -0.00000   0.00000

 Dipole moment (field-independent basis, Debye):
    X=             -1.2331    Y=             -0.7557    Z=             -2.9459  Tot=              3.2818
 Quadrupole moment (field-independent basis, Debye-Ang):
   XX=           -132.5688   YY=           -159.2304   ZZ=           -129.8661
   XY=              0.4121   XZ=            -14.4426   YZ=             -5.0306

  Exact polarizability: 224.776  15.792 233.268 -26.221 -54.560 238.424
 Approx polarizability: 324.761   2.440 443.938 -38.594 -98.359 356.292

                      1                      2                      3
                      A                      A                      A
 Frequencies --     22.1281                32.8401                38.7406
 Red. masses --      5.1798                 4.2464                 6.0653
 Frc consts  --      0.0015                 0.0027                 0.0054
 IR Inten    --      1.7535                 0.5946                 0.6081

                      4                      5                      6
                      A                      A                      A
 Frequencies --     45.6046                57.0133                79.4411
 Red. masses --      3.3178                 5.5200                 6.7713
 Frc consts  --      0.0041                 0.0106                 0.0252
 IR Inten    --      0.4666                 4.1548                 2.0040

                      7                      8                      9
                      A                      A                      A
 Frequencies --    107.1092               130.9089               139.8161
 Red. masses --      5.1574                 6.4727                 8.2760
 Frc consts  --      0.0349                 0.0654                 0.0953
 IR Inten    --      4.1511                 2.3556                 0.7949

                     10                     11                     12
                      A                      A                      A
 Frequencies --    167.8927               175.6223               191.5840
 Red. masses --      8.1622                 6.3181                 6.3390
 Frc consts  --      0.1356                 0.1148                 0.1371
 IR Inten    --      0.7019                 1.9708                 4.2869

                     13                     14                     15
                      A                      A                      A
 Frequencies --    210.9566               219.6521               237.3134
 Red. masses --      1.1168                 5.2335                 2.1293
 Frc consts  --      0.0293                 0.1488                 0.0707
 IR Inten    --      0.1888                 2.0233                 0.3567

                     16                     17                     18
                      A                      A                      A
 Frequencies --    241.9976               252.7521               269.1696
 Red. masses --      2.6678                 2.5095                 3.1267
 Frc consts  --      0.0921                 0.0945                 0.1335
 IR Inten    --      0.1765                 3.5103                 0.5795

                     19                     20                     21
                      A                      A                      A
 Frequencies --    275.8149               279.5851               300.8960
 Red. masses --      1.3012                 8.1136                 2.2689
 Frc consts  --      0.0583                 0.3737                 0.1210
 IR Inten    --      0.6187                 0.2159                 7.3732

                     22                     23                     24
                      A                      A                      A
 Frequencies --    305.8517               347.4033               360.2292
 Red. masses --      8.5609                 5.2586                 2.8419
 Frc consts  --      0.4718                 0.3739                 0.2173
 IR Inten    --      2.9107                 3.4607                 1.0620

                     25                     26                     27
                      A                      A                      A
 Frequencies --    372.1519               404.8012               410.2506
 Red. masses --      2.4275                 4.7558                 2.9543
 Frc consts  --      0.1981                 0.4592                 0.2930
 IR Inten    --      3.3821                 7.1456                 0.6455

                     28                     29                     30
                      A                      A                      A
 Frequencies --    428.9755               446.5005               453.9934
 Red. masses --      4.0311                 9.4017                 5.2315
 Frc consts  --      0.4371                 1.1043                 0.6353
 IR Inten    --      2.6947                11.2464                13.0160

                     31                     32                     33
                      A                      A                      A
 Frequencies --    490.4565               509.2398               542.2349
 Red. masses --      7.4406                 6.8011                 5.3842
 Frc consts  --      1.0545                 1.0391                 0.9327
 IR Inten    --     26.7814                26.5953                35.2528

                     34                     35                     36
                      A                      A                      A
 Frequencies --    587.4988               594.7012               604.0413
 Red. masses --      5.2866                 7.3773                 3.9294
 Frc consts  --      1.0751                 1.5373                 0.8447
 IR Inten    --     25.2757                94.0356                16.9257

                     37                     38                     39
                      A                      A                      A
 Frequencies --    625.7803               640.2495               677.8424
 Red. masses --      6.4342                 3.4126                 7.0481
 Frc consts  --      1.4845                 0.8242                 1.9080
 IR Inten    --      0.0644                 8.5064                12.7789

                     40                     41                     42
                      A                      A                      A
 Frequencies --    699.4686               708.9131               723.2576
 Red. masses --      2.1422                 5.9997                 7.0074
 Frc consts  --      0.6175                 1.7765                 2.1597
 IR Inten    --     37.4322                 3.6633                60.3631

                     43                     44                     45
                      A                      A                      A
 Frequencies --    765.6684               790.5055               817.8744
 Red. masses --      1.5854                 4.9630                 5.7402
 Frc consts  --      0.5476                 1.8273                 2.2623
 IR Inten    --     25.1167                 9.8911                 8.7871

                     46                     47                     48
                      A                      A                      A
 Frequencies --    851.6597               856.5071               865.5252
 Red. masses --      2.9832                 1.2447                 3.5283
 Frc consts  --      1.2749                 0.5380                 1.5573
 IR Inten    --     24.5808                 0.2538                50.7094

                     49                     50                     51
                      A                      A                      A
 Frequencies --    876.4434               932.2875               948.6106
 Red. masses --      5.1693                 1.8742                 1.5788
 Frc consts  --      2.3395                 0.9598                 0.8371
 IR Inten    --     10.3120                 2.2839                 2.5406

                     52                     53                     54
                      A                      A                      A
 Frequencies --    948.9812               973.0099               992.7695
 Red. masses --      1.3728                 1.2106                 4.0707
 Frc consts  --      0.7284                 0.6753                 2.3638
 IR Inten    --      0.2798                 0.1267               101.1257

                     55                     56                     57
                      A                      A                      A
 Frequencies --    996.7908              1012.9361              1014.4595
 Red. masses --      1.3792                 2.1239                 2.2141
 Frc consts  --      0.8074                 1.2839                 1.3425
 IR Inten    --      0.2565                 2.1468                 3.2957

                     58                     59                     60
                      A                      A                      A
 Frequencies --   1019.1501              1037.8618              1041.5279
 Red. masses --      1.2727                 1.9290                 2.3191
 Frc consts  --      0.7789                 1.2242                 1.4822
 IR Inten    --      0.5255                16.1244                 1.6952

                     61                     62                     63
                      A                      A                      A
 Frequencies --   1049.4848              1072.3904              1098.1821
 Red. masses --      1.6133                 3.1359                 2.6186
 Frc consts  --      1.0469                 2.1248                 1.8607
 IR Inten    --     12.8099                51.7464                20.7353

                     64                     65                     66
                      A                      A                      A
 Frequencies --   1103.3790              1115.5794              1120.5212
 Red. masses --      1.5884                 1.8511                 5.5084
 Frc consts  --      1.1393                 1.3573                 4.0749
 IR Inten    --      9.5622               155.4809               137.3829

                     67                     68                     69
                      A                      A                      A
 Frequencies --   1186.0981              1203.1519              1208.8168
 Red. masses --      1.1221                 1.1580                 2.4951
 Frc consts  --      0.9301                 0.9876                 2.1481
 IR Inten    --      0.2483                 5.5822                 3.9306

                     70                     71                     72
                      A                      A                      A
 Frequencies --   1243.6745              1255.3154              1267.7687
 Red. masses --      2.9853                 3.3361                 3.1057
 Frc consts  --      2.7205                 3.0974                 2.9409
 IR Inten    --     15.6948                14.6658                 8.2988

                     73                     74                     75
                      A                      A                      A
 Frequencies --   1276.2035              1280.1195              1333.6388
 Red. masses --      2.8076                16.7995                 3.0073
 Frc consts  --      2.6941                16.2199                 3.1514
 IR Inten    --    147.4903               148.3631                 0.0373

                     76                     77                     78
                      A                      A                      A
 Frequencies --   1350.7013              1386.8107              1394.7093
 Red. masses --      1.7453                 1.8328                 1.1925
 Frc consts  --      1.8760                 2.0768                 1.3667
 IR Inten    --      2.7071                 1.1137                 5.9266

                     79                     80                     81
                      A                      A                      A
 Frequencies --   1398.7772              1428.9849              1477.2684
 Red. masses --      1.2116                 1.2181                 1.5856
 Frc consts  --      1.3967                 1.4655                 2.0387
 IR Inten    --     14.8175                14.9929                 8.9414

                     82                     83                     84
                      A                      A                      A
 Frequencies --   1477.4663              1490.4330              1495.8636
 Red. masses --      1.2662                 1.0454                 1.0470
 Frc consts  --      1.6285                 1.3683                 1.3803
 IR Inten    --      9.4096                 3.5772                 2.0314

                     85                     86                     87
                      A                      A                      A
 Frequencies --   1501.8353              1507.4891              1509.4378
 Red. masses --      1.0517                 1.9927                 1.0472
 Frc consts  --      1.3976                 2.6680                 1.4058
 IR Inten    --      4.0413                 4.1939                11.5517

                     88                     89                     90
                      A                      A                      A
 Frequencies --   1527.0334              1610.8731              1621.1244
 Red. masses --      1.0601                11.4790                 5.2464
 Frc consts  --      1.4565                17.5500                 8.1236
 IR Inten    --     27.5853                12.0764                 3.7203

                     91                     92                     93
                      A                      A                      A
 Frequencies --   1624.6241              1680.2952              1723.0325
 Red. masses --      5.7591                 8.1118                11.0889
 Frc consts  --      8.9559                13.4939                19.3965
 IR Inten    --      0.2036                 7.7247                47.0791

                     94                     95                     96
                      A                      A                      A
 Frequencies --   1729.0806              1763.2383              3025.6793
 Red. masses --     11.9890                12.5547                 1.0375
 Frc consts  --     21.1185                22.9973                 5.5961
 IR Inten    --    342.5727               115.0216                22.0283

                     97                     98                     99
                      A                      A                      A
 Frequencies --   3034.6787              3040.7267              3083.3960
 Red. masses --      1.0379                 1.0388                 1.0991
 Frc consts  --      5.6317                 5.6592                 6.1564
 IR Inten    --     11.2662                47.4007                32.9753

                    100                    101                    102
                      A                      A                      A
 Frequencies --   3101.1279              3106.4376              3111.0394
 Red. masses --      1.0999                 1.0988                 1.1013
 Frc consts  --      6.2323                 6.2472                 6.2799
 IR Inten    --      3.5612                26.4914                14.4478

                    103                    104                    105
                      A                      A                      A
 Frequencies --   3131.5561              3141.0939              3170.3699
 Red. masses --      1.1006                 1.1010                 1.0866
 Frc consts  --      6.3593                 6.4001                 6.4348
 IR Inten    --     12.9910                 6.7783                 1.1083

                    106                    107                    108
                      A                      A                      A
 Frequencies --   3180.4445              3183.1951              3191.0057
 Red. masses --      1.0875                 1.0898                 1.0941
 Frc consts  --      6.4810                 6.5061                 6.5639
 IR Inten    --      0.1457                 9.7334                 6.4032

                    109                    110                    111
                      A                      A                      A
 Frequencies --   3197.6560              3200.0977              3216.2868
 Red. masses --      1.1000                 1.0960                 1.0936
 Frc consts  --      6.6267                 6.6128                 6.6654
 IR Inten    --      1.0783                 9.8884                 4.3315

 - Thermochemistry -
 -------------------
 Temperature   298.150 Kelvin.  Pressure   1.00000 Atm.
 Atom     1 has atomic number  6 and mass  12.00000

 Molecular mass:   332.07185 amu.
 Principal axes and moments of inertia in atomic units:
                           1         2         3
     Eigenvalues --  4663.347229004.92698**********
           X           -0.50432   0.83026  -0.23733
           Y           -0.55603  -0.10195   0.82489
           Z            0.66068   0.54797   0.51306
 This molecule is an asymmetric top.
 Rotational symmetry number  1.
 Warning -- assumption of classical behavior for rotation
           may cause significant error
 Rotational temperatures (Kelvin)      0.01857     0.00962     0.00809
 Rotational constants (GHZ):           0.38701     0.20042     0.16861
 Zero-point vibrational energy     776265.4 (Joules/Mol)
                                  185.53189 (Kcal/Mol)
 Warning -- explicit consideration of  36 degrees of freedom as
           vibrations may cause significant error
 Vibrational temperatures:     31.84    47.25    55.74    65.61    82.03
          (Kelvin)            114.30   154.11   188.35   201.16   241.56
                              252.68   275.65   303.52   316.03   341.44
                              348.18   363.65   387.27   396.84   402.26
                              432.92   440.05   499.84   518.29   535.44
                              582.42   590.26   617.20   642.41   653.20
                              705.66   732.68   780.16   845.28   855.64
                              869.08   900.36   921.18   975.26  1006.38
                             1019.97  1040.61  1101.63  1137.36  1176.74
                             1225.35  1232.32  1245.30  1261.01  1341.35
                             1364.84  1365.37  1399.94  1428.37  1434.16
                             1457.39  1459.58  1466.33  1493.25  1498.53
                             1509.97  1542.93  1580.04  1587.52  1605.07
                             1612.18  1706.53  1731.07  1739.22  1789.37
                             1806.12  1824.04  1836.17  1841.81  1918.81
                             1943.36  1995.31  2006.68  2012.53  2055.99
                             2125.46  2125.74  2144.40  2152.21  2160.81
                             2168.94  2171.74  2197.06  2317.69  2332.44
                             2337.47  2417.57  2479.06  2487.76  2536.91
                             4353.28  4366.23  4374.93  4436.32  4461.83
                             4469.47  4476.09  4505.61  4519.33  4561.46
                             4575.95  4579.91  4591.15  4600.71  4604.23
                             4627.52

 Zero-point correction=                           0.295664 (Hartree/Particle)
 Thermal correction to Energy=                    0.317772
 Thermal correction to Enthalpy=                  0.318716
 Thermal correction to Gibbs Free Energy=         0.243748
 Sum of electronic and zero-point Energies=          -1431.651723
 Sum of electronic and thermal Energies=             -1431.629615
 Sum of electronic and thermal Enthalpies=           -1431.628671
 Sum of electronic and thermal Free Energies=        -1431.703639

                     E (Thermal)             CV                S
                      KCal/Mol        Cal/Mol-Kelvin    Cal/Mol-Kelvin
 Total                  199.405             83.569            157.784
 Electronic               0.000              0.000              0.000
 Translational            0.889              2.981             43.296
 Rotational               0.889              2.981             34.463
 Vibrational            197.628             77.608             80.026
 Vibration     1          0.593              1.985              6.433
 Vibration     2          0.594              1.983              5.650
 Vibration     3          0.594              1.981              5.322
 Vibration     4          0.595              1.979              4.999
 Vibration     5          0.596              1.975              4.558
 Vibration     6          0.600              1.963              3.905
 Vibration     7          0.606              1.944              3.321
 Vibration     8          0.612              1.922              2.933
 Vibration     9          0.615              1.914              2.806
 Vibration    10          0.625              1.882              2.459
 Vibration    11          0.628              1.872              2.374
 Vibration    12          0.634              1.852              2.212
 Vibration    13          0.643              1.824              2.035
 Vibration    14          0.647              1.811              1.962
 Vibration    15          0.656              1.784              1.823
 Vibration    16          0.658              1.776              1.788
 Vibration    17          0.664              1.758              1.711
 Vibration    18          0.674              1.730              1.602
 Vibration    19          0.677              1.718              1.559
 Vibration    20          0.680              1.711              1.536
 Vibration    21          0.693              1.672              1.412
 Vibration    22          0.696              1.663              1.385
 Vibration    23          0.725              1.581              1.178
 Vibration    24          0.735              1.554              1.121
 Vibration    25          0.744              1.529              1.071
 Vibration    26          0.770              1.460              0.945
 Vibration    27          0.774              1.448              0.926
 Vibration    28          0.790              1.407              0.862
 Vibration    29          0.806              1.369              0.806
 Vibration    30          0.812              1.352              0.784
 Vibration    31          0.846              1.271              0.682
 Vibration    32          0.864              1.230              0.635
 Vibration    33          0.897              1.157              0.560
 Vibration    34          0.945              1.058              0.472
 Vibration    35          0.952              1.043              0.459
 Vibration    36          0.963              1.023              0.443

                           ! Non-Optimized Parameters !
 Normal termination of Gaussian 16 at Wed Dec 20 18:17:27 2023.
