 Q-Chem 5.4, Q-Chem, Inc., Pleasanton, CA (2021)
 Q-Chem 5.4.0 for Intel X86 EM64T Linux

User input:
--------------------------------------------------------------
$molecule
-2 1
C                  2.1478390000      3.7327650000      5.6239300000
C                  3.0231830000      3.0840190000      4.7174550000
C                  2.5825430000      2.2632890000      3.6757730000
C                  1.1965710000      1.9949730000      3.4287620000
C                  0.3256120000      2.6524780000      4.3580660000
C                  0.7535510000      3.4770430000      5.4136250000
O                  2.5903910000      4.5282320000      6.5963000000
O                  0.7749470000      1.2335100000      2.4623830000
C                 -0.2463960000      4.2226390000      6.2996980000
C                 -1.5806180000      3.5006820000      6.5250350000
O                  0.2922230000      4.5224210000      7.5853870000
H                  4.0908730000      3.2589500000      4.8601360000
H                  3.3068650000      1.7949630000      3.0071750000
H                 -0.7372660000      2.4726700000      4.2073130000
H                 -0.4933460000      5.1851210000      5.7931270000
H                 -2.1353790000      3.3633090000      5.5923120000
H                 -2.1934410000      4.0965240000      7.2128730000
H                 -1.4032800000      2.5182910000      6.9753660000
H                  1.2968880000      4.6233090000      7.3842940000
$end
$rem
MAX_SCF_CYCLES=200
BASIS  =  6-311++G(d,p)
GUI  =  2
JOB_TYPE  =  SP
METHOD  =  B3LYP
SOLVENT_METHOD = PCM
$end
$pcm
theory = CPCM
$end
$solvent
dielectric 37.219
opticaldielectric 1.43
$end

--------------------------------------------------------------

             Standard Nuclear Orientation (Angstroms)
    I     Atom           X                Y                Z
 ----------------------------------------------------------------
    1      C       2.1478390000     3.7327650000     5.6239300000
    2      C       3.0231830000     3.0840190000     4.7174550000
    3      C       2.5825430000     2.2632890000     3.6757730000
    4      C       1.1965710000     1.9949730000     3.4287620000
    5      C       0.3256120000     2.6524780000     4.3580660000
    6      C       0.7535510000     3.4770430000     5.4136250000
    7      O       2.5903910000     4.5282320000     6.5963000000
    8      O       0.7749470000     1.2335100000     2.4623830000
    9      C      -0.2463960000     4.2226390000     6.2996980000
   10      C      -1.5806180000     3.5006820000     6.5250350000
   11      O       0.2922230000     4.5224210000     7.5853870000
   12      H       4.0908730000     3.2589500000     4.8601360000
   13      H       3.3068650000     1.7949630000     3.0071750000
   14      H      -0.7372660000     2.4726700000     4.2073130000
   15      H      -0.4933460000     5.1851210000     5.7931270000
   16      H      -2.1353790000     3.3633090000     5.5923120000
   17      H      -2.1934410000     4.0965240000     7.2128730000
   18      H      -1.4032800000     2.5182910000     6.9753660000
   19      H       1.2968880000     4.6233090000     7.3842940000
 ----------------------------------------------------------------

    9    -535.7421597720      5.68e-06  Convergence criterion met
 Total energy in the final basis set =     -535.7421597720

                    Orbital Energies (a.u.)
 --------------------------------------------------------------

 Alpha MOs
 -- Occupied --
-19.0737 -19.0315 -19.0189 -10.1993 -10.1727 -10.1727 -10.1420 -10.1363
-10.1281 -10.1245 -10.1234  -0.9839  -0.9300  -0.9274  -0.7868  -0.7350
 -0.6901  -0.6539  -0.5946  -0.5509  -0.5286  -0.4637  -0.4446  -0.4337
 -0.4288  -0.3962  -0.3717  -0.3644  -0.3607  -0.3589  -0.3481  -0.3395
 -0.3175  -0.3166  -0.3089  -0.2494  -0.2287  -0.2141  -0.2073  -0.1978
 -0.1283

          Ground-State Mulliken Net Atomic Charges

     Atom                 Charge (a.u.)
  ----------------------------------------
      1 C                    -0.662346
      2 C                     0.043083
      3 C                    -0.076467
      4 C                    -0.285868
      5 C                    -1.176614
      6 C                     1.348324
      7 O                    -0.718684
      8 O                    -0.760614
      9 C                    -0.095946
     10 C                    -0.502572
     11 O                    -0.438137
     12 H                     0.149791
     13 H                     0.144287
     14 H                     0.107171
     15 H                     0.143744
     16 H                     0.148964
     17 H                     0.147528
     18 H                     0.147458
     19 H                     0.336898
  ----------------------------------------
  Sum of atomic charges =    -2.000000

                    Cartesian Multipole Moments
 -----------------------------------------------------------------
    Charge (ESU x 10^10)
                -9.6064
    Dipole Moment (Debye)
         X     -13.7566      Y     -28.3274      Z     -46.7918
       Tot      56.4018
    Quadrupole Moments (Debye-Ang)
        XX    -101.8604     XY     -48.7098     YY    -181.7373
        XZ     -73.1076     YZ    -170.4667     ZZ    -350.7501

 Total job time:  39.92s(wall), 120.67s(cpu)
        *  Thank you very much for using Q-Chem.  Have a nice day.  *
