 Gaussian 16, Revision A.03,
 Gaussian 16:  ES64L-G16RevA.03 25-Dec-2016

 --------------------------------------
 #P UB3LYP/6-311++G(d,p) nosym opt freq
 --------------------------------------

 -------
 Reduced
 -------
 Symbolic Z-matrix:
 Charge = -2 Multiplicity = 1

 SCF Done:  E(UB3LYP) =  -690.063475716     A.U. after  127 cycles
 SCF Done:  E(UB3LYP) =  -690.085695321     A.U. after   41 cycles
 SCF Done:  E(UB3LYP) =  -690.087708020     A.U. after   39 cycles
 SCF Done:  E(UB3LYP) =  -690.089078036     A.U. after   55 cycles
 SCF Done:  E(UB3LYP) =  -690.089437155     A.U. after   50 cycles
 SCF Done:  E(UB3LYP) =  -690.089525856     A.U. after   34 cycles
 SCF Done:  E(UB3LYP) =  -690.089530884     A.U. after   31 cycles
 SCF Done:  E(UB3LYP) =  -690.089533657     A.U. after   32 cycles
 SCF Done:  E(UB3LYP) =  -690.089533995     A.U. after   30 cycles
 SCF Done:  E(UB3LYP) =  -690.089533800     A.U. after   27 cycles
 Optimization completed.
    -- Stationary point found.
 Normal termination of Gaussian 16 at Sat Jan  6 03:35:44 2024.

 ----------------------------------------------------------------------
 #P Geom=AllCheck Guess=TCheck SCRF=Check GenChk UB3LYP/6-311++G(d,p) F
 req
 ----------------------------------------------------------------------

 Structure from the checkpoint file:  "346-an.chk"
 -------
 Reduced
 -------
 Charge = -2 Multiplicity = 1

                          Input orientation:
 ---------------------------------------------------------------------
 Center     Atomic      Atomic             Coordinates (Angstroms)
 Number     Number       Type             X           Y           Z
 ---------------------------------------------------------------------
      1          8           0       -0.051244   -1.193706    1.283928
      2          6           0       -0.456430   -0.376448    0.381246
      3          6           0       -1.931651   -0.234888    0.217370
      4          6           0       -2.749038   -1.031649    1.063662
      5          6           0       -4.136195   -0.986430    1.006540
      6          6           0       -4.790114   -0.151650    0.090021
      7          6           0       -4.003248    0.632143   -0.764178
      8          6           0       -2.611131    0.595308   -0.712999
      9          6           0        0.456411    0.376160   -0.481867
     10          8           0        0.051108    1.193867   -1.384109
     11          6           0        1.931643    0.234823   -0.317867
     12          6           0        2.749007    1.031732   -1.164054
     13          6           0        4.136166    0.986549   -1.106956
     14          6           0        4.790135    0.151674   -0.190560
     15          6           0        4.003300   -0.632205    0.663587
     16          6           0        2.611185   -0.595428    0.612427
     17          1           0       -2.235429   -1.682454    1.761789
     18          1           0       -4.723090   -1.608688    1.681140
     19          1           0       -5.876888   -0.107601    0.049915
     20          1           0       -4.487730    1.287414   -1.486535
     21          1           0       -2.008089    1.194637   -1.380420
     22          1           0        2.235341    1.682589   -1.862093
     23          1           0        4.723041    1.608942   -1.781439
     24          1           0        5.876922    0.107683   -0.150428
     25          1           0        4.487849   -1.287484    1.385895
     26          1           0        2.008170   -1.194890    1.279769
 ---------------------------------------------------------------------

 SCF Done:  E(UB3LYP) =  -690.089533801     A.U. after    4 cycles

 Alpha  occ. eigenvalues --  -18.80129 -18.80128  -9.95693  -9.95660  -9.94926
 Alpha  occ. eigenvalues --   -9.94926  -9.94693  -9.94693  -9.94626  -9.94626
 Alpha  occ. eigenvalues --   -9.93348  -9.93348  -9.93201  -9.93201  -9.92856
 Alpha  occ. eigenvalues --   -9.92855  -0.72773  -0.70908  -0.61819  -0.61632
 Alpha  occ. eigenvalues --   -0.51662  -0.51332  -0.51190  -0.51105  -0.41831
 Alpha  occ. eigenvalues --   -0.38515  -0.37170  -0.36501  -0.34363  -0.30630
 Alpha  occ. eigenvalues --   -0.28240  -0.24903  -0.23554  -0.21379  -0.21004
 Alpha  occ. eigenvalues --   -0.20798  -0.18933  -0.18896  -0.17289  -0.16488
 Alpha  occ. eigenvalues --   -0.15247  -0.13845  -0.13727  -0.12894  -0.10985
 Alpha  occ. eigenvalues --   -0.10304  -0.09942  -0.09814  -0.06416  -0.02567
 Alpha  occ. eigenvalues --   -0.02546  -0.01261  -0.00627   0.00329   0.04538
 Alpha  occ. eigenvalues --    0.12596
 Alpha virt. eigenvalues --    0.13956   0.14107   0.16107   0.16148   0.17455
 Alpha virt. eigenvalues --    0.17683   0.19082   0.20422   0.20782   0.21620
 Alpha virt. eigenvalues --    0.21761   0.22789   0.23472   0.23863   0.24224

  Beta  occ. eigenvalues --  -18.80129 -18.80128  -9.95693  -9.95660  -9.94926
  Beta  occ. eigenvalues --   -9.94926  -9.94693  -9.94693  -9.94626  -9.94626
  Beta  occ. eigenvalues --   -9.93348  -9.93348  -9.93201  -9.93201  -9.92856
  Beta  occ. eigenvalues --   -9.92855  -0.72773  -0.70908  -0.61819  -0.61632
  Beta  occ. eigenvalues --   -0.51662  -0.51332  -0.51190  -0.51105  -0.41831
  Beta  occ. eigenvalues --   -0.38515  -0.37170  -0.36501  -0.34363  -0.30630
  Beta  occ. eigenvalues --   -0.28240  -0.24903  -0.23554  -0.21379  -0.21004
  Beta  occ. eigenvalues --   -0.20798  -0.18933  -0.18896  -0.17289  -0.16488
  Beta  occ. eigenvalues --   -0.15247  -0.13845  -0.13727  -0.12894  -0.10985
  Beta  occ. eigenvalues --   -0.10304  -0.09942  -0.09814  -0.06416  -0.02567
  Beta  occ. eigenvalues --   -0.02546  -0.01261  -0.00627   0.00329   0.04538
  Beta  occ. eigenvalues --    0.12596
  Beta virt. eigenvalues --    0.13956   0.14107   0.16107   0.16148   0.17455
  Beta virt. eigenvalues --    0.17683   0.19082   0.20422   0.20782   0.21620
  Beta virt. eigenvalues --    0.21761   0.22789   0.23472   0.23863   0.24224

 Mulliken charges and spin densities:
               1          2
     1  O   -0.416308  -0.000000
     2  C   -0.171080   0.000000
     3  C    1.859472  -0.000000
     4  C    0.281278  -0.000000
     5  C    0.014263   0.000000
     6  C   -0.013621  -0.000000
     7  C   -0.398357   0.000000
     8  C   -1.469336  -0.000000
     9  C   -0.172256  -0.000000
    10  O   -0.416297  -0.000000
    11  C    1.858495  -0.000000
    12  C    0.281598  -0.000000
    13  C    0.013203   0.000000
    14  C   -0.013217   0.000000
    15  C   -0.398926  -0.000000
    16  C   -1.469004   0.000000
    17  H    0.175918  -0.000000
    18  H   -0.082694   0.000000
    19  H   -0.987519   0.000000
    20  H    0.009406   0.000000
    21  H    0.200027  -0.000000
    22  H    0.175922  -0.000000
    23  H   -0.082717  -0.000000
    24  H   -0.987594  -0.000000
    25  H    0.009306  -0.000000
    26  H    0.200038   0.000000
 Sum of Mulliken charges =  -2.00000  -0.00000

 Dipole moment (field-independent basis, Debye):
    X=             -0.0006    Y=             -0.0006    Z=              0.4819  Tot=              0.4819
 Quadrupole moment (field-independent basis, Debye-Ang):
   XX=           -273.8875   YY=           -121.9458   ZZ=           -123.4539
   XY=             -3.2987   XZ=              9.7877   YZ=              6.9149

  Exact polarizability:8765.778 201.028 676.413-392.653-543.353 748.170
 Approx polarizability:******** 334.565 500.723-796.955-311.078 581.448

                      1                      2                      3
                      A                      A                      A
 Frequencies --     35.5854                52.6973                96.4789
 Red. masses --      6.4008                 3.8495                 6.7988
 Frc consts  --      0.0048                 0.0063                 0.0373
 IR Inten    --      1.8379                 0.8197                 0.0240

                      4                      5                      6
                      A                      A                      A
 Frequencies --    118.7302               159.9107               188.8236
 Red. masses --      5.1508                 4.5249                 5.5164
 Frc consts  --      0.0428                 0.0682                 0.1159
 IR Inten    --      2.9767                 0.0156                39.9924

                      7                      8                      9
                      A                      A                      A
 Frequencies --    221.4250               282.4387               326.4560
 Red. masses --      6.1232                 4.9512                 7.6579
 Frc consts  --      0.1769                 0.2327                 0.4808
 IR Inten    --      0.0864                 0.0314                99.7665

                     10                     11                     12
                      A                      A                      A
 Frequencies --    377.5480               410.5877               425.0747
 Red. masses --      4.6949                11.4749                 3.2157
 Frc consts  --      0.3943                 1.1398                 0.3423
 IR Inten    --     59.6396                 0.0032                 1.0818

                     13                     14                     15
                      A                      A                      A
 Frequencies --    427.6845               442.3151               456.2042
 Red. masses --      3.2525                 3.4231                 8.4563
 Frc consts  --      0.3505                 0.3946                 1.0369
 IR Inten    --      0.0024                 0.0829                55.1676

                     16                     17                     18
                      A                      A                      A
 Frequencies --    581.8681               614.6376               631.5048
 Red. masses --      3.6397                 9.6521                 6.4363
 Frc consts  --      0.7260                 2.1484                 1.5123
 IR Inten    --     37.0043                 0.1120                 7.3137

                     19                     20                     21
                      A                      A                      A
 Frequencies --    633.3423               637.9212               701.8657
 Red. masses --      6.4593                 7.6979                 2.8249
 Frc consts  --      1.5266                 1.8457                 0.8199
 IR Inten    --      0.4147                24.5296                 0.0356

                     22                     23                     24
                      A                      A                      A
 Frequencies --    703.5470               718.5124               733.2349
 Red. masses --      1.8819                 7.1678                 2.2310
 Frc consts  --      0.5488                 2.1802                 0.7067
 IR Inten    --     48.8207                 0.0797                 0.2384

                     25                     26                     27
                      A                      A                      A
 Frequencies --    821.6760               827.6345               830.4617
 Red. masses --      6.2020                 1.8485                 1.2750
 Frc consts  --      2.4671                 0.7460                 0.5181
 IR Inten    --     79.4681                 0.3018               123.6498

                     28                     29                     30
                      A                      A                      A
 Frequencies --    836.0082               862.3300               914.9366
 Red. masses --      1.6968                 2.2922                 1.3165
 Frc consts  --      0.6987                 1.0043                 0.6493
 IR Inten    --      0.1477                 4.3228                 4.0063

                     31                     32                     33
                      A                      A                      A
 Frequencies --    923.4909               965.9126               966.4567
 Red. masses --      1.3361                 1.2449                 1.2682
 Frc consts  --      0.6714                 0.6843                 0.6979
 IR Inten    --    632.6543                 1.2168               176.6540

                     34                     35                     36
                      A                      A                      A
 Frequencies --    986.8663               989.5378               990.7087
 Red. masses --      5.6337                 1.3252                 5.2309
 Frc consts  --      3.2327                 0.7645                 3.0249
 IR Inten    --    687.2712                 0.0359                 0.1671

                     37                     38                     39
                      A                      A                      A
 Frequencies --    990.7651              1026.6358              1029.3339
 Red. masses --      1.2880                 2.5581                 2.0730
 Frc consts  --      0.7449                 1.5885                 1.2941
 IR Inten    --     19.1240                 0.0004               264.7853

                     40                     41                     42
                      A                      A                      A
 Frequencies --   1061.4274              1068.5760              1077.5922
 Red. masses --      2.4530                 1.5943                 1.8906
 Frc consts  --      1.6283                 1.0726                 1.2934
 IR Inten    --      0.1051               388.3042                 0.1305

                     43                     44                     45
                      A                      A                      A
 Frequencies --   1112.2375              1151.3620              1153.3440
 Red. masses --      2.1050                 1.1177                 1.0845
 Frc consts  --      1.5343                 0.8730                 0.8499
 IR Inten    --   2313.1470                 0.2451               424.2273

                     46                     47                     48
                      A                      A                      A
 Frequencies --   1158.4866              1201.4659              1274.5206
 Red. masses --      1.2163                 1.7617                 2.6333
 Frc consts  --      0.9618                 1.4983                 2.5202
 IR Inten    --      0.0621                 7.1958                 0.0649

                     49                     50                     51
                      A                      A                      A
 Frequencies --   1307.6500              1308.1902              1332.5815
 Red. masses --      1.8525                 3.4971                 3.6120
 Frc consts  --      1.8663                 3.5261                 3.7791
 IR Inten    --      2.4899                 0.0299               102.7353

                     52                     53                     54
                      A                      A                      A
 Frequencies --   1340.6376              1377.3427              1415.2290
 Red. masses --      3.1504                 6.7918                 4.0773
 Frc consts  --      3.3361                 7.5914                 4.8114
 IR Inten    --      0.0424              1022.5514                 0.2448

                     55                     56                     57
                      A                      A                      A
 Frequencies --   1456.4521              1468.0228              1483.9982
 Red. masses --      2.3754                 2.6357                 2.1237
 Frc consts  --      2.9688                 3.3467                 2.7556
 IR Inten    --      8.0828                 0.2195              1126.7672

                     58                     59                     60
                      A                      A                      A
 Frequencies --   1493.4498              1556.2523              1558.3410
 Red. masses --      2.3859                 5.2539                 4.8926
 Frc consts  --      3.1353                 7.4970                 7.0002
 IR Inten    --      0.1989                 2.9156               141.8644

                     61                     62                     63
                      A                      A                      A
 Frequencies --   1593.2585              1595.8010              3091.8439
 Red. masses --      5.1734                 5.2588                 1.0832
 Frc consts  --      7.7374                 7.8903                 6.1011
 IR Inten    --   1401.7245                 2.5002                 1.4459

                     64                     65                     66
                      A                      A                      A
 Frequencies --   3092.1384              3103.6997              3103.7838
 Red. masses --      1.0833                 1.0881                 1.0881
 Frc consts  --      6.1026                 6.1757                 6.1761
 IR Inten    --    330.7327                21.1325               419.9173

                     67                     68                     69
                      A                      A                      A
 Frequencies --   3127.1514              3127.3289              3178.1124
 Red. masses --      1.0948                 1.0947                 1.0895
 Frc consts  --      6.3081                 6.3079                 6.4836
 IR Inten    --    252.6435              1341.9048                 6.5384

                     70                     71                     72
                      A                      A                      A
 Frequencies --   3178.2551              3206.0906              3206.5598
 Red. masses --      1.0896                 1.0914                 1.0916
 Frc consts  --      6.4846                 6.6097                 6.6130
 IR Inten    --      0.2921                45.0895                 0.4336

 - Thermochemistry -
 -------------------
 Temperature   298.150 Kelvin.  Pressure   1.00000 Atm.
 Atom     1 has atomic number  8 and mass  15.99491

 Molecular mass:   210.06808 amu.
 Principal axes and moments of inertia in atomic units:
                           1         2         3
     Eigenvalues --  1013.358167047.648058060.88920
           X            0.99567   0.09288  -0.00353
           Y            0.06496  -0.66820   0.74114
           Z           -0.06648   0.73817   0.67134
 This molecule is an asymmetric top.
 Rotational symmetry number  1.
 Warning -- assumption of classical behavior for rotation
           may cause significant error
 Rotational temperatures (Kelvin)      0.08547     0.01229     0.01074
 Rotational constants (GHZ):           1.78095     0.25608     0.22389
 Zero-point vibrational energy     513810.0 (Joules/Mol)
                                  122.80355 (Kcal/Mol)
 Warning -- explicit consideration of  17 degrees of freedom as
           vibrations may cause significant error
 Vibrational temperatures:     51.20    75.82   138.81   170.83   230.08
          (Kelvin)            271.68   318.58   406.37   469.70   543.21
                              590.74   611.59   615.34   636.39   656.38
                              837.18   884.33   908.59   911.24   917.83
                             1009.83  1012.25  1033.78  1054.96  1182.21
                             1190.78  1194.85  1202.83  1240.70  1316.39
                             1328.70  1389.73  1390.52  1419.88  1423.72
                             1425.41  1425.49  1477.10  1480.98  1527.16
                             1537.44  1550.41  1600.26  1656.55  1659.40
                             1666.80  1728.64  1833.75  1881.42  1882.19
                             1917.29  1928.88  1981.69  2036.20  2095.51
                             2112.16  2135.14  2148.74  2239.10  2242.11
                             2292.34  2296.00  4448.47  4448.90  4465.53
                             4465.65  4499.27  4499.53  4572.59  4572.80
                             4612.85  4613.52

 Zero-point correction=                           0.195700 (Hartree/Particle)
 Thermal correction to Energy=                    0.208175
 Thermal correction to Enthalpy=                  0.209120
 Thermal correction to Gibbs Free Energy=         0.155931
 Sum of electronic and zero-point Energies=           -689.893834
 Sum of electronic and thermal Energies=              -689.881358
 Sum of electronic and thermal Enthalpies=            -689.880414
 Sum of electronic and thermal Free Energies=         -689.933603

                     E (Thermal)             CV                S
                      KCal/Mol        Cal/Mol-Kelvin    Cal/Mol-Kelvin
 Total                  130.632             49.958            111.944
 Electronic               0.000              0.000              0.000
 Translational            0.889              2.981             41.931
 Rotational               0.889              2.981             32.421
 Vibrational            128.855             43.996             37.593
 Vibration     1          0.594              1.982              5.491
 Vibration     2          0.596              1.977              4.714
 Vibration     3          0.603              1.952              3.524
 Vibration     4          0.609              1.934              3.121
 Vibration     5          0.622              1.891              2.551
 Vibration     6          0.633              1.855              2.239
 Vibration     7          0.648              1.808              1.947
 Vibration     8          0.681              1.706              1.519
 Vibration     9          0.710              1.623              1.278
 Vibration    10          0.748              1.518              1.049
 Vibration    11          0.775              1.447              0.925
 Vibration    12          0.787              1.416              0.875
 Vibration    13          0.789              1.410              0.866
 Vibration    14          0.802              1.378              0.819
 Vibration    15          0.814              1.347              0.777
 Vibration    16          0.939              1.071              0.482
 Vibration    17          0.974              1.001              0.425

 Optimization completed.
    -- Stationary point found.
 Normal termination of Gaussian 16 at Sat Jan  6 04:13:16 2024.
