 Gaussian 16, Revision A.03,
 Gaussian 16:  ES64L-G16RevA.03 25-Dec-2016

 ----------------------------------------------------------------------
 #P UB3LYP/6-311++G(d,p) nosym opt freq SCRF=(PCM,Solvent=n,n-DiMethylF
 ormamide)
 ----------------------------------------------------------------------

 -------
 Radical
 -------
 Symbolic Z-matrix:
 Charge = -1 Multiplicity = 2

 SCF Done:  E(UB3LYP) =  -767.732992804     A.U. after   19 cycles
 SCF Done:  E(UB3LYP) =  -767.733209798     A.U. after   15 cycles
 SCF Done:  E(UB3LYP) =  -767.733272677     A.U. after   14 cycles
 SCF Done:  E(UB3LYP) =  -767.733276691     A.U. after   13 cycles
 SCF Done:  E(UB3LYP) =  -767.733276918     A.U. after   11 cycles
 Optimization completed.
    -- Stationary point found.
 Normal termination of Gaussian 16 at Sat Feb 10 16:25:02 2024.

 ----------------------------------------------------------------------
 #P Geom=AllCheck Guess=TCheck SCRF=Check GenChk UB3LYP/6-311++G(d,p) F
 req
 ----------------------------------------------------------------------

 Structure from the checkpoint file:  "128-rad.chk"
 -------
 Radical
 -------
 Charge = -1 Multiplicity = 2

                          Input orientation:
 ---------------------------------------------------------------------
 Center     Atomic      Atomic             Coordinates (Angstroms)
 Number     Number       Type             X           Y           Z
 ---------------------------------------------------------------------
      1          6           0       -3.429815    3.600091    0.073960
      2          6           0       -4.604324    2.857832    0.110155
      3          6           0       -4.602621    1.451814    0.131092
      4          6           0       -2.170388    2.910814    0.057332
      5          6           0       -2.179453    1.479968    0.077563
      6          6           0       -3.404442    0.776420    0.114707
      7          6           0       -0.891809    3.640599    0.020800
      8          6           0        0.357276    2.860760    0.006674
      9          6           0        0.310246    1.430729    0.023598
     10          6           0       -0.949320    0.699596    0.060349
     11          6           0        1.642778    3.499454   -0.024767
     12          6           0        2.787261    2.711012   -0.040836
     13          6           0        2.730386    1.306035   -0.026793
     14          6           0        1.506580    0.678896    0.005485
     15          8           0       -0.867103    4.899747    0.003798
     16          8           0       -0.973746   -0.568488    0.078102
     17          6           0       -3.578091    5.105812    0.054386
     18          1           0       -5.552986    3.384826    0.122514
     19          1           0       -5.542401    0.910306    0.159513
     20          1           0       -3.367398   -0.305356    0.129553
     21          6           0        1.850020    4.998263   -0.040501
     22          1           0        1.426310   -0.400498    0.018139
     23          1           0        3.755858    3.199953   -0.064735
     24          1           0        3.648183    0.727523   -0.040704
     25          1           0       -4.639638    5.367056    0.069917
     26          1           0       -3.119828    5.547595   -0.831901
     27          1           0       -3.088239    5.573743    0.909906
     28          1           0        1.377693    5.465128   -0.906212
     29          1           0        2.920996    5.217185   -0.062177
     30          1           0        1.410928    5.477875    0.835854
 ---------------------------------------------------------------------

 SCF Done:  E(UB3LYP) =  -767.733276918     A.U. after    1 cycles

 Alpha  occ. eigenvalues --  -19.06800 -19.06703 -10.22369 -10.21611 -10.18237
 Alpha  occ. eigenvalues --  -10.18237 -10.17312 -10.17309 -10.16852 -10.16848
 Alpha  occ. eigenvalues --  -10.16795 -10.16794 -10.16396 -10.16395 -10.16282
 Alpha  occ. eigenvalues --  -10.16278 -10.15257 -10.15254  -0.99725  -0.99068
 Alpha  occ. eigenvalues --   -0.85757  -0.84948  -0.78352  -0.76786  -0.76475
 Alpha  occ. eigenvalues --   -0.73428  -0.69061  -0.67644  -0.65418  -0.62126
 Alpha  occ. eigenvalues --   -0.61390  -0.56382  -0.54103  -0.52358  -0.51368
 Alpha  occ. eigenvalues --   -0.46754  -0.46057  -0.45877  -0.45524  -0.42778
 Alpha  occ. eigenvalues --   -0.41847  -0.40838  -0.40814  -0.40368  -0.40134
 Alpha  occ. eigenvalues --   -0.39688  -0.39472  -0.37475  -0.37202  -0.36661
 Alpha  occ. eigenvalues --   -0.35533  -0.35079  -0.34297  -0.33847  -0.33237
 Alpha  occ. eigenvalues --   -0.32891  -0.26307  -0.24553  -0.24541  -0.24451
 Alpha  occ. eigenvalues --   -0.23782  -0.22604  -0.13640
 Alpha virt. eigenvalues --   -0.04713  -0.01966  -0.00363   0.00006   0.00444
 Alpha virt. eigenvalues --    0.00841   0.01920   0.02009   0.02991   0.03820
 Alpha virt. eigenvalues --    0.03952   0.04186   0.04933   0.05293   0.05638

  Beta  occ. eigenvalues --  -19.06240 -19.06137 -10.22238 -10.21400 -10.18254
  Beta  occ. eigenvalues --  -10.18254 -10.17226 -10.17224 -10.16789 -10.16785
  Beta  occ. eigenvalues --  -10.16767 -10.16766 -10.16318 -10.16317 -10.16257
  Beta  occ. eigenvalues --  -10.16254 -10.15256 -10.15253  -0.98748  -0.98063
  Beta  occ. eigenvalues --   -0.85500  -0.84834  -0.77961  -0.76701  -0.76294
  Beta  occ. eigenvalues --   -0.73242  -0.68722  -0.67571  -0.64846  -0.61946
  Beta  occ. eigenvalues --   -0.61136  -0.56302  -0.53872  -0.52093  -0.51255
  Beta  occ. eigenvalues --   -0.46492  -0.45995  -0.45781  -0.45361  -0.42080
  Beta  occ. eigenvalues --   -0.41626  -0.40752  -0.40731  -0.40072  -0.39858
  Beta  occ. eigenvalues --   -0.39596  -0.38508  -0.37444  -0.37032  -0.35420
  Beta  occ. eigenvalues --   -0.34775  -0.34566  -0.34231  -0.33735  -0.32750
  Beta  occ. eigenvalues --   -0.32063  -0.24286  -0.24068  -0.24014  -0.23446
  Beta  occ. eigenvalues --   -0.23269  -0.22102
  Beta virt. eigenvalues --   -0.07771  -0.03735  -0.00971  -0.00350   0.00253
  Beta virt. eigenvalues --    0.00444   0.00848   0.01934   0.02005   0.03065
  Beta virt. eigenvalues --    0.03839   0.03948   0.04193   0.05269   0.05321

 Mulliken charges and spin densities:
               1          2
     1  C    0.577451  -0.005442
     2  C   -0.559260   0.060157
     3  C   -0.410858   0.019646
     4  C    0.210081   0.058487
     5  C    0.442100   0.024781
     6  C    0.014440   0.046494
     7  C   -0.882245   0.071778
     8  C    0.209344   0.058442
     9  C    0.442093   0.024779
    10  C   -0.739528   0.111559
    11  C    0.576816  -0.005417
    12  C   -0.558925   0.060084
    13  C   -0.411060   0.019659
    14  C    0.015393   0.046471
    15  O   -0.383223   0.204962
    16  O   -0.469981   0.209691
    17  C   -0.466029   0.007675
    18  H    0.116949  -0.005041
    19  H    0.191161  -0.001953
    20  H    0.157325  -0.002584
    21  C   -0.466199   0.007668
    22  H    0.157505  -0.002582
    23  H    0.116961  -0.005036
    24  H    0.191170  -0.001955
    25  H    0.144743  -0.000354
    26  H    0.159832  -0.000405
    27  H    0.159681  -0.000404
    28  H    0.159873  -0.000414
    29  H    0.144698  -0.000354
    30  H    0.159691  -0.000394
 Sum of Mulliken charges =  -1.00000   1.00000

 Dipole moment (field-independent basis, Debye):
    X=              4.4557    Y=             -8.5970    Z=             -0.2184  Tot=              9.6856
 Quadrupole moment (field-independent basis, Debye-Ang):
   XX=           -110.3804   YY=           -154.7414   ZZ=           -112.8131
   XY=              7.3258   XZ=              0.0818   YZ=             -0.0096

  Exact polarizability: 483.122  -1.995 385.561  -6.991  -2.871 151.596
 Approx polarizability: 494.059  -0.883 453.609  -6.765  -3.499 175.032

                      1                      2                      3
                      A                      A                      A
 Frequencies --     17.9908                51.0445                74.9341
 Red. masses --      6.0227                 3.4681                 5.1385
 Frc consts  --      0.0011                 0.0053                 0.0170
 IR Inten    --     14.2497                 0.0473                 0.6416

                      4                      5                      6
                      A                      A                      A
 Frequencies --    161.5838               186.8311               200.5128
 Red. masses --      7.0529                 1.9380                 3.9725
 Frc consts  --      0.1085                 0.0399                 0.0941
 IR Inten    --      3.0898                 0.0370                10.7961

                      7                      8                      9
                      A                      A                      A
 Frequencies --    202.2081               215.0625               233.8688
 Red. masses --      1.4116                 1.3504                 1.9091
 Frc consts  --      0.0340                 0.0368                 0.0615
 IR Inten    --      4.9834                 0.1577                 2.1220

                     10                     11                     12
                      A                      A                      A
 Frequencies --    265.2149               311.1383               343.3357
 Red. masses --      4.2446                 4.1456                 4.9816
 Frc consts  --      0.1759                 0.2365                 0.3460
 IR Inten    --      0.0024                 0.8849                 2.4776

                     13                     14                     15
                      A                      A                      A
 Frequencies --    350.7756               399.0054               417.5484
 Red. masses --      7.0027                12.7768                 4.7925
 Frc consts  --      0.5077                 1.1985                 0.4923
 IR Inten    --      1.6890                27.2710                 0.2481

                     16                     17                     18
                      A                      A                      A
 Frequencies --    417.8240               447.2784               483.7165
 Red. masses --      4.9892                 3.7792                 9.6972
 Frc consts  --      0.5132                 0.4455                 1.3368
 IR Inten    --      0.2207                 1.8545                 0.4015

                     19                     20                     21
                      A                      A                      A
 Frequencies --    491.1290               504.2138               548.1614
 Red. masses --      3.7286                 3.8988                 5.7626
 Frc consts  --      0.5299                 0.5840                 1.0202
 IR Inten    --      9.5330                 0.0013                 0.6751

                     22                     23                     24
                      A                      A                      A
 Frequencies --    548.8244               556.7849               622.2352
 Red. masses --      3.7313                 4.4430                 6.4582
 Frc consts  --      0.6622                 0.8115                 1.4732
 IR Inten    --      0.0201                10.8119                27.6169

                     25                     26                     27
                      A                      A                      A
 Frequencies --    644.6065               699.6738               722.6962
 Red. masses --      4.1410                 6.7965                 2.4420
 Frc consts  --      1.0138                 1.9603                 0.7515
 IR Inten    --      3.6211                 5.5585                99.2024

                     28                     29                     30
                      A                      A                      A
 Frequencies --    734.7882               789.3510               790.0330
 Red. masses --      3.4144                 5.2778                 1.4267
 Frc consts  --      1.0861                 1.9375                 0.5246
 IR Inten    --      0.0154                 1.8073                 0.0505

                     31                     32                     33
                      A                      A                      A
 Frequencies --    795.9622               800.2721               820.3654
 Red. masses --      2.5227                 6.5681                 3.3322
 Frc consts  --      0.9417                 2.4783                 1.3213
 IR Inten    --     51.5639                41.5590                30.0466

                     34                     35                     36
                      A                      A                      A
 Frequencies --    909.9669               910.8961               918.7615
 Red. masses --      1.3463                 1.3771                 5.3055
 Frc consts  --      0.6568                 0.6732                 2.6387
 IR Inten    --      0.0187                 0.2598                10.4625

                     37                     38                     39
                      A                      A                      A
 Frequencies --    931.6811               991.4650               992.8641
 Red. masses --      3.8044                 1.9604                 1.3094
 Frc consts  --      1.9457                 1.1354                 0.7605
 IR Inten    --     50.4624                 4.1294                 0.1782

                     40                     41                     42
                      A                      A                      A
 Frequencies --    994.2799              1028.6528              1046.1368
 Red. masses --      1.3165                 1.7278                 2.9615
 Frc consts  --      0.7668                 1.0772                 1.9096
 IR Inten    --      2.1108                23.0516                28.1173

                     43                     44                     45
                      A                      A                      A
 Frequencies --   1052.7555              1054.2999              1092.8636
 Red. masses --      1.5471                 1.5489                 2.3217
 Frc consts  --      1.0102                 1.0144                 1.6338
 IR Inten    --      1.5098                 7.6492                 0.0804

                     46                     47                     48
                      A                      A                      A
 Frequencies --   1111.5113              1150.8185              1169.3446
 Red. masses --      1.7329                 1.5371                 1.6279
 Frc consts  --      1.2614                 1.1994                 1.3115
 IR Inten    --     61.4070                54.2239                 0.0246

                     49                     50                     51
                      A                      A                      A
 Frequencies --   1179.6556              1215.9965              1233.3348
 Red. masses --      1.7408                 3.0158                 4.0772
 Frc consts  --      1.4273                 2.6274                 3.6540
 IR Inten    --      3.8830                 5.0654                73.4021

                     52                     53                     54
                      A                      A                      A
 Frequencies --   1249.6535              1251.0944              1324.3474
 Red. masses --      2.3639                 2.2370                 4.2543
 Frc consts  --      2.1750                 2.0630                 4.3963
 IR Inten    --      8.1335               145.0333                 0.1008

                     55                     56                     57
                      A                      A                      A
 Frequencies --   1338.1357              1360.4001              1392.4663
 Red. masses --      7.5879                 4.2812                 3.9609
 Frc consts  --      8.0052                 4.6682                 4.5249
 IR Inten    --     94.4374                26.7760              1058.6223

                     58                     59                     60
                      A                      A                      A
 Frequencies --   1408.1863              1409.7614              1410.4938
 Red. masses --      2.4955                 1.2359                 1.2356
 Frc consts  --      2.9156                 1.4471                 1.4483
 IR Inten    --     33.1825                 1.5612                 1.4177

                     61                     62                     63
                      A                      A                      A
 Frequencies --   1439.0658              1458.8805              1459.3006
 Red. masses --      1.9666                 1.0482                 1.0475
 Frc consts  --      2.3995                 1.3144                 1.3143
 IR Inten    --    323.0886                 8.9513                 7.3593

                     64                     65                     66
                      A                      A                      A
 Frequencies --   1476.5360              1482.0111              1483.4688
 Red. masses --      1.1385                 1.3548                 3.2825
 Frc consts  --      1.4624                 1.7533                 4.2562
 IR Inten    --     60.7644                 3.6700                54.7499

                     67                     68                     69
                      A                      A                      A
 Frequencies --   1507.1340              1526.6035              1569.0216
 Red. masses --      4.8963                 5.7987                 5.9175
 Frc consts  --      6.5527                 7.9622                 8.5831
 IR Inten    --    871.2509               187.3408               172.1838

                     70                     71                     72
                      A                      A                      A
 Frequencies --   1609.7388              1611.3456              1618.4411
 Red. masses --      7.7845                 4.9833                 5.5625
 Frc consts  --     11.8848                 7.6233                 8.5845
 IR Inten    --     23.7999                 7.4432                 0.0258

                     73                     74                     75
                      A                      A                      A
 Frequencies --   3030.4838              3030.6714              3095.5487
 Red. masses --      1.0381                 1.0380                 1.0997
 Frc consts  --      5.6169                 5.6172                 6.2086
 IR Inten    --     71.4484                83.6190                85.4091

                     76                     77                     78
                      A                      A                      A
 Frequencies --   3096.0475              3097.2554              3097.7369
 Red. masses --      1.0997                 1.0994                 1.0995
 Frc consts  --      6.2106                 6.2141                 6.2164
 IR Inten    --      2.1742                 5.1803                45.2256

                     79                     80                     81
                      A                      A                      A
 Frequencies --   3151.3850              3151.6008              3168.3978
 Red. masses --      1.0865                 1.0866                 1.0923
 Frc consts  --      6.3573                 6.3588                 6.4606
 IR Inten    --     44.2272                16.0135                87.0859

                     82                     83                     84
                      A                      A                      A
 Frequencies --   3168.5657              3196.0166              3196.9806
 Red. masses --      1.0921                 1.0925                 1.0925
 Frc consts  --      6.4603                 6.5746                 6.5791
 IR Inten    --     11.5739                35.3375                15.9616

 - Thermochemistry -
 -------------------
 Temperature   298.150 Kelvin.  Pressure   1.00000 Atm.
 Atom     1 has atomic number  6 and mass  12.00000

 Molecular mass:   236.08373 amu.
 Principal axes and moments of inertia in atomic units:
                           1         2         3
     Eigenvalues --  2487.006344831.727927296.85603
           X            0.99960   0.01960   0.02059
           Y           -0.01986   0.99973   0.01241
           Z           -0.02034  -0.01281   0.99971
 This molecule is an asymmetric top.
 Rotational symmetry number  1.
 Warning -- assumption of classical behavior for rotation
           may cause significant error
 Rotational temperatures (Kelvin)      0.03483     0.01793     0.01187
 Rotational constants (GHZ):           0.72567     0.37352     0.24733
 Zero-point vibrational energy     608307.3 (Joules/Mol)
                                  145.38892 (Kcal/Mol)
 Warning -- explicit consideration of  23 degrees of freedom as
           vibrations may cause significant error
 Vibrational temperatures:     25.88    73.44   107.81   232.48   268.81
          (Kelvin)            288.49   290.93   309.43   336.49   381.59
                              447.66   493.98   504.69   574.08   600.76
                              601.16   643.53   695.96   706.63   725.45
                              788.68   789.64   801.09   895.26   927.45
                             1006.67  1039.80  1057.20  1135.70  1136.68
                             1145.21  1151.41  1180.32  1309.24  1310.58
                             1321.89  1340.48  1426.50  1428.51  1430.55
                             1480.00  1505.16  1514.68  1516.90  1572.39
                             1599.22  1655.77  1682.43  1697.26  1749.55
                             1774.49  1797.97  1800.05  1905.44  1925.28
                             1957.31  2003.45  2026.07  2028.33  2029.39
                             2070.49  2099.00  2099.61  2124.41  2132.28
                             2134.38  2168.43  2196.44  2257.47  2316.06
                             2318.37  2328.58  4360.19  4360.46  4453.80
                             4454.52  4456.26  4456.95  4534.14  4534.45
                             4558.62  4558.86  4598.36  4599.74

 Zero-point correction=                           0.231692 (Hartree/Particle)
 Thermal correction to Energy=                    0.246144
 Thermal correction to Enthalpy=                  0.247088
 Thermal correction to Gibbs Free Energy=         0.189088
 Sum of electronic and zero-point Energies=           -767.501585
 Sum of electronic and thermal Energies=              -767.487133
 Sum of electronic and thermal Enthalpies=            -767.486189
 Sum of electronic and thermal Free Energies=         -767.544189

                     E (Thermal)             CV                S
                      KCal/Mol        Cal/Mol-Kelvin    Cal/Mol-Kelvin
 Total                  154.458             57.958            122.072
 Electronic               0.000              0.000              1.377
 Translational            0.889              2.981             42.279
 Rotational               0.889              2.981             32.839
 Vibrational            152.680             51.996             45.577
 Vibration     1          0.593              1.986              6.844
 Vibration     2          0.595              1.977              4.777
 Vibration     3          0.599              1.966              4.019
 Vibration     4          0.622              1.890              2.531
 Vibration     5          0.632              1.858              2.259
 Vibration     6          0.638              1.839              2.128
 Vibration     7          0.639              1.837              2.113
 Vibration     8          0.645              1.818              2.000
 Vibration     9          0.654              1.789              1.849
 Vibration    10          0.671              1.737              1.627
 Vibration    11          0.700              1.652              1.356
 Vibration    12          0.722              1.589              1.197
 Vibration    13          0.728              1.574              1.163
 Vibration    14          0.765              1.472              0.966
 Vibration    15          0.781              1.432              0.900
 Vibration    16          0.781              1.432              0.899
 Vibration    17          0.806              1.367              0.804
 Vibration    18          0.840              1.286              0.700
 Vibration    19          0.847              1.270              0.681
 Vibration    20          0.859              1.241              0.648
 Vibration    21          0.903              1.144              0.548
 Vibration    22          0.904              1.142              0.547
 Vibration    23          0.912              1.125              0.530

                           ! Non-Optimized Parameters !
 Normal termination of Gaussian 16 at Sat Feb 10 17:32:24 2024.
