 Gaussian 16, Revision A.03,
 Gaussian 16:  ES64L-G16RevA.03 25-Dec-2016

 --------------------------------------
 #P UB3LYP/6-311++G(d,p) nosym opt freq
 --------------------------------------

 -------
 Reduced
 -------
 Symbolic Z-matrix:
 Charge = -2 Multiplicity = 1

 SCF Done:  E(UB3LYP) =  -685.742299926     A.U. after   29 cycles
 Optimization completed.
    -- Stationary point found.
 Normal termination of Gaussian 16 at Mon Jan  8 21:32:31 2024.

 ----------------------------------------------------------------------
 #P Geom=AllCheck Guess=TCheck SCRF=Check GenChk UB3LYP/6-311++G(d,p) F
 req
 ----------------------------------------------------------------------

 Structure from the checkpoint file:  "309-an.chk"
 -------
 Reduced
 -------
 Charge = -2 Multiplicity = 1

                          Input orientation:
 ---------------------------------------------------------------------
 Center     Atomic      Atomic             Coordinates (Angstroms)
 Number     Number       Type             X           Y           Z
 ---------------------------------------------------------------------
      1          8           0        1.678522    2.504415    0.403707
      2          6           0        1.409496    1.257952    0.209423
      3          6           0        0.051211    0.720533    0.206777
      4          6           0       -1.031047    1.600906    0.426798
      5          6           0       -2.352064    1.181716    0.441972
      6          6           0       -2.651166   -0.194577    0.228005
      7          6           0       -1.625162   -1.092518    0.008565
      8          6           0       -0.260086   -0.695283   -0.013208
      9          6           0        0.783400   -1.633538   -0.240628
     10          8           0        0.685783   -2.936679   -0.455206
     11          6           0        2.078490   -1.079380   -0.231042
     12          8           0        3.087594   -2.014227   -0.455370
     13          6           0        2.400572    0.262272   -0.024196
     14          8           0        3.758681    0.613650   -0.052840
     15          1           0       -0.771205    2.644035    0.586776
     16          1           0       -3.155102    1.897032    0.615787
     17          1           0       -3.685842   -0.537315    0.237455
     18          1           0       -1.831295   -2.146832   -0.156942
     19          1           0        2.502006   -2.817216   -0.553439
     20          1           0        4.214135   -0.220000   -0.223261
 ---------------------------------------------------------------------

 SCF Done:  E(UB3LYP) =  -685.742299926     A.U. after    2 cycles

 Alpha  occ. eigenvalues --  -18.87354 -18.87042 -18.76952 -18.75085  -9.92630
 Alpha  occ. eigenvalues --   -9.92577  -9.91640  -9.90925  -9.90794  -9.90348
 Alpha  occ. eigenvalues --   -9.90046  -9.89725  -9.88419  -9.88077  -0.78765
 Alpha  occ. eigenvalues --   -0.76301  -0.66557  -0.66211  -0.57269  -0.51081
 Alpha  occ. eigenvalues --   -0.47326  -0.44524  -0.39176  -0.33985  -0.33356
 Alpha  occ. eigenvalues --   -0.29084  -0.27150  -0.24260  -0.21978  -0.19713
 Alpha  occ. eigenvalues --   -0.17338  -0.15547  -0.14841  -0.14770  -0.12665
 Alpha  occ. eigenvalues --   -0.11889  -0.09729  -0.09501  -0.09363  -0.08776
 Alpha  occ. eigenvalues --   -0.07431  -0.04883  -0.04331  -0.04147   0.02219
 Alpha  occ. eigenvalues --    0.03576   0.04306   0.07018   0.07047   0.14757
 Alpha virt. eigenvalues --    0.17092   0.18760   0.19788   0.21270   0.21972
 Alpha virt. eigenvalues --    0.23010   0.24406   0.26382   0.26823   0.27389
 Alpha virt. eigenvalues --    0.28594   0.29164   0.29284   0.29857   0.30417

  Beta  occ. eigenvalues --  -18.87354 -18.87042 -18.76952 -18.75085  -9.92630
  Beta  occ. eigenvalues --   -9.92577  -9.91640  -9.90925  -9.90794  -9.90348
  Beta  occ. eigenvalues --   -9.90046  -9.89725  -9.88419  -9.88077  -0.78765
  Beta  occ. eigenvalues --   -0.76301  -0.66557  -0.66211  -0.57269  -0.51081
  Beta  occ. eigenvalues --   -0.47326  -0.44524  -0.39176  -0.33985  -0.33356
  Beta  occ. eigenvalues --   -0.29084  -0.27150  -0.24260  -0.21978  -0.19713
  Beta  occ. eigenvalues --   -0.17338  -0.15547  -0.14841  -0.14770  -0.12665
  Beta  occ. eigenvalues --   -0.11889  -0.09729  -0.09501  -0.09363  -0.08776
  Beta  occ. eigenvalues --   -0.07431  -0.04883  -0.04331  -0.04147   0.02219
  Beta  occ. eigenvalues --    0.03576   0.04306   0.07018   0.07047   0.14757
  Beta virt. eigenvalues --    0.17092   0.18760   0.19788   0.21270   0.21972
  Beta virt. eigenvalues --    0.23010   0.24406   0.26382   0.26823   0.27389
  Beta virt. eigenvalues --    0.28594   0.29164   0.29284   0.29857   0.30417

 Mulliken charges and spin densities:
               1          2
     1  O   -0.550455   0.000000
     2  C   -0.873911  -0.000000
     3  C    0.750072  -0.000000
     4  C    0.077858   0.000000
     5  C   -0.437830   0.000000
     6  C   -0.258402  -0.000000
     7  C   -0.146981  -0.000000
     8  C    0.790562   0.000000
     9  C   -1.407895   0.000000
    10  O   -0.620665  -0.000000
    11  C    0.164272   0.000000
    12  O   -0.384473   0.000000
    13  C    0.389658  -0.000000
    14  O   -0.332677  -0.000000
    15  H    0.115444  -0.000000
    16  H    0.060661   0.000000
    17  H    0.067204  -0.000000
    18  H    0.108952   0.000000
    19  H    0.244654  -0.000000
    20  H    0.243951   0.000000
 Sum of Mulliken charges =  -2.00000   0.00000

 Dipole moment (field-independent basis, Debye):
    X=             -7.6854    Y=             -0.2183    Z=             -0.3799  Tot=              7.6979
 Quadrupole moment (field-independent basis, Debye-Ang):
   XX=           -130.7875   YY=           -140.8996   ZZ=            -93.6473
   XY=             -7.5929   XZ=              0.5527   YZ=             -7.7823

  Exact polarizability: 251.448 -11.898 195.239 -11.461  15.810 109.959
 Approx polarizability: 432.937 -18.102 332.863 -21.837  33.000 152.369

                      1                      2                      3
                      A                      A                      A
 Frequencies --     89.0592               120.1981               159.5111
 Red. masses --      8.4402                 4.2204                 7.1957
 Frc consts  --      0.0394                 0.0359                 0.1079
 IR Inten    --      5.4279                 0.5534                 0.0001

                      4                      5                      6
                      A                      A                      A
 Frequencies --    166.8211               251.7059               280.1852
 Red. masses --      6.0748                 5.9558                 2.3260
 Frc consts  --      0.0996                 0.2223                 0.1076
 IR Inten    --      0.9870                 6.3946                32.6243

                      7                      8                      9
                      A                      A                      A
 Frequencies --    297.8289               310.4443               331.9529
 Red. masses --      6.4832                 6.1230                 4.2357
 Frc consts  --      0.3388                 0.3477                 0.2750
 IR Inten    --      6.0138                19.2929                17.0960

                     10                     11                     12
                      A                      A                      A
 Frequencies --    342.3009               349.5893               425.1316
 Red. masses --     11.7997                 2.3933                 8.7131
 Frc consts  --      0.8146                 0.1723                 0.9278
 IR Inten    --      0.1325                43.0686                 1.7624

                     13                     14                     15
                      A                      A                      A
 Frequencies --    439.9807               445.4706               492.8425
 Red. masses --      8.2984                 3.1191                 6.0979
 Frc consts  --      0.9465                 0.3647                 0.8727
 IR Inten    --      3.9402                16.1566                 0.3557

                     16                     17                     18
                      A                      A                      A
 Frequencies --    516.5870               612.3440               614.1702
 Red. masses --     11.1057                 8.7674                10.6299
 Frc consts  --      1.7462                 1.9369                 2.3624
 IR Inten    --      6.3511                16.9145                 0.1937

                     19                     20                     21
                      A                      A                      A
 Frequencies --    660.3602               666.5570               674.5592
 Red. masses --      6.4353                 1.7482                 3.7123
 Frc consts  --      1.6534                 0.4576                 0.9952
 IR Inten    --      6.0953                54.0365                10.3806

                     22                     23                     24
                      A                      A                      A
 Frequencies --    716.6098               721.3868               736.2021
 Red. masses --      6.7753                 2.9508                 1.3609
 Frc consts  --      2.0500                 0.9047                 0.4346
 IR Inten    --      4.6265                22.6895                12.2957

                     25                     26                     27
                      A                      A                      A
 Frequencies --    788.4176               892.5148               915.2217
 Red. masses --      1.1864                 6.2857                 1.2327
 Frc consts  --      0.4345                 2.9501                 0.6083
 IR Inten    --     30.7952                85.9668                 1.9731

                     28                     29                     30
                      A                      A                      A
 Frequencies --    934.6001               940.7644              1008.8311
 Red. masses --      1.2822                 8.2648                 2.0761
 Frc consts  --      0.6598                 4.3097                 1.2449
 IR Inten    --      2.1467               152.7474                32.4368

                     31                     32                     33
                      A                      A                      A
 Frequencies --   1033.1628              1085.2175              1117.4314
 Red. masses --      7.0565                 2.4043                 1.5901
 Frc consts  --      4.4379                 1.6683                 1.1698
 IR Inten    --    200.0550                27.8960                26.4307

                     34                     35                     36
                      A                      A                      A
 Frequencies --   1150.2868              1177.6933              1228.3656
 Red. masses --      2.5437                 2.1014                 2.7650
 Frc consts  --      1.9830                 1.7172                 2.4581
 IR Inten    --     85.4402                26.3298               231.9011

                     37                     38                     39
                      A                      A                      A
 Frequencies --   1263.8501              1321.4641              1340.3500
 Red. masses --      2.1312                 4.0927                 2.3635
 Frc consts  --      2.0057                 4.2109                 2.5018
 IR Inten    --    108.2599               195.7278               631.1987

                     40                     41                     42
                      A                      A                      A
 Frequencies --   1357.5776              1430.9440              1437.3712
 Red. masses --      1.6659                 4.5691                 2.8136
 Frc consts  --      1.8090                 5.5122                 3.4249
 IR Inten    --     82.5312               743.6643                23.7029

                     43                     44                     45
                      A                      A                      A
 Frequencies --   1443.3677              1471.6672              1512.4319
 Red. masses --      4.7219                 3.2182                 4.5519
 Frc consts  --      5.7959                 4.1066                 6.1348
 IR Inten    --     75.9951               211.1758                 0.0557

                     46                     47                     48
                      A                      A                      A
 Frequencies --   1562.6557              1568.0030              1620.7978
 Red. masses --      3.9124                 4.9120                 5.9297
 Frc consts  --      5.6289                 7.1155                 9.1778
 IR Inten    --    113.6074                22.7898                14.1463

                     49                     50                     51
                      A                      A                      A
 Frequencies --   3076.6846              3102.3452              3141.5151
 Red. masses --      1.0818                 1.0895                 1.0902
 Frc consts  --      6.0335                 6.1783                 6.3395
 IR Inten    --     41.2243               115.8286                47.1520

                     52                     53                     54
                      A                      A                      A
 Frequencies --   3145.4785              3208.7364              3783.6355
 Red. masses --      1.0910                 1.0635                 1.0650
 Frc consts  --      6.3599                 6.4512                 8.9833
 IR Inten    --     42.5773               189.0613                47.0977

 - Thermochemistry -
 -------------------
 Temperature   298.150 Kelvin.  Pressure   1.00000 Atm.
 Atom     1 has atomic number  8 and mass  15.99491

 Molecular mass:   190.02661 amu.
 Principal axes and moments of inertia in atomic units:
                           1         2         3
     Eigenvalues --  1674.081472715.183774389.26521
           X            0.97137   0.22875   0.06417
           Y           -0.21554   0.96211  -0.16701
           Z           -0.09994   0.14840   0.98386
 This molecule is an asymmetric top.
 Rotational symmetry number  1.
 Warning -- assumption of classical behavior for rotation
           may cause significant error
 Rotational temperatures (Kelvin)      0.05174     0.03190     0.01973
 Rotational constants (GHZ):           1.07805     0.66468     0.41117
 Zero-point vibrational energy     355788.4 (Joules/Mol)
                                   85.03548 (Kcal/Mol)
 Warning -- explicit consideration of  18 degrees of freedom as
           vibrations may cause significant error
 Vibrational temperatures:    128.14   172.94   229.50   240.02   362.15
          (Kelvin)            403.12   428.51   446.66   477.61   492.49
                              502.98   611.67   633.03   640.93   709.09
                              743.25   881.03   883.65   950.11   959.03
                              970.54  1031.04  1037.91  1059.23  1134.36
                             1284.13  1316.80  1344.68  1353.55  1451.48
                             1486.49  1561.39  1607.73  1655.01  1694.44
                             1767.34  1818.40  1901.29  1928.46  1953.25
                             2058.81  2068.06  2076.68  2117.40  2176.05
                             2248.31  2256.01  2331.97  4426.66  4463.58
                             4519.94  4525.64  4616.66  5443.81

 Zero-point correction=                           0.135513 (Hartree/Particle)
 Thermal correction to Energy=                    0.146709
 Thermal correction to Enthalpy=                  0.147653
 Thermal correction to Gibbs Free Energy=         0.099019
 Sum of electronic and zero-point Energies=           -685.606787
 Sum of electronic and thermal Energies=              -685.595591
 Sum of electronic and thermal Enthalpies=            -685.594646
 Sum of electronic and thermal Free Energies=         -685.643281

                     E (Thermal)             CV                S
                      KCal/Mol        Cal/Mol-Kelvin    Cal/Mol-Kelvin
 Total                   92.061             44.526            102.360
 Electronic               0.000              0.000              0.000
 Translational            0.889              2.981             41.632
 Rotational               0.889              2.981             31.368
 Vibrational             90.284             38.564             29.360
 Vibration     1          0.602              1.957              3.681
 Vibration     2          0.609              1.932              3.097
 Vibration     3          0.621              1.892              2.556
 Vibration     4          0.624              1.883              2.471
 Vibration     5          0.664              1.760              1.719
 Vibration     6          0.680              1.710              1.533
 Vibration     7          0.691              1.678              1.429
 Vibration     8          0.699              1.654              1.360
 Vibration     9          0.714              1.612              1.251
 Vibration    10          0.721              1.591              1.201
 Vibration    11          0.727              1.576              1.168
 Vibration    12          0.787              1.416              0.875
 Vibration    13          0.800              1.383              0.827
 Vibration    14          0.805              1.371              0.810
 Vibration    15          0.849              1.266              0.676
 Vibration    16          0.872              1.213              0.618
 Vibration    17          0.972              1.006              0.429
 Vibration    18          0.974              1.002              0.426

 Optimization completed.
    -- Stationary point found.
 Normal termination of Gaussian 16 at Mon Jan  8 21:49:32 2024.
