 Gaussian 16, Revision A.03,
 Gaussian 16:  ES64L-G16RevA.03 25-Dec-2016

 ----------------------------------------------------------------
 #P UB3LYP/6-311++G(d,p) SCRF=(PCM,Solvent=n,n-DiMethylFormamide)
 ----------------------------------------------------------------

 -------
 Reduced
 -------
 Symbolic Z-matrix:
 Charge = -2 Multiplicity = 1

                         Standard orientation:
 ---------------------------------------------------------------------
 Center     Atomic      Atomic             Coordinates (Angstroms)
 Number     Number       Type             X           Y           Z
 ---------------------------------------------------------------------
      1          8           0        0.370017    2.840188    0.000105
      2          6           0        0.405745    1.550802   -0.000131
      3          6           0       -0.791757    0.714291   -0.000134
      4          6           0       -2.059139    1.337581   -0.000139
      5          6           0       -3.248575    0.626048    0.000037
      6          6           0       -3.211173   -0.798041    0.000188
      7          6           0       -1.994498   -1.451369    0.000090
      8          6           0       -0.756791   -0.751524   -0.000085
      9          6           0        0.486601   -1.440639   -0.000180
     10          8           0        0.703199   -2.747098    0.000082
     11          6           0        1.618400   -0.601906   -0.000200
     12          8           0        2.827381   -1.295388   -0.000028
     13          6           0        1.611701    0.793267   -0.000097
     14          8           0        2.853536    1.446408    0.000180
     15          1           0       -2.055123    2.424417   -0.000285
     16          1           0       -4.203836    1.149721    0.000054
     17          1           0       -4.139340   -1.369546    0.000337
     18          1           0       -1.943386   -2.537117    0.000110
     19          1           0        2.447855   -2.219121    0.000020
     20          1           0        3.497682    0.727708    0.000963
 ---------------------------------------------------------------------

 SCF Done:  E(UB3LYP) =  -686.018428617     A.U. after   17 cycles

 The electronic state is 1-A.
 Alpha  occ. eigenvalues --  -19.12534 -19.11911 -19.03072 -19.01986 -10.18281
 Alpha  occ. eigenvalues --  -10.18061 -10.17664 -10.16739 -10.14822 -10.14587
 Alpha  occ. eigenvalues --  -10.14553 -10.14427 -10.14024 -10.13742  -1.03925
 Alpha  occ. eigenvalues --   -1.01465  -0.93331  -0.92487  -0.82284  -0.76458
 Alpha  occ. eigenvalues --   -0.72261  -0.69610  -0.64749  -0.58958  -0.58359
 Alpha  occ. eigenvalues --   -0.54220  -0.52166  -0.48982  -0.47114  -0.44498
 Alpha  occ. eigenvalues --   -0.42416  -0.40461  -0.40358  -0.39572  -0.38263
 Alpha  occ. eigenvalues --   -0.37151  -0.35901  -0.35035  -0.34926  -0.34079
 Alpha  occ. eigenvalues --   -0.32307  -0.30383  -0.30333  -0.29754  -0.22938
 Alpha  occ. eigenvalues --   -0.22404  -0.21905  -0.20063  -0.18531  -0.11426
 Alpha virt. eigenvalues --   -0.00315  -0.00169   0.00830   0.01775   0.02021
 Alpha virt. eigenvalues --    0.03086   0.03403   0.05324   0.05630   0.05735
 Alpha virt. eigenvalues --    0.06840   0.07470   0.08238   0.08558   0.09267

  Beta  occ. eigenvalues --  -19.12534 -19.11911 -19.03072 -19.01986 -10.18281
  Beta  occ. eigenvalues --  -10.18061 -10.17664 -10.16739 -10.14822 -10.14587
  Beta  occ. eigenvalues --  -10.14553 -10.14427 -10.14024 -10.13742  -1.03925
  Beta  occ. eigenvalues --   -1.01465  -0.93331  -0.92487  -0.82284  -0.76458
  Beta  occ. eigenvalues --   -0.72261  -0.69610  -0.64749  -0.58958  -0.58359
  Beta  occ. eigenvalues --   -0.54220  -0.52166  -0.48982  -0.47114  -0.44498
  Beta  occ. eigenvalues --   -0.42416  -0.40461  -0.40358  -0.39572  -0.38263
  Beta  occ. eigenvalues --   -0.37151  -0.35901  -0.35035  -0.34926  -0.34079
  Beta  occ. eigenvalues --   -0.32307  -0.30383  -0.30333  -0.29754  -0.22938
  Beta  occ. eigenvalues --   -0.22404  -0.21905  -0.20063  -0.18531  -0.11426
  Beta virt. eigenvalues --   -0.00315  -0.00169   0.00830   0.01775   0.02021
  Beta virt. eigenvalues --    0.03086   0.03403   0.05324   0.05630   0.05735
  Beta virt. eigenvalues --    0.06840   0.07470   0.08238   0.08558   0.09267

 Mulliken charges and spin densities:
               1          2
     1  O   -0.699501  -0.000000
     2  C   -0.596014   0.000000
     3  C    0.496244   0.000000
     4  C    0.089400   0.000000
     5  C   -0.504441   0.000000
     6  C   -0.365780  -0.000000
     7  C   -0.091836   0.000000
     8  C    0.523116  -0.000000
     9  C   -0.931871   0.000000
    10  O   -0.732354  -0.000000
    11  C    0.130550  -0.000000
    12  O   -0.392990  -0.000000
    13  C    0.272956  -0.000000
    14  O   -0.375809   0.000000
    15  H    0.141098   0.000000
    16  H    0.153591   0.000000
    17  H    0.160618  -0.000000
    18  H    0.138574   0.000000
    19  H    0.289047  -0.000000
    20  H    0.295403  -0.000000
 Sum of Mulliken charges =  -2.00000  -0.00000

 Dipole moment (field-independent basis, Debye):
    X=             -3.7427    Y=             -2.8907    Z=              0.0010  Tot=              4.7290
 Quadrupole moment (field-independent basis, Debye-Ang):
   XX=           -106.4086   YY=           -146.6893   ZZ=            -91.4279
   XY=             -3.1790   XZ=              0.0053   YZ=             -0.0007

 Normal termination of Gaussian 16 at Thu Jan 25 05:45:43 2024.
