 Gaussian 16, Revision A.03,
 Gaussian 16:  ES64L-G16RevA.03 25-Dec-2016

 --------------------------------------
 #P UB3LYP/6-311++G(d,p) nosym opt freq
 --------------------------------------

 -------
 Radical
 -------
 Symbolic Z-matrix:
 Charge = -1 Multiplicity = 2

 SCF Done:  E(UB3LYP) =  -842.901101145     A.U. after   24 cycles
 SCF Done:  E(UB3LYP) =  -842.910003785     A.U. after   17 cycles
 SCF Done:  E(UB3LYP) =  -842.910654300     A.U. after   14 cycles
 SCF Done:  E(UB3LYP) =  -842.910698047     A.U. after   14 cycles
 SCF Done:  E(UB3LYP) =  -842.910668904     A.U. after   14 cycles
 SCF Done:  E(UB3LYP) =  -842.910714603     A.U. after   14 cycles
 SCF Done:  E(UB3LYP) =  -842.910718008     A.U. after   12 cycles
 SCF Done:  E(UB3LYP) =  -842.910719549     A.U. after   11 cycles
 SCF Done:  E(UB3LYP) =  -842.910720481     A.U. after   11 cycles
 SCF Done:  E(UB3LYP) =  -842.910720784     A.U. after   10 cycles
 Optimization completed.
    -- Stationary point found.
 Normal termination of Gaussian 16 at Thu Dec 21 20:23:01 2023.

 ----------------------------------------------------------------------
 #P Geom=AllCheck Guess=TCheck SCRF=Check GenChk UB3LYP/6-311++G(d,p) F
 req
 ----------------------------------------------------------------------

 Structure from the checkpoint file:  "214-rad.chk"
 -------
 Radical
 -------
 Charge = -1 Multiplicity = 2

                          Input orientation:
 ---------------------------------------------------------------------
 Center     Atomic      Atomic             Coordinates (Angstroms)
 Number     Number       Type             X           Y           Z
 ---------------------------------------------------------------------
      1          6           0        5.042873   -2.249591    0.720328
      2          6           0        5.868931   -1.420544   -0.011460
      3          6           0        5.316595   -0.550046   -0.977657
      4          6           0        3.643562   -2.249042    0.524698
      5          6           0        3.086276   -1.370340   -0.450404
      6          6           0        3.952204   -0.531525   -1.186552
      7          6           0        2.810473   -3.147967    1.325813
      8          6           0        1.370988   -3.090456    1.066786
      9          6           0        0.814572   -2.211675    0.093069
     10          6           0        1.645733   -1.312933   -0.708826
     11          6           0        0.505337   -3.929643    1.802701
     12          6           0       -0.584098   -2.218731   -0.099753
     13          6           0       -1.405355   -3.047898    0.635201
     14          8           0        3.301760   -3.921618    2.186490
     15          8           0        1.153071   -0.538312   -1.566886
     16          1           0        5.439129   -2.927497    1.467648
     17          1           0        6.942321   -1.436184    0.153746
     18          1           0        5.965842    0.102524   -1.554087
     19          1           0       -2.478844   -3.039609    0.462201
     20          1           0        3.500627    0.125749   -1.920843
     21          1           0        0.964049   -4.589278    2.532439
     22          1           0       -0.986193   -1.549043   -0.851453
     23          6           0       -0.864317   -3.924226    1.610280
     24          6           0       -1.778346   -4.793857    2.446956
     25          6           0       -2.302755   -4.053001    3.673674
     26          8           0       -3.201351   -4.920092    4.389820
     27          1           0       -1.249381   -5.690141    2.784463
     28          1           0       -2.638333   -5.127846    1.855528
     29          1           0       -2.824951   -3.139440    3.361518
     30          1           0       -1.460500   -3.761769    4.313139
     31          1           0       -3.472152   -4.471530    5.195843
 ---------------------------------------------------------------------

 SCF Done:  E(UB3LYP) =  -842.910720784     A.U. after    1 cycles

 Alpha  occ. eigenvalues --  -19.04708 -18.94707 -18.94684 -10.13318 -10.09705
 Alpha  occ. eigenvalues --  -10.09647 -10.07781 -10.06945 -10.05952 -10.05934
 Alpha  occ. eigenvalues --  -10.05886 -10.05381 -10.05229 -10.05223 -10.05218
 Alpha  occ. eigenvalues --  -10.05135 -10.05093 -10.05049 -10.05030  -0.94401
 Alpha  occ. eigenvalues --   -0.87370  -0.87097  -0.74630  -0.73562  -0.69037
 Alpha  occ. eigenvalues --   -0.65565  -0.63173  -0.62939  -0.61401  -0.54995
 Alpha  occ. eigenvalues --   -0.53419  -0.51313  -0.48800  -0.47093  -0.44070
 Alpha  occ. eigenvalues --   -0.43496  -0.41501  -0.39763  -0.38600  -0.35035
 Alpha  occ. eigenvalues --   -0.34590  -0.34053  -0.33187  -0.32877  -0.30635
 Alpha  occ. eigenvalues --   -0.30499  -0.29593  -0.29382  -0.28295  -0.27951
 Alpha  occ. eigenvalues --   -0.26638  -0.26360  -0.25825  -0.25065  -0.24367
 Alpha  occ. eigenvalues --   -0.22860  -0.22734  -0.21523  -0.21198  -0.20202
 Alpha  occ. eigenvalues --   -0.14351  -0.13937  -0.13474  -0.12829  -0.11672
 Alpha  occ. eigenvalues --   -0.10828  -0.01621
 Alpha virt. eigenvalues --    0.05698   0.06589   0.08211   0.08571   0.09309
 Alpha virt. eigenvalues --    0.09911   0.10154   0.10368   0.11269   0.11577
 Alpha virt. eigenvalues --    0.12272   0.12933   0.13267   0.13937   0.15063

  Beta  occ. eigenvalues --  -19.04707 -18.94115 -18.94079 -10.13312 -10.09574
  Beta  occ. eigenvalues --  -10.09510 -10.07785 -10.06889 -10.05900 -10.05883
  Beta  occ. eigenvalues --  -10.05834 -10.05396 -10.05241 -10.05228 -10.05226
  Beta  occ. eigenvalues --  -10.05040 -10.05002 -10.04957 -10.04937  -0.94397
  Beta  occ. eigenvalues --   -0.86355  -0.86046  -0.74430  -0.73406  -0.68850
  Beta  occ. eigenvalues --   -0.65268  -0.62957  -0.62797  -0.61234  -0.54523
  Beta  occ. eigenvalues --   -0.53097  -0.51146  -0.48594  -0.47037  -0.44011
  Beta  occ. eigenvalues --   -0.43299  -0.41316  -0.39607  -0.38574  -0.34779
  Beta  occ. eigenvalues --   -0.34460  -0.33919  -0.33139  -0.32788  -0.30596
  Beta  occ. eigenvalues --   -0.30467  -0.29241  -0.28409  -0.27888  -0.27564
  Beta  occ. eigenvalues --   -0.26522  -0.26251  -0.25660  -0.24069  -0.22821
  Beta  occ. eigenvalues --   -0.22726  -0.22594  -0.20999  -0.20385  -0.20187
  Beta  occ. eigenvalues --   -0.13634  -0.12557  -0.12266  -0.11936  -0.11117
  Beta  occ. eigenvalues --   -0.10271
  Beta virt. eigenvalues --    0.04325   0.05698   0.07390   0.08204   0.08613
  Beta virt. eigenvalues --    0.09623   0.10147   0.10357   0.10620   0.11432
  Beta virt. eigenvalues --    0.11592   0.12262   0.12955   0.13273   0.13934

 Mulliken charges and spin densities:
               1          2
     1  C    0.029833   0.017941
     2  C   -0.397986   0.037967
     3  C   -0.402500   0.042728
     4  C    0.418465   0.046490
     5  C    0.212356   0.046501
     6  C    0.084656   0.017235
     7  C   -0.822538   0.072002
     8  C    0.304925   0.070950
     9  C    0.096008   0.049336
    10  C   -0.927950   0.065712
    11  C   -0.222965   0.006833
    12  C    0.099185   0.013668
    13  C   -0.493906   0.047452
    14  O   -0.361006   0.225964
    15  O   -0.363673   0.220570
    16  H    0.153198  -0.001361
    17  H    0.124277  -0.003306
    18  H    0.123253  -0.003555
    19  H    0.128308  -0.003589
    20  H    0.156836  -0.001126
    21  H    0.158540  -0.001189
    22  H    0.168006  -0.001028
    23  C    0.665398   0.034254
    24  C    0.061760  -0.002015
    25  C   -0.542540  -0.001330
    26  O   -0.290734   0.000278
    27  H    0.155574  -0.000114
    28  H    0.149178   0.002406
    29  H    0.148300  -0.000673
    30  H    0.152383   0.000884
    31  H    0.235361   0.000115
 Sum of Mulliken charges =  -1.00000   1.00000

 Dipole moment (field-independent basis, Debye):
    X=             -9.6917    Y=             12.4530    Z=             -1.4201  Tot=             15.8437
 Quadrupole moment (field-independent basis, Debye-Ang):
   XX=           -155.2258   YY=           -169.3800   ZZ=           -127.4633
   XY=             18.4971   XZ=             -7.4225   YZ=             22.0384

  Exact polarizability: 344.873  54.089 192.222 -33.786 -75.431 196.673
 Approx polarizability: 509.013  43.934 324.238  -1.768-139.070 327.550

                      1                      2                      3
                      A                      A                      A
 Frequencies --     29.8827                38.3377                72.6607
 Red. masses --      3.7499                 6.0423                 6.5786
 Frc consts  --      0.0020                 0.0052                 0.0205
 IR Inten    --      1.9478                 2.3855                 5.4683

                      4                      5                      6
                      A                      A                      A
 Frequencies --     94.6095               121.8860               148.1949
 Red. masses --      2.5828                 3.9894                 5.0128
 Frc consts  --      0.0136                 0.0349                 0.0649
 IR Inten    --      6.1962                 0.6118                 0.5232

                      7                      8                      9
                      A                      A                      A
 Frequencies --    166.8019               190.6992               221.1287
 Red. masses --      7.9852                 3.7200                 4.4051
 Frc consts  --      0.1309                 0.0797                 0.1269
 IR Inten    --      2.5794                 0.5443                 6.5463

                     10                     11                     12
                      A                      A                      A
 Frequencies --    226.3063               267.4493               287.7080
 Red. masses --      1.1583                 5.5787                 7.0864
 Frc consts  --      0.0350                 0.2351                 0.3456
 IR Inten    --    105.0977                 0.4875                 2.3592

                     13                     14                     15
                      A                      A                      A
 Frequencies --    331.9233               368.7488               378.6856
 Red. masses --      4.6344                 3.6138                10.3389
 Frc consts  --      0.3008                 0.2895                 0.8735
 IR Inten    --      6.0252                 4.2635                 3.2238

                     16                     17                     18
                      A                      A                      A
 Frequencies --    402.6037               419.6406               438.9637
 Red. masses --      6.6656                 3.9025                 5.1441
 Frc consts  --      0.6366                 0.4049                 0.5840
 IR Inten    --     12.6877                 0.8434                 3.3172

                     19                     20                     21
                      A                      A                      A
 Frequencies --    452.7325               468.9825               493.5316
 Red. masses --      5.6966                 3.2063                10.9843
 Frc consts  --      0.6879                 0.4155                 1.5763
 IR Inten    --      2.4449                 0.0163                 1.8319

                     22                     23                     24
                      A                      A                      A
 Frequencies --    545.2071               609.7036               640.7387
 Red. masses --      4.5902                 5.6741                 6.7370
 Frc consts  --      0.8039                 1.2428                 1.6296
 IR Inten    --      7.8870                19.4977                 4.6881

                     25                     26                     27
                      A                      A                      A
 Frequencies --    658.6097               679.8512               699.9744
 Red. masses --      4.2474                 5.6290                 6.2503
 Frc consts  --      1.0855                 1.5329                 1.8043
 IR Inten    --     11.2282                 8.5995                 0.6287

                     28                     29                     30
                      A                      A                      A
 Frequencies --    705.8762               736.9213               767.8447
 Red. masses --      2.4687                 4.5817                 3.6971
 Frc consts  --      0.7247                 1.4659                 1.2843
 IR Inten    --     59.4882                 0.3489                 3.3462

                     31                     32                     33
                      A                      A                      A
 Frequencies --    779.4775               803.1015               805.1376
 Red. masses --      2.0094                 1.3346                 2.3803
 Frc consts  --      0.7193                 0.5072                 0.9091
 IR Inten    --     13.9571                 1.4828                 2.4563

                     34                     35                     36
                      A                      A                      A
 Frequencies --    832.9200               862.6092               869.2698
 Red. masses --      1.7686                 5.2528                 1.5555
 Frc consts  --      0.7229                 2.3029                 0.6925
 IR Inten    --     20.3049                 1.0181                 0.1379

                     37                     38                     39
                      A                      A                      A
 Frequencies --    936.8231               938.2320               981.1817
 Red. masses --      4.9063                 1.6092                 1.3487
 Frc consts  --      2.5370                 0.8346                 0.7650
 IR Inten    --     21.1764                 9.5658                 0.5821

                     40                     41                     42
                      A                      A                      A
 Frequencies --    983.1436               983.6724               985.7742
 Red. masses --      2.9706                 1.2858                 1.3455
 Frc consts  --      1.6917                 0.7330                 0.7704
 IR Inten    --      0.6393                 0.5380                 3.0269

                     43                     44                     45
                      A                      A                      A
 Frequencies --   1004.1097              1024.4212              1036.3926
 Red. masses --      2.6749                 5.0678                 2.0069
 Frc consts  --      1.5890                 3.1335                 1.2701
 IR Inten    --      1.2910               208.0944                24.2482

                     46                     47                     48
                      A                      A                      A
 Frequencies --   1055.9493              1108.2738              1118.7955
 Red. masses --      1.6099                 2.3595                 1.9728
 Frc consts  --      1.0576                 1.7075                 1.4549
 IR Inten    --      0.7175                14.0243                 6.3610

                     49                     50                     51
                      A                      A                      A
 Frequencies --   1143.1851              1153.3966              1195.2403
 Red. masses --      1.6512                 1.3992                 2.4217
 Frc consts  --      1.2714                 1.0967                 2.0384
 IR Inten    --     14.1822                 8.5610                 2.7335

                     52                     53                     54
                      A                      A                      A
 Frequencies --   1207.5581              1218.6454              1223.7535
 Red. masses --      1.3835                 2.2400                 1.6266
 Frc consts  --      1.1886                 1.9600                 1.4352
 IR Inten    --      4.9822                 8.5029                 4.0371

                     55                     56                     57
                      A                      A                      A
 Frequencies --   1228.3967              1235.6749              1265.7270
 Red. masses --      1.3779                 2.3151                 1.8039
 Frc consts  --      1.2250                 2.0827                 1.7027
 IR Inten    --     39.2379                29.3825                77.2096

                     58                     59                     60
                      A                      A                      A
 Frequencies --   1311.2927              1328.4277              1340.2295
 Red. masses --      1.2011                 1.5407                 1.9327
 Frc consts  --      1.2168                 1.6020                 2.0454
 IR Inten    --      6.5831                 3.3743                 6.4727

                     61                     62                     63
                      A                      A                      A
 Frequencies --   1358.8051              1365.7715              1413.3572
 Red. masses --     10.7321                 7.4921                 2.8991
 Frc consts  --     11.6748                 8.2339                 3.4120
 IR Inten    --     20.9015                16.9117               288.6840

                     64                     65                     66
                      A                      A                      A
 Frequencies --   1432.2611              1464.0895              1476.7135
 Red. masses --      1.3976                 2.8480                 3.0889
 Frc consts  --      1.6892                 3.5969                 3.9687
 IR Inten    --      4.5884                93.9858                41.0697

                     67                     68                     69
                      A                      A                      A
 Frequencies --   1491.0259              1497.0695              1519.4808
 Red. masses --      1.0954                 3.1788                 1.1138
 Frc consts  --      1.4348                 4.1975                 1.5151
 IR Inten    --      4.3764                33.0388                26.1227

                     70                     71                     72
                      A                      A                      A
 Frequencies --   1522.4471              1534.1070              1555.1851
 Red. masses --      5.0692                 7.0321                 5.6280
 Frc consts  --      6.9227                 9.7509                 8.0198
 IR Inten    --    424.6331                45.3630                92.5584

                     73                     74                     75
                      A                      A                      A
 Frequencies --   1614.5291              1623.0577              1635.3981
 Red. masses --      8.9921                 5.7633                 6.6600
 Frc consts  --     13.8103                 8.9451                10.4948
 IR Inten    --      2.3118                 6.6179                15.1952

                     76                     77                     78
                      A                      A                      A
 Frequencies --   2989.8275              3018.5339              3026.4340
 Red. masses --      1.0554                 1.0751                 1.0906
 Frc consts  --      5.5587                 5.7714                 5.8857
 IR Inten    --     37.4499                44.4797                46.6560

                     79                     80                     81
                      A                      A                      A
 Frequencies --   3069.4165              3130.0324              3133.3645
 Red. masses --      1.1042                 1.0878                 1.0846
 Frc consts  --      6.1292                 6.2790                 6.2741
 IR Inten    --     33.0048                36.8540                17.6422

                     82                     83                     84
                      A                      A                      A
 Frequencies --   3152.4852              3164.7802              3181.4970
 Red. masses --      1.0911                 1.0893                 1.0913
 Frc consts  --      6.3886                 6.4280                 6.5081
 IR Inten    --     52.8343                12.2745                 7.9721

                     85                     86                     87
                      A                      A                      A
 Frequencies --   3181.8235              3184.0930              3843.4941
 Red. masses --      1.0915                 1.0929                 1.0666
 Frc consts  --      6.5109                 6.5284                 9.2837
 IR Inten    --     22.6082                27.9935                20.6963

 - Thermochemistry -
 -------------------
 Temperature   298.150 Kelvin.  Pressure   1.00000 Atm.
 Atom     1 has atomic number  6 and mass  12.00000

 Molecular mass:   252.07864 amu.
 Principal axes and moments of inertia in atomic units:
                           1         2         3
     Eigenvalues --  1972.288609125.21047**********
           X            0.81628   0.57598  -0.04408
           Y            0.38645  -0.48778   0.78277
           Z           -0.42936   0.65599   0.62075
 This molecule is an asymmetric top.
 Rotational symmetry number  1.
 Warning -- assumption of classical behavior for rotation
           may cause significant error
 Rotational temperatures (Kelvin)      0.04392     0.00949     0.00800
 Rotational constants (GHZ):           0.91505     0.19778     0.16670
 Zero-point vibrational energy     623290.9 (Joules/Mol)
                                  148.97009 (Kcal/Mol)
 Warning -- explicit consideration of  23 degrees of freedom as
           vibrations may cause significant error
 Vibrational temperatures:     42.99    55.16   104.54   136.12   175.37
          (Kelvin)            213.22   239.99   274.37   318.15   325.60
                              384.80   413.95   477.56   530.55   544.84
                              579.26   603.77   631.57   651.38   674.76
                              710.08   784.43   877.23   921.88   947.59
                              978.15  1007.11  1015.60  1060.27  1104.76
                             1121.49  1155.48  1158.41  1198.39  1241.10
                             1250.69  1347.88  1349.91  1411.70  1414.52
                             1415.29  1418.31  1444.69  1473.91  1491.14
                             1519.28  1594.56  1609.70  1644.79  1659.48
                             1719.68  1737.41  1753.36  1760.71  1767.39
                             1777.86  1821.10  1886.66  1911.31  1928.29
                             1955.02  1965.04  2033.51  2060.70  2106.50
                             2124.66  2145.25  2153.95  2186.19  2190.46
                             2207.24  2237.56  2322.95  2335.22  2352.97
                             4301.69  4343.00  4354.36  4416.21  4503.42
                             4508.21  4535.72  4553.41  4577.46  4577.93
                             4581.20  5529.93

 Zero-point correction=                           0.237399 (Hartree/Particle)
 Thermal correction to Energy=                    0.252906
 Thermal correction to Enthalpy=                  0.253851
 Thermal correction to Gibbs Free Energy=         0.193034
 Sum of electronic and zero-point Energies=           -842.673322
 Sum of electronic and thermal Energies=              -842.657814
 Sum of electronic and thermal Enthalpies=            -842.656870
 Sum of electronic and thermal Free Energies=         -842.717686

                     E (Thermal)             CV                S
                      KCal/Mol        Cal/Mol-Kelvin    Cal/Mol-Kelvin
 Total                  158.701             60.793            127.999
 Electronic               0.000              0.000              1.377
 Translational            0.889              2.981             42.474
 Rotational               0.889              2.981             33.632
 Vibrational            156.924             54.831             50.515
 Vibration     1          0.594              1.984              5.837
 Vibration     2          0.594              1.982              5.343
 Vibration     3          0.599              1.967              4.080
 Vibration     4          0.603              1.953              3.562
 Vibration     5          0.609              1.931              3.070
 Vibration     6          0.618              1.905              2.695
 Vibration     7          0.624              1.883              2.471
 Vibration     8          0.634              1.853              2.221
 Vibration     9          0.648              1.809              1.950
 Vibration    10          0.650              1.801              1.908
 Vibration    11          0.673              1.733              1.613
 Vibration    12          0.685              1.697              1.487
 Vibration    13          0.714              1.612              1.251
 Vibration    14          0.741              1.536              1.085
 Vibration    15          0.749              1.516              1.044
 Vibration    16          0.768              1.465              0.953
 Vibration    17          0.782              1.428              0.893
 Vibration    18          0.799              1.385              0.830
 Vibration    19          0.811              1.355              0.788
 Vibration    20          0.826              1.319              0.740
 Vibration    21          0.849              1.264              0.674
 Vibration    22          0.900              1.150              0.554
 Vibration    23          0.969              1.011              0.433

                           ! Non-Optimized Parameters !
 Normal termination of Gaussian 16 at Thu Dec 21 22:10:54 2023.
