 Q-Chem 5.4, Q-Chem, Inc., Pleasanton, CA (2021)
 Q-Chem 5.4.0 for Intel X86 EM64T Linux

User input:
--------------------------------------------------------------
$molecule
-2 1
C                  5.7947660000     -5.1056190000      1.2602130000
C                  6.7865390000     -5.0510130000      0.3118590000
C                  6.6689280000     -4.1199000000     -0.7826290000
C                  4.6392070000     -4.2784540000      1.2183050000
C                  4.5205450000     -3.3378820000      0.1126650000
C                  5.5378660000     -3.2935300000     -0.8450970000
C                  3.6384000000     -4.3860990000      2.2428970000
C                  2.5208630000     -3.4912150000      2.0798290000
C                  2.3933030000     -2.5759510000      1.0150990000
C                  3.3745840000     -2.4439240000     -0.0236970000
O                  3.7308770000     -5.2185630000      3.2329480000
O                  3.2637440000     -1.6106750000     -0.9984570000
C                  7.6796810000     -4.0490330000     -1.7686810000
N                  8.5326230000     -4.0152600000     -2.5672570000
H                  5.8580630000     -5.7974070000      2.0947810000
H                  7.6582290000     -5.6966040000      0.3712610000
H                  5.4176360000     -2.5814460000     -1.6553240000
C                  1.4436500000     -3.5722070000      3.1371330000
C                  1.1846210000     -1.6728420000      0.9230290000
H                  1.7341750000     -4.3393590000      3.8587000000
H                  0.4617260000     -3.8327570000      2.7127910000
H                  1.3067610000     -2.6167020000      3.6668740000
H                  0.2417970000     -2.2373570000      0.8465100000
H                  1.2910980000     -1.0485540000      0.0327930000
H                  1.0800160000     -1.0181750000      1.8026130000
$end
$rem
MAX_SCF_CYCLES=200
BASIS  =  6-311++G(d,p)
GUI  =  2
JOB_TYPE  =  SP
METHOD  =  B3LYP
SOLVENT_METHOD = COSMO
$end
$solvent
dielectric 37.219
opticaldielectric 1.43
$end

--------------------------------------------------------------

             Standard Nuclear Orientation (Angstroms)
    I     Atom           X                Y                Z
 ----------------------------------------------------------------
    1      C      -1.1379562892    -1.8700159181    -0.0000608787
    2      C      -2.4505597260    -1.4662300558    -0.0000055717
    3      C      -2.7578678450    -0.0575890554     0.0000083193
    4      C      -0.0485291597    -0.9565481587    -0.0000129976
    5      C      -0.3590968431     0.4663867941    -0.0000496326
    6      C      -1.6997493836     0.8624523553     0.0000009823
    7      C       1.3019557443    -1.4456098993    -0.0000500779
    8      C       2.3084887192    -0.4144994242     0.0001756705
    9      C       2.0221872000     0.9659574120    -0.0001064502
   10      C       0.6849203792     1.4866858447    -0.0000135802
   11      O       1.5932898787    -2.7092845730    -0.0002253648
   12      O       0.4170254459     2.7456452329     0.0001370253
   13      C      -4.1030846078     0.3775364036     0.0000442720
   14      N      -5.2254096075     0.7042792585     0.0000663865
   15      H      -0.8783766679    -2.9243874424    -0.0001127072
   16      H      -3.2617104161    -2.1888602177    -0.0000170294
   17      H      -1.8955158762     1.9300019549     0.0000164023
   18      C       3.7445352072    -0.8863147449     0.0004710810
   19      C       3.1432724060     1.9799410517    -0.0003660105
   20      H       3.7421895426    -1.9788155777     0.0051965856
   21      H       4.3018051157    -0.5252843856     0.8786706631
   22      H       4.2993409309    -0.5338500748    -0.8828823000
   23      H       3.7953622458     1.8872194728     0.8826011390
   24      H       2.7009597314     2.9789082876    -0.0044835163
   25      H       3.8001952407     1.8813122636    -0.8789579814
 ----------------------------------------------------------------

   12    -706.1900126080      6.92e-06  Convergence criterion met
 Total energy in the final basis set =     -706.1900126080
    6    -706.4543969329      4.99e-06  Convergence criterion met
 Total energy in the final basis set =     -706.4543969329

                    Orbital Energies (a.u.)
 --------------------------------------------------------------

 Alpha MOs
 -- Occupied --
-19.0314 -19.0233 -14.3053 -10.2112 -10.1875 -10.1843 -10.1761 -10.1702
-10.1634 -10.1544 -10.1487 -10.1440 -10.1417 -10.1379 -10.1375 -10.1368
 -0.9493  -0.9382  -0.9048  -0.8411  -0.7907  -0.7505  -0.7382  -0.7024
 -0.6651  -0.6419  -0.5952  -0.5766  -0.5385  -0.5112  -0.4822  -0.4491
 -0.4433  -0.4128  -0.4117  -0.3997  -0.3928  -0.3878  -0.3755  -0.3750
 -0.3669  -0.3639  -0.3600  -0.3573  -0.3445  -0.3293  -0.3256  -0.3175
 -0.3095  -0.3087  -0.2436  -0.2331  -0.2127  -0.2121  -0.2016  -0.1224

          Ground-State Mulliken Net Atomic Charges

     Atom                 Charge (a.u.)
  ----------------------------------------
      1 C                    -0.058614
      2 C                    -0.727878
      3 C                     1.312058
      4 C                     0.073941
      5 C                    -0.158922
      6 C                     0.210010
      7 C                    -0.499756
      8 C                     0.395420
      9 C                     0.641659
     10 C                    -0.542369
     11 O                    -0.731460
     12 O                    -0.685246
     13 C                    -1.373968
     14 N                    -0.372162
     15 H                     0.156422
     16 H                     0.202716
     17 H                     0.177567
     18 C                    -0.481397
     19 C                    -0.462873
     20 H                     0.176559
     21 H                     0.144380
     22 H                     0.144935
     23 H                     0.143754
     24 H                     0.171995
     25 H                     0.143229
  ----------------------------------------
  Sum of atomic charges =    -2.000000

                    Cartesian Multipole Moments
 -----------------------------------------------------------------
    Charge (ESU x 10^10)
                -9.6064
    Dipole Moment (Debye)
         X       2.6366      Y      -0.5741      Z      -0.0005
       Tot       2.6983
    Quadrupole Moments (Debye-Ang)
        XX    -168.7850     XY      20.4276     YY    -155.6454
        XZ       0.0024     YZ      -0.0046     ZZ    -102.7179

 Total job time:  52.33s(wall), 400.66s(cpu)
        *  Thank you very much for using Q-Chem.  Have a nice day.  *
