 Gaussian 16, Revision A.03,
 Gaussian 16:  ES64L-G16RevA.03 25-Dec-2016

 ----------------------------------------------------------------------
 #P UB3LYP/6-311++G(d,p) nosym opt freq SCRF=(PCM,Solvent=n,n-DiMethylF
 ormamide)
 ----------------------------------------------------------------------

 -------
 Radical
 -------
 Symbolic Z-matrix:
 Charge = -1 Multiplicity = 2

 SCF Done:  E(UB3LYP) =  -650.002665317     A.U. after   20 cycles
 SCF Done:  E(UB3LYP) =  -650.002840968     A.U. after   14 cycles
 SCF Done:  E(UB3LYP) =  -650.002856878     A.U. after   13 cycles
 SCF Done:  E(UB3LYP) =  -650.002865506     A.U. after   12 cycles
 SCF Done:  E(UB3LYP) =  -650.002866225     A.U. after   11 cycles
 SCF Done:  E(UB3LYP) =  -650.002866857     A.U. after   10 cycles
 SCF Done:  E(UB3LYP) =  -650.002866952     A.U. after   10 cycles
 SCF Done:  E(UB3LYP) =  -650.002867070     A.U. after    9 cycles
 Optimization completed.
    -- Stationary point found.
 Normal termination of Gaussian 16 at Sun Feb 11 15:12:31 2024.

 ----------------------------------------------------------------------
 #P Geom=AllCheck Guess=TCheck SCRF=Check GenChk UB3LYP/6-311++G(d,p) F
 req
 ----------------------------------------------------------------------

 Structure from the checkpoint file:  "307-rad.chk"
 -------
 Radical
 -------
 Charge = -1 Multiplicity = 2

                          Input orientation:
 ---------------------------------------------------------------------
 Center     Atomic      Atomic             Coordinates (Angstroms)
 Number     Number       Type             X           Y           Z
 ---------------------------------------------------------------------
      1          6           0       -3.398464   -0.716827   -0.369970
      2          6           0       -1.985195   -0.284377   -0.088512
      3          6           0       -1.712890    0.704471    0.837220
      4          6           0       -0.396407    1.153443    1.143382
      5          8           0       -0.178401    2.080855    2.012679
      6          6           0        0.707367    0.522482    0.434470
      7          6           0        2.048682    0.921095    0.694007
      8          8           0        2.305167    1.891478    1.603113
      9          6           0        3.105391    0.318669    0.018049
     10          6           0        2.845545   -0.686237   -0.922866
     11          6           0        1.547052   -1.092396   -1.193727
     12          6           0        0.461624   -0.498373   -0.523958
     13          6           0       -0.915214   -0.933341   -0.815812
     14          8           0       -1.149056   -1.838462   -1.669084
     15          1           0       -4.108430   -0.163574    0.247889
     16          1           0       -3.530075   -1.786422   -0.177596
     17          1           0       -3.658673   -0.559507   -1.421755
     18          1           0       -2.527108    1.182376    1.374778
     19          1           0        1.397779    2.165359    1.949736
     20          1           0        4.118759    0.638628    0.232241
     21          1           0        3.676437   -1.150050   -1.444071
     22          1           0        1.346110   -1.869288   -1.920211
 ---------------------------------------------------------------------

 SCF Done:  E(UB3LYP) =  -650.002867070     A.U. after    2 cycles

 Alpha  occ. eigenvalues --  -19.13047 -19.08961 -19.07793 -10.23487 -10.22973
 Alpha  occ. eigenvalues --  -10.22208 -10.17633 -10.17621 -10.17535 -10.17428
 Alpha  occ. eigenvalues --  -10.16641 -10.16363 -10.16145 -10.15881  -1.05260
 Alpha  occ. eigenvalues --   -1.00087  -0.99854  -0.85614  -0.81357  -0.75853
 Alpha  occ. eigenvalues --   -0.74173  -0.70305  -0.66583  -0.62503  -0.59506
 Alpha  occ. eigenvalues --   -0.57191  -0.51206  -0.50901  -0.49740  -0.46318
 Alpha  occ. eigenvalues --   -0.44926  -0.43437  -0.43332  -0.41914  -0.41292
 Alpha  occ. eigenvalues --   -0.39791  -0.38876  -0.37802  -0.37747  -0.37535
 Alpha  occ. eigenvalues --   -0.37419  -0.35391  -0.34583  -0.32918  -0.27703
 Alpha  occ. eigenvalues --   -0.25580  -0.25028  -0.24044  -0.22996  -0.15638
 Alpha virt. eigenvalues --   -0.02566  -0.01732  -0.00209   0.00739   0.01352
 Alpha virt. eigenvalues --    0.02615   0.02831   0.03767   0.04665   0.04680
 Alpha virt. eigenvalues --    0.05186   0.05558   0.05633   0.07220   0.07599

  Beta  occ. eigenvalues --  -19.13026 -19.08424 -19.07158 -10.23476 -10.22754
  Beta  occ. eigenvalues --  -10.22051 -10.17581 -10.17503 -10.17435 -10.17422
  Beta  occ. eigenvalues --  -10.16576 -10.16327 -10.16058 -10.15894  -1.05144
  Beta  occ. eigenvalues --   -0.99159  -0.98756  -0.85380  -0.80876  -0.75651
  Beta  occ. eigenvalues --   -0.73923  -0.69963  -0.65928  -0.62289  -0.59219
  Beta  occ. eigenvalues --   -0.56962  -0.51086  -0.50696  -0.49397  -0.46093
  Beta  occ. eigenvalues --   -0.44823  -0.43109  -0.42513  -0.41495  -0.40878
  Beta  occ. eigenvalues --   -0.39478  -0.38758  -0.37704  -0.37297  -0.36674
  Beta  occ. eigenvalues --   -0.35339  -0.35214  -0.34411  -0.31948  -0.25239
  Beta  occ. eigenvalues --   -0.25121  -0.24404  -0.23474  -0.22180
  Beta virt. eigenvalues --   -0.09179  -0.01537  -0.00585  -0.00187   0.00743
  Beta virt. eigenvalues --    0.01375   0.02630   0.02838   0.03865   0.04693
  Beta virt. eigenvalues --    0.05201   0.05568   0.05676   0.05877   0.07606

 Mulliken charges and spin densities:
               1          2
     1  C   -0.336176   0.001513
     2  C    0.619951   0.120326
     3  C   -0.368561   0.048061
     4  C   -0.965101   0.112026
     5  O   -0.520706   0.189790
     6  C    0.981698   0.024449
     7  C   -0.271478   0.025225
     8  O   -0.401773   0.007395
     9  C   -0.122261   0.047035
    10  C   -0.408438   0.023712
    11  C   -0.146746   0.054400
    12  C    0.345501   0.006274
    13  C   -0.477518   0.111464
    14  O   -0.472566   0.236789
    15  H    0.153984   0.000013
    16  H    0.167494   0.006410
    17  H    0.168291   0.006687
    18  H    0.156133  -0.007577
    19  H    0.366296  -0.004316
    20  H    0.184574  -0.003877
    21  H    0.187963  -0.002058
    22  H    0.159439  -0.003740
 Sum of Mulliken charges =  -1.00000   1.00000

 Dipole moment (field-independent basis, Debye):
    X=             -0.1545    Y=             -1.3165    Z=             -1.2169  Tot=              1.7994
 Quadrupole moment (field-independent basis, Debye-Ang):
   XX=            -88.7836   YY=           -105.8158   ZZ=           -102.7913
   XY=             -9.2607   XZ=             -8.7382   YZ=            -17.4172

  Exact polarizability: 296.421  18.152 206.270   0.206  91.023 197.427
 Approx polarizability: 311.228  20.190 243.551   2.225 112.125 232.676

                      1                      2                      3
                      A                      A                      A
 Frequencies --     83.5373               102.8247               157.4150
 Red. masses --      4.8895                 6.9761                 1.2673
 Frc consts  --      0.0201                 0.0435                 0.0185
 IR Inten    --     13.3263                 1.5174                 0.1723

                      4                      5                      6
                      A                      A                      A
 Frequencies --    176.5601               219.3278               260.8158
 Red. masses --      3.2620                 3.9139                 4.3419
 Frc consts  --      0.0599                 0.1109                 0.1740
 IR Inten    --      1.7690                 0.1068                 1.3861

                      7                      8                      9
                      A                      A                      A
 Frequencies --    262.0478               319.0802               375.2357
 Red. masses --      4.2157                 4.6316                 7.0513
 Frc consts  --      0.1706                 0.2778                 0.5850
 IR Inten    --      1.9330                 2.2667                31.1240

                     10                     11                     12
                      A                      A                      A
 Frequencies --    378.6878               410.7557               445.0345
 Red. masses --      5.0840                 9.7702                 8.4164
 Frc consts  --      0.4296                 0.9712                 0.9821
 IR Inten    --      0.0886                46.1863                 9.1164

                     13                     14                     15
                      A                      A                      A
 Frequencies --    475.0553               480.2216               524.2252
 Red. masses --      3.7993                 6.2745                 7.6465
 Frc consts  --      0.5052                 0.8525                 1.2381
 IR Inten    --      0.0082                 8.0396                 5.7594

                     16                     17                     18
                      A                      A                      A
 Frequencies --    561.3404               603.0301               648.4610
 Red. masses --      4.7539                 7.2943                 3.5944
 Frc consts  --      0.8826                 1.5628                 0.8905
 IR Inten    --      5.2502                42.8294                 1.8190

                     19                     20                     21
                      A                      A                      A
 Frequencies --    667.7802               693.3904               719.5087
 Red. masses --      4.4053                 6.1591                 4.8054
 Frc consts  --      1.1574                 1.7447                 1.4657
 IR Inten    --     15.0337                17.5141                 1.6904

                     22                     23                     24
                      A                      A                      A
 Frequencies --    745.9666               796.3458               805.2466
 Red. masses --      2.4800                 2.0254                 4.6204
 Frc consts  --      0.8131                 0.7568                 1.7652
 IR Inten    --     53.5975                83.0001                 1.6276

                     25                     26                     27
                      A                      A                      A
 Frequencies --    866.3899               890.5207               919.1042
 Red. masses --      1.4218                 1.4602                 6.4497
 Frc consts  --      0.6288                 0.6823                 3.2101
 IR Inten    --     26.5128                11.5206               112.9387

                     28                     29                     30
                      A                      A                      A
 Frequencies --    919.2054               980.0934               998.4422
 Red. masses --      1.0605                 1.2864                 2.2289
 Frc consts  --      0.5280                 0.7281                 1.3091
 IR Inten    --    122.9122                 0.6351                20.6488

                     31                     32                     33
                      A                      A                      A
 Frequencies --   1042.7668              1044.0359              1068.6321
 Red. masses --      2.1789                 1.5901                 2.2047
 Frc consts  --      1.3959                 1.0212                 1.4834
 IR Inten    --     41.3268                11.0846                37.5602

                     34                     35                     36
                      A                      A                      A
 Frequencies --   1135.9071              1167.9326              1200.3871
 Red. masses --      2.5847                 1.2124                 2.1501
 Frc consts  --      1.9649                 0.9744                 1.8254
 IR Inten    --     21.1233                12.1886               168.3856

                     37                     38                     39
                      A                      A                      A
 Frequencies --   1244.9503              1274.7290              1296.6934
 Red. masses --      3.8449                 2.3565                 4.0454
 Frc consts  --      3.5111                 2.2561                 4.0076
 IR Inten    --      0.6782               293.1139                29.8118

                     40                     41                     42
                      A                      A                      A
 Frequencies --   1327.5299              1384.5834              1397.7000
 Red. masses --      3.8207                 3.7677                 1.3610
 Frc consts  --      3.9671                 4.2556                 1.5665
 IR Inten    --    186.0130               136.7994               126.5466

                     43                     44                     45
                      A                      A                      A
 Frequencies --   1422.9777              1440.0140              1462.0037
 Red. masses --      5.0736                 3.2651                 1.0463
 Frc consts  --      6.0529                 3.9891                 1.3177
 IR Inten    --    372.2843                60.8076                 9.6513

                     46                     47                     48
                      A                      A                      A
 Frequencies --   1471.6344              1485.3712              1504.2506
 Red. masses --      1.4722                 2.5068                 3.5090
 Frc consts  --      1.8785                 3.2587                 4.6782
 IR Inten    --     18.7895                14.9041              1231.1026

                     49                     50                     51
                      A                      A                      A
 Frequencies --   1536.4141              1572.3450              1619.4284
 Red. masses --      3.0396                 3.0848                 6.2970
 Frc consts  --      4.2275                 4.4934                 9.7299
 IR Inten    --    184.8980                30.9227               174.9740

                     52                     53                     54
                      A                      A                      A
 Frequencies --   1654.1412              2907.0043              3018.0966
 Red. masses --      3.0989                 1.0743                 1.0367
 Frc consts  --      4.9958                 5.3488                 5.5636
 IR Inten    --    127.6038               938.6161                70.3027

                     55                     56                     57
                      A                      A                      A
 Frequencies --   3061.0619              3099.9132              3149.7373
 Red. masses --      1.0992                 1.1013                 1.0894
 Frc consts  --      6.0682                 6.2350                 6.3678
 IR Inten    --     34.0136                32.9982                42.6209

                     58                     59                     60
                      A                      A                      A
 Frequencies --   3161.4752              3181.6905              3196.7537
 Red. masses --      1.0872                 1.0926                 1.0926
 Frc consts  --      6.4022                 6.5166                 6.5787
 IR Inten    --     18.6019                23.5851                18.1155

 - Thermochemistry -
 -------------------
 Temperature   298.150 Kelvin.  Pressure   1.00000 Atm.
 Atom     1 has atomic number  6 and mass  12.00000

 Molecular mass:   188.04734 amu.
 Principal axes and moments of inertia in atomic units:
                           1         2         3
     Eigenvalues --  1611.324422748.457614348.72781
           X            0.91743  -0.39225   0.06681
           Y            0.32596   0.64459  -0.69156
           Z            0.22820   0.65623   0.71922
 This molecule is an asymmetric top.
 Rotational symmetry number  1.
 Warning -- assumption of classical behavior for rotation
           may cause significant error
 Rotational temperatures (Kelvin)      0.05375     0.03151     0.01992
 Rotational constants (GHZ):           1.12004     0.65664     0.41500
 Zero-point vibrational energy     424768.9 (Joules/Mol)
                                  101.52220 (Kcal/Mol)
 Warning -- explicit consideration of  17 degrees of freedom as
           vibrations may cause significant error
 Vibrational temperatures:    120.19   147.94   226.49   254.03   315.56
          (Kelvin)            375.26   377.03   459.09   539.88   544.85
                              590.99   640.31   683.50   690.93   754.24
                              807.64   867.63   932.99   960.79   997.63
                             1035.21  1073.28  1145.76  1158.57  1246.54
                             1281.26  1322.39  1322.53  1410.14  1436.54
                             1500.31  1502.13  1537.52  1634.32  1680.39
                             1727.09  1791.21  1834.05  1865.65  1910.02
                             1992.11  2010.98  2047.35  2071.86  2103.50
                             2117.35  2137.12  2164.28  2210.56  2262.25
                             2330.00  2379.94  4182.53  4342.37  4404.19
                             4460.08  4531.77  4548.66  4577.74  4599.42

 Zero-point correction=                           0.161786 (Hartree/Particle)
 Thermal correction to Energy=                    0.172762
 Thermal correction to Enthalpy=                  0.173706
 Thermal correction to Gibbs Free Energy=         0.124640
 Sum of electronic and zero-point Energies=           -649.841081
 Sum of electronic and thermal Energies=              -649.830106
 Sum of electronic and thermal Enthalpies=            -649.829161
 Sum of electronic and thermal Free Energies=         -649.878227

                     E (Thermal)             CV                S
                      KCal/Mol        Cal/Mol-Kelvin    Cal/Mol-Kelvin
 Total                  108.410             43.875            103.267
 Electronic               0.000              0.000              1.377
 Translational            0.889              2.981             41.600
 Rotational               0.889              2.981             31.333
 Vibrational            106.632             37.913             28.956
 Vibration     1          0.600              1.961              3.806
 Vibration     2          0.605              1.947              3.400
 Vibration     3          0.621              1.894              2.581
 Vibration     4          0.628              1.871              2.364
 Vibration     5          0.647              1.812              1.965
 Vibration     6          0.669              1.744              1.656
 Vibration     7          0.669              1.742              1.648
 Vibration     8          0.705              1.637              1.315
 Vibration     9          0.746              1.523              1.058
 Vibration    10          0.749              1.516              1.044
 Vibration    11          0.775              1.447              0.924
 Vibration    12          0.804              1.372              0.811
 Vibration    13          0.832              1.305              0.724
 Vibration    14          0.837              1.294              0.709
 Vibration    15          0.879              1.196              0.600
 Vibration    16          0.917              1.115              0.521
 Vibration    17          0.961              1.025              0.444

                           ! Non-Optimized Parameters !
 Normal termination of Gaussian 16 at Sun Feb 11 15:28:47 2024.
