 Q-Chem 5.4, Q-Chem, Inc., Pleasanton, CA (2021)
 Q-Chem 5.4.0 for Intel X86 EM64T Linux

User input:
--------------------------------------------------------------
$molecule
-2 1
O                  0.0998540000      2.9838620000      0.8637540000
C                  0.0602490000      1.7679800000      0.4854200000
C                  1.1830150000      0.8572000000      0.2926760000
C                  2.5649500000      1.0600420000      0.4677850000
C                  3.4569980000      0.0225770000      0.2205770000
C                  2.9932740000     -1.2472870000     -0.2053610000
C                  1.6217870000     -1.4737640000     -0.3603790000
C                  0.7085110000     -0.4514520000     -0.0973010000
C                 -0.7361000000     -0.3858000000     -0.1567870000
C                 -1.7131090000     -1.3222770000     -0.4982490000
C                 -3.0667910000     -0.9722170000     -0.4551680000
C                 -3.4473150000      0.3354240000     -0.0633380000
C                 -2.4885490000      1.2890080000      0.2603760000
C                 -1.1208050000      0.9617580000      0.1981410000
H                  2.9210150000      2.0344780000      0.7932320000
H                  4.5271770000      0.1827040000      0.3427400000
H                  3.7061970000     -2.0418640000     -0.4173550000
H                  1.2724790000     -2.4542100000     -0.6805850000
H                 -1.4291640000     -2.3313350000     -0.7930510000
H                 -3.8286080000     -1.6999630000     -0.7283390000
H                 -4.5049940000      0.5922520000     -0.0283690000
H                 -2.7800720000      2.2928820000      0.5595820000
$end
$rem
MAX_SCF_CYCLES=200
BASIS  =  6-311++G(d,p)
GUI  =  2
JOB_TYPE  =  SP
METHOD  =  B3LYP
SOLVENT_METHOD = COSMO
$end
$solvent
dielectric 37.219
opticaldielectric 1.43
$end

--------------------------------------------------------------

             Standard Nuclear Orientation (Angstroms)
    I     Atom           X                Y                Z
 ----------------------------------------------------------------
    1      O      -0.0001018096     2.8526243026     0.0144487072
    2      C      -0.0000619942     1.5787523260     0.0324596818
    3      C      -1.1540341374     0.6868735696     0.0192488783
    4      C      -2.5313974188     0.9748653018    -0.0192678221
    5      C      -3.4585796010    -0.0612098599    -0.0280151758
    6      C      -3.0357016151    -1.4138004261    -0.0017344643
    7      C      -1.6706617679    -1.7184184101     0.0114223675
    8      C      -0.7236289645    -0.6930434748    -0.0004107619
    9      C       0.7236960467    -0.6929141834    -0.0003338750
   10      C       1.6705187585    -1.7183429379     0.0121030387
   11      C       3.0357442252    -1.4136561864    -0.0012514293
   12      C       3.4586466406    -0.0613702992    -0.0282824247
   13      C       2.5315360912     0.9748441369    -0.0198495582
   14      C       1.1540940549     0.6870378438     0.0190140693
   15      H      -2.8560611790     2.0123926461    -0.0380828383
   16      H      -4.5245282693     0.1609208934    -0.0441059128
   17      H      -3.7745469088    -2.2127913742     0.0148295248
   18      H      -1.3532296640    -2.7600057001     0.0238761562
   19      H       1.3535433180    -2.7600174086     0.0252139826
   20      H       3.7744194341    -2.2128251419     0.0157689603
   21      H       4.5245359966     0.1610699685    -0.0446692377
   22      H       2.8556598398     2.0125572935    -0.0390354373
 ----------------------------------------------------------------

   13    -575.5125660847      4.52e-06  Convergence criterion met
 Total energy in the final basis set =     -575.5125660847
    6    -575.7861268775      6.76e-06  Convergence criterion met
 Total energy in the final basis set =     -575.7861268775

                    Orbital Energies (a.u.)
 --------------------------------------------------------------

 Alpha MOs
 -- Occupied --
-19.0125 -10.1479 -10.1432 -10.1432 -10.1387 -10.1386 -10.1348 -10.1348
-10.1310 -10.1310 -10.1255 -10.1251 -10.1134 -10.1133  -0.9295  -0.8326
 -0.8030  -0.7497  -0.7191  -0.7053  -0.6712  -0.6160  -0.5875  -0.5476
 -0.5344  -0.5124  -0.4678  -0.4596  -0.4297  -0.4072  -0.4069  -0.3896
 -0.3857  -0.3744  -0.3699  -0.3584  -0.3259  -0.3257  -0.3234  -0.3044
 -0.2973  -0.2911  -0.2559  -0.2234  -0.2220  -0.1896  -0.1795  -0.0864

          Ground-State Mulliken Net Atomic Charges

     Atom                 Charge (a.u.)
  ----------------------------------------
      1 O                    -0.807181
      2 C                    -0.222382
      3 C                     0.566792
      4 C                    -0.360830
      5 C                    -0.381759
      6 C                    -0.423984
      7 C                    -0.538325
      8 C                     0.076102
      9 C                     0.076463
     10 C                    -0.536766
     11 C                    -0.425345
     12 C                    -0.380842
     13 C                    -0.361755
     14 C                     0.569443
     15 H                     0.133955
     16 H                     0.157433
     17 H                     0.163973
     18 H                     0.119810
     19 H                     0.119988
     20 H                     0.163917
     21 H                     0.157499
     22 H                     0.133794
  ----------------------------------------
  Sum of atomic charges =    -2.000000

                    Cartesian Multipole Moments
 -----------------------------------------------------------------
    Charge (ESU x 10^10)
                -9.6064
    Dipole Moment (Debye)
         X      -0.0013      Y      -9.8220      Z      -0.0465
       Tot       9.8221
    Quadrupole Moments (Debye-Ang)
        XX    -117.5381     XY      -0.0126     YY    -126.0060
        XZ       0.0023     YZ      -0.4244     ZZ     -97.4542

 Total job time:  44.50s(wall), 329.14s(cpu)
        *  Thank you very much for using Q-Chem.  Have a nice day.  *
