 Q-Chem 5.4, Q-Chem, Inc., Pleasanton, CA (2021)
 Q-Chem 5.4.0 for Intel X86 EM64T Linux

User input:
--------------------------------------------------------------
$molecule
-2 1
C                  0.1461470000      3.7279030000     -0.0564290000
C                 -0.9570050000      3.6744450000     -0.8858280000
C                 -1.0197120000      2.7077360000     -1.9197760000
C                  1.2334680000      2.8309440000     -0.2111210000
C                  1.1715720000      1.8478880000     -1.2646180000
C                  0.0327890000      1.8212720000     -2.0905800000
C                  2.3717390000      2.8935290000      0.6581250000
C                  3.4062930000      1.9377630000      0.4038160000
C                  3.3841630000      0.9731700000     -0.5976330000
C                  2.2573660000      0.8847990000     -1.4911630000
O                  2.5399450000      3.7260290000      1.6384780000
O                  2.1978740000      0.0167790000     -2.4220500000
H                  0.2154310000      4.4599210000      0.7419230000
H                 -1.7779630000      4.3748650000     -0.7462300000
H                 -1.8867920000      2.6633000000     -2.5744530000
H                  0.0159780000      1.0706110000     -2.8743990000
O                  4.4654090000      2.0519720000      1.2740620000
H                  4.1493300000      2.8051000000      1.8304910000
C                  4.5223290000     -0.0024770000     -0.7670250000
C                  5.5545790000      0.4375240000     -1.8277280000
C                  6.6782870000     -0.5818500000     -2.1121400000
C                  7.4955730000     -0.1584190000     -3.3512960000
C                  8.5129920000     -1.1879660000     -3.8671010000
C                  9.2449080000     -0.7252930000     -5.1350720000
C                 10.2151060000     -1.7456920000     -5.7644010000
C                 10.6985980000     -1.2547940000     -7.1371190000
C                  7.5788860000     -0.7952430000     -0.8844370000
C                 11.4116410000     -2.0631370000     -4.8547430000
H                  4.0995650000     -0.9622470000     -1.0873760000
H                  5.0176090000     -0.1443550000      0.1980560000
H                  6.0025820000      1.3913700000     -1.5184830000
H                  5.0074830000      0.6278820000     -2.7565320000
H                  6.1955570000     -1.5420200000     -2.3489260000
H                  8.0174640000      0.7827040000     -3.1254750000
H                  6.7925950000      0.0740610000     -4.1606420000
H                  7.9914190000     -2.1318620000     -4.0780240000
H                  9.2441380000     -1.4116240000     -3.0839090000
H                  9.7984100000      0.1992270000     -4.9182170000
H                  8.4945490000     -0.4541350000     -5.8893980000
H                  9.6571770000     -2.6794550000     -5.9222880000
H                  9.8567310000     -1.0776390000     -7.8166540000
H                 11.3662470000     -1.9789980000     -7.6163790000
H                 11.2531480000     -0.3130140000     -7.0437250000
H                  8.3402600000     -1.5626460000     -1.0577500000
H                  6.9939380000     -1.1012700000     -0.0143670000
H                  8.0938720000      0.1367920000     -0.6215470000
H                 11.0986810000     -2.4945170000     -3.8989240000
H                 11.9889380000     -1.1558950000     -4.6389580000
H                 12.0930130000     -2.7759470000     -5.3319300000
$end
$rem
MAX_SCF_CYCLES=200
BASIS  =  6-311++G(d,p)
GUI  =  2
JOB_TYPE  =  SP
METHOD  =  B3LYP
SCF_ALGORITHM = RCA_DIIS
SCF_CONVERGENCE = 8
scf_guess = GWH
THRESH = 14
SOLVENT_METHOD = PCM
$end
$pcm
theory = CPCM
$end
$solvent
dielectric 37.219
opticaldielectric 1.43
$end

--------------------------------------------------------------

             Standard Nuclear Orientation (Angstroms)
    I     Atom           X                Y                Z
 ----------------------------------------------------------------
    1      C       0.1461470000     3.7279030000    -0.0564290000
    2      C      -0.9570050000     3.6744450000    -0.8858280000
    3      C      -1.0197120000     2.7077360000    -1.9197760000
    4      C       1.2334680000     2.8309440000    -0.2111210000
    5      C       1.1715720000     1.8478880000    -1.2646180000
    6      C       0.0327890000     1.8212720000    -2.0905800000
    7      C       2.3717390000     2.8935290000     0.6581250000
    8      C       3.4062930000     1.9377630000     0.4038160000
    9      C       3.3841630000     0.9731700000    -0.5976330000
   10      C       2.2573660000     0.8847990000    -1.4911630000
   11      O       2.5399450000     3.7260290000     1.6384780000
   12      O       2.1978740000     0.0167790000    -2.4220500000
   13      H       0.2154310000     4.4599210000     0.7419230000
   14      H      -1.7779630000     4.3748650000    -0.7462300000
   15      H      -1.8867920000     2.6633000000    -2.5744530000
   16      H       0.0159780000     1.0706110000    -2.8743990000
   17      O       4.4654090000     2.0519720000     1.2740620000
   18      H       4.1493300000     2.8051000000     1.8304910000
   19      C       4.5223290000    -0.0024770000    -0.7670250000
   20      C       5.5545790000     0.4375240000    -1.8277280000
   21      C       6.6782870000    -0.5818500000    -2.1121400000
   22      C       7.4955730000    -0.1584190000    -3.3512960000
   23      C       8.5129920000    -1.1879660000    -3.8671010000
   24      C       9.2449080000    -0.7252930000    -5.1350720000
   25      C      10.2151060000    -1.7456920000    -5.7644010000
   26      C      10.6985980000    -1.2547940000    -7.1371190000
   27      C       7.5788860000    -0.7952430000    -0.8844370000
   28      C      11.4116410000    -2.0631370000    -4.8547430000
   29      H       4.0995650000    -0.9622470000    -1.0873760000
   30      H       5.0176090000    -0.1443550000     0.1980560000
   31      H       6.0025820000     1.3913700000    -1.5184830000
   32      H       5.0074830000     0.6278820000    -2.7565320000
   33      H       6.1955570000    -1.5420200000    -2.3489260000
   34      H       8.0174640000     0.7827040000    -3.1254750000
   35      H       6.7925950000     0.0740610000    -4.1606420000
   36      H       7.9914190000    -2.1318620000    -4.0780240000
   37      H       9.2441380000    -1.4116240000    -3.0839090000
   38      H       9.7984100000     0.1992270000    -4.9182170000
   39      H       8.4945490000    -0.4541350000    -5.8893980000
   40      H       9.6571770000    -2.6794550000    -5.9222880000
   41      H       9.8567310000    -1.0776390000    -7.8166540000
   42      H      11.3662470000    -1.9789980000    -7.6163790000
   43      H      11.2531480000    -0.3130140000    -7.0437250000
   44      H       8.3402600000    -1.5626460000    -1.0577500000
   45      H       6.9939380000    -1.1012700000    -0.0143670000
   46      H       8.0938720000     0.1367920000    -0.6215470000
   47      H      11.0986810000    -2.4945170000    -3.8989240000
   48      H      11.9889380000    -1.1558950000    -4.6389580000
   49      H      12.0930130000    -2.7759470000    -5.3319300000
 ----------------------------------------------------------------

  101   -1004.0166970152      7.08E-09 Convergence criterion met
 Total energy in the final basis set = -1004.01669702

                    Orbital Energies (a.u.)
 --------------------------------------------------------------

 Alpha MOs
 -- Occupied --
-19.1120 -19.0272 -19.0198 -10.1754 -10.1728 -10.1641 -10.1612 -10.1571
-10.1516 -10.1507 -10.1493 -10.1480 -10.1474 -10.1470 -10.1439 -10.1435
-10.1433 -10.1431 -10.1424 -10.1395 -10.1351 -10.1311 -10.1230  -1.0264
 -0.9434  -0.9338  -0.8235  -0.8101  -0.7948  -0.7700  -0.7430  -0.7212
 -0.7204  -0.6829  -0.6748  -0.6646  -0.6374  -0.6167  -0.5876  -0.5780
 -0.5541  -0.5511  -0.5405  -0.5341  -0.5022  -0.4713  -0.4672  -0.4549
 -0.4447  -0.4355  -0.4310  -0.4267  -0.4207  -0.4178  -0.4037  -0.3998
 -0.3986  -0.3896  -0.3780  -0.3744  -0.3733  -0.3694  -0.3606  -0.3572
 -0.3507  -0.3504  -0.3474  -0.3411  -0.3343  -0.3342  -0.3207  -0.3176
 -0.3152  -0.3101  -0.3075  -0.3046  -0.3032  -0.2982  -0.2969  -0.2868
 -0.2293  -0.2250  -0.2161  -0.1982  -0.1916  -0.1070

          Ground-State Mulliken Net Atomic Charges

     Atom                 Charge (a.u.)
  ----------------------------------------
      1 C                    -0.152074
      2 C                    -0.376853
      3 C                    -0.559768
      4 C                     0.532219
      5 C                    -0.181822
      6 C                     0.009923
      7 C                    -1.000538
      8 C                    -0.747598
      9 C                     2.065548
     10 C                    -0.739825
     11 O                    -0.752265
     12 O                    -0.668385
     13 H                     0.141987
     14 H                     0.170770
     15 H                     0.163956
     16 H                     0.143219
     17 O                    -0.339334
     18 H                     0.284948
     19 C                    -0.036061
     20 C                    -1.099245
     21 C                     1.236112
     22 C                    -0.717071
     23 C                    -0.023213
     24 C                    -0.845162
     25 C                     0.529847
     26 C                    -0.679558
     27 C                    -0.761610
     28 C                    -0.714828
     29 H                     0.175466
     30 H                     0.197207
     31 H                     0.163504
     32 H                     0.173597
     33 H                     0.123223
     34 H                     0.147771
     35 H                     0.110409
     36 H                     0.152781
     37 H                     0.099704
     38 H                     0.143205
     39 H                     0.135481
     40 H                     0.142619
     41 H                     0.141002
     42 H                     0.163338
     43 H                     0.145273
     44 H                     0.152595
     45 H                     0.144074
     46 H                     0.156451
     47 H                     0.148213
     48 H                     0.150691
     49 H                     0.150078
  ----------------------------------------
  Sum of atomic charges =    -2.000000

                    Cartesian Multipole Moments
 -----------------------------------------------------------------
    Charge (ESU x 10^10)
                -9.6064
    Dipole Moment (Debye)
         X     -21.8195      Y     -18.5323      Z       4.3329
       Tot      28.9536
    Quadrupole Moments (Debye-Ang)
        XX    -221.0521     XY     -39.3609     YY    -213.2491
        XZ       5.2021     YZ     -13.8671     ZZ    -186.0208

 Total job time:  2908.66s(wall), 17863.68s(cpu)
        *  Thank you very much for using Q-Chem.  Have a nice day.  *
