 Q-Chem 5.4, Q-Chem, Inc., Pleasanton, CA (2021)
 Q-Chem 5.4.0 for Intel X86 EM64T Linux

User input:
--------------------------------------------------------------
$molecule
-2 1
C                  0.2766900000      1.7404340000     -1.6724990000
C                 -1.0846940000      2.0313650000     -2.0699640000
C                 -1.9822750000      1.0631570000     -2.4480130000
C                 -1.6752920000     -0.3593010000     -2.5023770000
C                 -0.3464300000     -0.6526320000     -2.1374850000
C                  0.6289480000      0.3288860000     -1.7465610000
O                  1.0515070000      2.6774790000     -1.2739970000
O                 -2.5768330000     -1.2168280000     -2.8645070000
C                  3.1125020000      0.8208670000     -1.1358510000
C                  4.0898890000      1.0058510000     -2.1191110000
C                  3.3423260000      1.3434490000      0.1528380000
C                  4.5334720000      2.0276490000      0.4069080000
C                  5.2645510000      1.7128440000     -1.8623040000
C                  5.4958130000      2.2244280000     -0.5868960000
H                 -1.3743680000      3.0815940000     -2.0388880000
H                 -2.9986340000      1.3432490000     -2.7312540000
H                 -0.0230450000     -1.6882370000     -2.1643280000
H                  3.9149800000      0.5856790000     -3.1043000000
H                  4.7031810000      2.4315030000      1.4032590000
H                  5.9981260000      1.8565870000     -2.6527280000
H                  6.4095030000      2.7709630000     -0.3659650000
C                  1.9616270000     -0.1291810000     -1.4526820000
O                  2.3253480000     -1.3320630000     -1.4726900000
C                  2.2874210000      1.2209790000      1.2203660000
H                  1.9228800000      0.1938260000      1.3098270000
H                  1.4397810000      1.8518300000      0.9313410000
H                  2.6701570000      1.5463820000      2.1946690000
$end
$rem
MAX_SCF_CYCLES=200
BASIS  =  6-311++G(d,p)
GUI  =  2
JOB_TYPE  =  SP
METHOD  =  B3LYP
SOLVENT_METHOD = COSMO
$end
$solvent
dielectric 37.219
opticaldielectric 1.43
$end

--------------------------------------------------------------

             Standard Nuclear Orientation (Angstroms)
    I     Atom           X                Y                Z
 ----------------------------------------------------------------
    1      C      -1.0677641855    -1.1006724839     0.4284548831
    2      C      -2.3717444969    -1.6790709497     0.6755909396
    3      C      -3.5479026663    -1.0001129473     0.4714649471
    4      C      -3.6263355968     0.3733199532    -0.0061448431
    5      C      -2.3623339344     0.9538822505    -0.2304452638
    6      C      -1.1071312844     0.2849234799    -0.0194431985
    7      O      -0.0072636903    -1.8001531093     0.5809806642
    8      O      -4.7745995244     0.9481567976    -0.1802695746
    9      C       1.4892556409     0.4780229967     0.0479362502
   10      C       2.1620486831     0.9724592159     1.1700712702
   11      C       2.1954451618    -0.3378589978    -0.8588510943
   12      C       3.5392592071    -0.6268647650    -0.6095531272
   13      C       3.4969242634     0.6569483273     1.4234086260
   14      C       4.1979939013    -0.1443096848     0.5243241867
   15      H      -2.3748455761    -2.7111566570     1.0258011232
   16      H      -4.5022084630    -1.4918294830     0.6693990381
   17      H      -2.3231981208     1.9829549314    -0.5728688706
   18      H       1.6178552272     1.6146499766     1.8550380891
   19      H       4.0778065652    -1.2601765468    -1.3120468591
   20      H       3.9882188183     1.0413362879     2.3147222557
   21      H       5.2414793210    -0.3938530528     0.7009784121
   22      C       0.1000120203     1.0356511776    -0.2462394200
   23      O       0.1376022147     2.2232119423    -0.6560013011
   24      C       1.4899396000    -0.9415785759    -2.0442725653
   25      H       0.9261997732    -0.1892695815    -2.6029900980
   26      H       0.7761818125    -1.6837077774    -1.6703794343
   27      H       2.2006007602    -1.4271071217    -2.7231415073
 ----------------------------------------------------------------

   12    -765.3680135233      7.40e-06  Convergence criterion met
 Total energy in the final basis set =     -765.3680135233
    6    -765.6520031569      4.66e-06  Convergence criterion met
 Total energy in the final basis set =     -765.6520031569

                    Orbital Energies (a.u.)
 --------------------------------------------------------------

 Alpha MOs
 -- Occupied --
-19.0775 -19.0393 -19.0275 -10.2279 -10.1990 -10.1815 -10.1712 -10.1683
-10.1632 -10.1626 -10.1615 -10.1607 -10.1476 -10.1474 -10.1399 -10.1395
-10.1242  -1.0002  -0.9584  -0.9399  -0.8484  -0.7914  -0.7626  -0.7447
 -0.7217  -0.6751  -0.6630  -0.6213  -0.5870  -0.5752  -0.5512  -0.5202
 -0.4800  -0.4587  -0.4519  -0.4412  -0.4354  -0.4226  -0.4060  -0.4044
 -0.3970  -0.3917  -0.3799  -0.3740  -0.3721  -0.3517  -0.3475  -0.3463
 -0.3368  -0.3279  -0.3255  -0.3251  -0.2558  -0.2419  -0.2391  -0.2286
 -0.2244  -0.2089  -0.2040  -0.1382

          Ground-State Mulliken Net Atomic Charges

     Atom                 Charge (a.u.)
  ----------------------------------------
      1 C                    -1.348138
      2 C                    -0.303596
      3 C                    -0.086341
      4 C                    -0.427612
      5 C                     0.069569
      6 C                     1.327353
      7 O                    -0.520050
      8 O                    -0.773665
      9 C                     0.599952
     10 C                    -0.145297
     11 C                     0.716408
     12 C                    -0.291568
     13 C                    -0.585202
     14 C                    -0.228649
     15 H                     0.174064
     16 H                     0.180375
     17 H                     0.162574
     18 H                     0.216726
     19 H                     0.176282
     20 H                     0.193318
     21 H                     0.197960
     22 C                    -0.729859
     23 O                    -0.446282
     24 C                    -0.646198
     25 H                     0.163072
     26 H                     0.192821
     27 H                     0.161986
  ----------------------------------------
  Sum of atomic charges =    -2.000000

                    Cartesian Multipole Moments
 -----------------------------------------------------------------
    Charge (ESU x 10^10)
                -9.6064
    Dipole Moment (Debye)
         X      18.4826      Y      -4.4746      Z       0.3150
       Tot      19.0191
    Quadrupole Moments (Debye-Ang)
        XX    -200.3595     XY      17.2449     YY    -134.9897
        XZ      -3.5905     YZ      11.4884     ZZ    -107.4702

 Total job time:  76.23s(wall), 534.37s(cpu)
        *  Thank you very much for using Q-Chem.  Have a nice day.  *
