 Q-Chem 5.4, Q-Chem, Inc., Pleasanton, CA (2021)
 Q-Chem 5.4.0 for Intel X86 EM64T Linux

User input:
--------------------------------------------------------------
$molecule
-1 2
C                 -1.8809450000      4.5421360000      5.2842050000
C                 -3.1511370000      4.0084250000      5.3966950000
C                 -3.6182170000      3.0943610000      4.4318820000
C                 -1.0397510000      4.1783480000      4.2111850000
C                 -1.5064710000      3.2560200000      3.2365890000
C                 -2.8042570000      2.7318200000      3.3708400000
C                  0.2857490000      4.7396700000      4.0805150000
C                  1.0737960000      4.2840120000      2.9597420000
C                  0.6763800000      3.3512300000      2.0126340000
C                 -0.6750120000      2.8338340000      2.0820310000
O                  0.8030450000      5.5964460000      4.8673550000
O                 -1.1774890000      2.0655970000      1.2172300000
O                  2.2992900000      4.8691110000      2.8947820000
H                 -1.4980810000      5.2503580000      6.0101890000
H                 -3.7898670000      4.2940330000      6.2273330000
H                 -4.6161510000      2.6755350000      4.5197130000
H                 -3.1407890000      2.0342680000      2.6128670000
H                  2.2884780000      5.4607890000      3.6804890000
C                  2.9674430000      2.3759320000      1.3596460000
C                  3.0281550000      1.5833290000      2.5066030000
C                  4.1300530000      2.5279000000      0.5959610000
C                  5.3192000000      1.9029190000      0.9629840000
C                  5.3670300000      1.1094780000      2.1101970000
C                  4.2159900000      0.9542500000      2.8801550000
H                  2.1393160000      1.4693590000      3.1163950000
H                  4.0922000000      3.1412120000     -0.2985720000
H                  6.2106440000      2.0387890000      0.3583090000
H                  4.2414990000      0.3453770000      3.7783590000
H                  6.2928200000      0.6248220000      2.4033710000
C                  1.6777610000      3.0510600000      0.8831920000
H                  1.9937360000      4.0372950000      0.5201510000
N                  1.1667880000      2.3448740000     -0.3180950000
C                  1.1065680000      0.8793470000     -0.2453940000
C                  0.3829210000      0.3288080000     -1.4739930000
C                  0.3239160000     -1.2021230000     -1.4992350000
C                 -0.4100500000     -1.7676340000     -2.7205820000
C                 -0.4732580000     -3.2990790000     -2.7484740000
C                 -1.2081320000     -3.8655050000     -3.9688290000
C                 -1.2715030000     -5.3969660000     -3.9956730000
C                 -2.0059850000     -5.9632950000     -5.2162690000
C                 -2.0688440000     -7.4947860000     -5.2425690000
C                 -2.8023820000     -8.0613090000     -6.4633630000
C                 -2.8657780000     -9.5927260000     -6.4901360000
C                 -3.6002520000    -10.1490110000     -7.7137470000
H                  0.2079970000      2.6576450000     -0.4413710000
H                  0.5841390000      0.5289760000      0.6551090000
H                  2.1280130000      0.4865390000     -0.2198100000
H                  0.8827730000      0.6986420000     -2.3782310000
H                 -0.6379530000      0.7299920000     -1.4868840000
H                 -0.1689840000     -1.5587310000     -0.5861090000
H                  1.3446640000     -1.6070950000     -1.4735900000
H                  0.0803720000     -1.4097020000     -3.6357980000
H                 -1.4303830000     -1.3634790000     -2.7455680000
H                 -0.9640190000     -3.6560480000     -1.8336160000
H                  0.5473060000     -3.7036880000     -2.7217390000
H                 -0.7177060000     -3.5082840000     -4.8840960000
H                 -2.2285680000     -3.4613040000     -3.9951600000
H                 -1.7625220000     -5.7539290000     -3.0809250000
H                 -0.2510430000     -5.8013680000     -3.9685090000
H                 -1.5151460000     -5.6061760000     -6.1311930000
H                 -3.0264740000     -5.5593420000     -5.2432040000
H                 -2.5603640000     -7.8517820000     -4.3280890000
H                 -1.0483150000     -7.8988200000     -5.2148600000
H                 -2.3112300000     -7.7051890000     -7.3786420000
H                 -3.8232930000     -7.6580870000     -6.4917730000
H                 -3.3574110000     -9.9489510000     -5.5765440000
H                 -1.8460480000     -9.9961370000     -6.4622440000
H                 -4.6342310000     -9.7910710000     -7.7504770000
H                 -3.6278580000    -11.2425860000     -7.7025840000
H                 -3.1115670000     -9.8385570000     -8.6429790000
$end

$rem
BASIS  =  6-311++G(d,p)
GUI  =  2
JOB_TYPE  =  SP
METHOD  =  B3LYP
SCF_CONVERGENCE  = 8
SOLVENT_METHOD = sm12
$end

$smx
solvent dimethylformamide
charges CM5
$end

--------------------------------------------------------------

             Standard Nuclear Orientation (Angstroms)
    I     Atom           X                Y                Z
 ----------------------------------------------------------------
    1      C      -1.8809450000     4.5421360000     5.2842050000
    2      C      -3.1511370000     4.0084250000     5.3966950000
    3      C      -3.6182170000     3.0943610000     4.4318820000
    4      C      -1.0397510000     4.1783480000     4.2111850000
    5      C      -1.5064710000     3.2560200000     3.2365890000
    6      C      -2.8042570000     2.7318200000     3.3708400000
    7      C       0.2857490000     4.7396700000     4.0805150000
    8      C       1.0737960000     4.2840120000     2.9597420000
    9      C       0.6763800000     3.3512300000     2.0126340000
   10      C      -0.6750120000     2.8338340000     2.0820310000
   11      O       0.8030450000     5.5964460000     4.8673550000
   12      O      -1.1774890000     2.0655970000     1.2172300000
   13      O       2.2992900000     4.8691110000     2.8947820000
   14      H      -1.4980810000     5.2503580000     6.0101890000
   15      H      -3.7898670000     4.2940330000     6.2273330000
   16      H      -4.6161510000     2.6755350000     4.5197130000
   17      H      -3.1407890000     2.0342680000     2.6128670000
   18      H       2.2884780000     5.4607890000     3.6804890000
   19      C       2.9674430000     2.3759320000     1.3596460000
   20      C       3.0281550000     1.5833290000     2.5066030000
   21      C       4.1300530000     2.5279000000     0.5959610000
   22      C       5.3192000000     1.9029190000     0.9629840000
   23      C       5.3670300000     1.1094780000     2.1101970000
   24      C       4.2159900000     0.9542500000     2.8801550000
   25      H       2.1393160000     1.4693590000     3.1163950000
   26      H       4.0922000000     3.1412120000    -0.2985720000
   27      H       6.2106440000     2.0387890000     0.3583090000
   28      H       4.2414990000     0.3453770000     3.7783590000
   29      H       6.2928200000     0.6248220000     2.4033710000
   30      C       1.6777610000     3.0510600000     0.8831920000
   31      H       1.9937360000     4.0372950000     0.5201510000
   32      N       1.1667880000     2.3448740000    -0.3180950000
   33      C       1.1065680000     0.8793470000    -0.2453940000
   34      C       0.3829210000     0.3288080000    -1.4739930000
   35      C       0.3239160000    -1.2021230000    -1.4992350000
   36      C      -0.4100500000    -1.7676340000    -2.7205820000
   37      C      -0.4732580000    -3.2990790000    -2.7484740000
   38      C      -1.2081320000    -3.8655050000    -3.9688290000
   39      C      -1.2715030000    -5.3969660000    -3.9956730000
   40      C      -2.0059850000    -5.9632950000    -5.2162690000
   41      C      -2.0688440000    -7.4947860000    -5.2425690000
   42      C      -2.8023820000    -8.0613090000    -6.4633630000
   43      C      -2.8657780000    -9.5927260000    -6.4901360000
   44      C      -3.6002520000   -10.1490110000    -7.7137470000
   45      H       0.2079970000     2.6576450000    -0.4413710000
   46      H       0.5841390000     0.5289760000     0.6551090000
   47      H       2.1280130000     0.4865390000    -0.2198100000
   48      H       0.8827730000     0.6986420000    -2.3782310000
   49      H      -0.6379530000     0.7299920000    -1.4868840000
   50      H      -0.1689840000    -1.5587310000    -0.5861090000
   51      H       1.3446640000    -1.6070950000    -1.4735900000
   52      H       0.0803720000    -1.4097020000    -3.6357980000
   53      H      -1.4303830000    -1.3634790000    -2.7455680000
   54      H      -0.9640190000    -3.6560480000    -1.8336160000
   55      H       0.5473060000    -3.7036880000    -2.7217390000
   56      H      -0.7177060000    -3.5082840000    -4.8840960000
   57      H      -2.2285680000    -3.4613040000    -3.9951600000
   58      H      -1.7625220000    -5.7539290000    -3.0809250000
   59      H      -0.2510430000    -5.8013680000    -3.9685090000
   60      H      -1.5151460000    -5.6061760000    -6.1311930000
   61      H      -3.0264740000    -5.5593420000    -5.2432040000
   62      H      -2.5603640000    -7.8517820000    -4.3280890000
   63      H      -1.0483150000    -7.8988200000    -5.2148600000
   64      H      -2.3112300000    -7.7051890000    -7.3786420000
   65      H      -3.8232930000    -7.6580870000    -6.4917730000
   66      H      -3.3574110000    -9.9489510000    -5.5765440000
   67      H      -1.8460480000    -9.9961370000    -6.4622440000
   68      H      -4.6342310000    -9.7910710000    -7.7504770000
   69      H      -3.6278580000   -11.2425860000    -7.7025840000
   70      H      -3.1115670000    -9.8385570000    -8.6429790000
 ----------------------------------------------------------------

   17   -1408.2661512239      8.54e-09  Convergence criterion met
 Total energy in the final basis set =    -1408.3555206840

                    Orbital Energies (a.u.)
 --------------------------------------------------------------

 Alpha MOs
 -- Occupied --
-19.1447 -19.0863 -19.0721 -14.2905 -10.2290 -10.2261 -10.2215 -10.2106
-10.1869 -10.1824 -10.1822 -10.1813 -10.1812 -10.1798 -10.1797 -10.1790
-10.1783 -10.1782 -10.1781 -10.1779 -10.1763 -10.1694 -10.1645 -10.1625
-10.1619 -10.1615 -10.1612 -10.1611 -10.1609 -10.1608 -10.1606 -10.1585
-10.1570  -1.0668  -0.9997  -0.9965  -0.9040  -0.8641  -0.8611  -0.8157
 -0.8110  -0.8022  -0.7847  -0.7719  -0.7567  -0.7540  -0.7527  -0.7441
 -0.7226  -0.6943  -0.6780  -0.6619  -0.6404  -0.6238  -0.6156  -0.6118
 -0.6055  -0.5855  -0.5799  -0.5792  -0.5745  -0.5725  -0.5692  -0.5422
 -0.5215  -0.5108  -0.4893  -0.4872  -0.4811  -0.4740  -0.4726  -0.4644
 -0.4622  -0.4562  -0.4506  -0.4427  -0.4417  -0.4350  -0.4333  -0.4325
 -0.4274  -0.4223  -0.4193  -0.4148  -0.4093  -0.4044  -0.4003  -0.3970
 -0.3921  -0.3908  -0.3844  -0.3807  -0.3760  -0.3706  -0.3681  -0.3629
 -0.3621  -0.3554  -0.3494  -0.3475  -0.3458  -0.3449  -0.3403  -0.3388
 -0.3351  -0.3297  -0.3273  -0.3265  -0.3238  -0.3235  -0.3218  -0.3212
 -0.2965  -0.2707  -0.2636  -0.2630  -0.2599  -0.2565  -0.2459  -0.2341
 -0.2173  -0.1533

 Beta MOs
 -- Occupied --
-19.1441 -19.0795 -19.0666 -14.2905 -10.2280 -10.2248 -10.2189 -10.2107
-10.1868 -10.1824 -10.1822 -10.1813 -10.1812 -10.1796 -10.1790 -10.1788
-10.1783 -10.1779 -10.1777 -10.1770 -10.1765 -10.1688 -10.1645 -10.1625
-10.1619 -10.1615 -10.1612 -10.1611 -10.1609 -10.1608 -10.1606 -10.1585
-10.1570  -1.0643  -0.9903  -0.9851  -0.9038  -0.8621  -0.8609  -0.8155
 -0.8085  -0.8014  -0.7841  -0.7711  -0.7547  -0.7539  -0.7527  -0.7428
 -0.7225  -0.6929  -0.6731  -0.6584  -0.6401  -0.6229  -0.6144  -0.6113
 -0.6043  -0.5852  -0.5798  -0.5785  -0.5741  -0.5725  -0.5677  -0.5405
 -0.5209  -0.5093  -0.4889  -0.4851  -0.4805  -0.4734  -0.4720  -0.4633
 -0.4619  -0.4559  -0.4500  -0.4421  -0.4400  -0.4344  -0.4322  -0.4297
 -0.4244  -0.4211  -0.4165  -0.4114  -0.4070  -0.4031  -0.3991  -0.3958
 -0.3905  -0.3857  -0.3808  -0.3790  -0.3746  -0.3684  -0.3655  -0.3619
 -0.3546  -0.3523  -0.3489  -0.3461  -0.3447  -0.3406  -0.3380  -0.3350
 -0.3299  -0.3275  -0.3271  -0.3263  -0.3237  -0.3235  -0.3217  -0.3212
 -0.2965  -0.2633  -0.2575  -0.2556  -0.2537  -0.2514  -0.2412  -0.2246
 -0.2145

          Ground-State Mulliken Net Atomic Charges

     Atom                 Charge (a.u.)    Spin (a.u.)
  --------------------------------------------------------
      1 C                    -0.087698       0.075403
      2 C                     0.584419      -0.002185
      3 C                     0.454914       0.073557
      4 C                    -0.737670       0.005130
      5 C                    -0.662339       0.068024
      6 C                    -0.270025      -0.006599
      7 C                    -1.308238       0.148008
      8 C                    -0.653026       0.056879
      9 C                     0.643216       0.067578
     10 C                    -1.377908       0.043840
     11 O                    -0.390783       0.252876
     12 O                    -0.254320       0.209763
     13 O                    -0.120620       0.022002
     14 H                     0.183242      -0.004036
     15 H                     0.346500      -0.000174
     16 H                     0.327167      -0.005449
     17 H                     0.172158       0.000416
     18 H                     0.300902      -0.004406
     19 C                    -0.556025      -0.020833
     20 C                    -1.120097      -0.020345
     21 C                     0.124405       0.010407
     22 C                     0.683817      -0.003058
     23 C                     0.535255      -0.002596
     24 C                     0.425155       0.006529
     25 H                     0.035630       0.000364
     26 H                     0.229635       0.000797
     27 H                     0.336880      -0.000083
     28 H                     0.303001       0.000257
     29 H                     0.338130      -0.000041
     30 C                    -0.256161       0.023167
     31 H                     0.126919       0.000729
     32 N                     0.056213      -0.007383
     33 C                    -1.498394       0.005163
     34 C                    -0.075296       0.005647
     35 C                     0.491979      -0.001517
     36 C                     0.445980      -0.000377
     37 C                    -0.059023      -0.000056
     38 C                    -0.179164       0.000029
     39 C                    -0.433402      -0.000022
     40 C                    -0.177155      -0.000006
     41 C                    -0.024409       0.000000
     42 C                    -0.116433      -0.000000
     43 C                    -0.124149      -0.000000
     44 C                    -0.488901      -0.000001
     45 H                     0.153678       0.001512
     46 H                    -0.021128       0.000760
     47 H                    -0.127687       0.000789
     48 H                     0.114496      -0.000140
     49 H                     0.094842      -0.000607
     50 H                     0.117230       0.000360
     51 H                     0.169377      -0.000083
     52 H                     0.123441       0.000037
     53 H                     0.107946      -0.000001
     54 H                     0.107919      -0.000025
     55 H                     0.113832       0.000002
     56 H                     0.119971      -0.000003
     57 H                     0.114290       0.000001
     58 H                     0.116592       0.000000
     59 H                     0.122425       0.000000
     60 H                     0.119314       0.000000
     61 H                     0.115933      -0.000001
     62 H                     0.114984      -0.000000
     63 H                     0.119078       0.000000
     64 H                     0.108639       0.000000
     65 H                     0.106969       0.000000
     66 H                     0.124636       0.000000
     67 H                     0.126004       0.000000
     68 H                     0.140561       0.000000
     69 H                     0.181128      -0.000000
     70 H                     0.141252       0.000000
  --------------------------------------------------------
  Sum of atomic charges =    -1.000000

                    Cartesian Multipole Moments
 -----------------------------------------------------------------
    Charge (ESU x 10^10)
                -4.8032
    Dipole Moment (Debye)
         X      -1.0871      Y     -17.1578      Z     -12.2584
       Tot      21.1150
    Quadrupole Moments (Debye-Ang)
        XX    -218.2650     XY      -8.0707     YY    -287.6495
        XZ      -4.3540     YZ     -62.5832     ZZ    -264.1622

 Total job time:  7140.91s(wall), 37377.92s(cpu)
        *  Thank you very much for using Q-Chem.  Have a nice day.  *
