 Gaussian 16, Revision A.03,
 Gaussian 16:  ES64L-G16RevA.03 25-Dec-2016

 ----------------------------------------------------------------
 #P UB3LYP/6-311++G(d,p) SCRF=(PCM,Solvent=n,n-DiMethylFormamide)
 ----------------------------------------------------------------

 ------------------
 Radical PCM in DMF
 ------------------
 Symbolic Z-matrix:
 Charge = -1 Multiplicity = 2

                         Standard orientation:
 ---------------------------------------------------------------------
 Center     Atomic      Atomic             Coordinates (Angstroms)
 Number     Number       Type             X           Y           Z
 ---------------------------------------------------------------------
      1          6           0       -3.229348    0.891731    0.101905
      2          6           0       -4.202222   -0.088877    0.167695
      3          6           0       -3.836836   -1.450660    0.141155
      4          6           0       -1.862305    0.554363    0.010028
      5          6           0       -1.495671   -0.820345   -0.012972
      6          6           0       -2.501152   -1.802994    0.050421
      7          6           0       -0.855314    1.603096   -0.068858
      8          6           0        0.542482    1.192229   -0.171637
      9          6           0        0.888120   -0.155820   -0.123114
     10          6           0       -0.091952   -1.214265   -0.098136
     11          8           0       -1.143927    2.834729   -0.062523
     12          8           0        0.274144   -2.426856   -0.167941
     13          7           0        1.439812    2.217945   -0.367795
     14          1           0       -3.486171    1.944704    0.116797
     15          1           0       -5.249742    0.189409    0.238791
     16          1           0       -4.601657   -2.219823    0.192252
     17          1           0       -2.190196   -2.841238    0.027830
     18          1           0        0.999856    3.115711   -0.196709
     19          1           0        2.364388    2.073595    0.030148
     20          7           0        2.199448   -0.689964   -0.247187
     21          6           0        3.407058   -0.259891    0.182279
     22          6           0        4.545365   -1.248643   -0.039709
     23          1           0        2.105803   -1.686759   -0.447167
     24          1           0        4.214622   -2.220419   -0.411676
     25          1           0        5.076452   -1.383507    0.905248
     26          1           0        5.251187   -0.817336   -0.754877
     27          8           0        3.643694    0.835908    0.701700
 ---------------------------------------------------------------------

 SCF Done:  E(UB3LYP) =  -798.887038601     A.U. after   20 cycles

 The electronic state is 2-A.
 Alpha  occ. eigenvalues --  -19.09883 -19.08019 -19.07923 -14.34823 -14.30553
 Alpha  occ. eigenvalues --  -10.28318 -10.22672 -10.22224 -10.21040 -10.20041
 Alpha  occ. eigenvalues --  -10.17385 -10.17341 -10.17292 -10.17243 -10.17170
 Alpha  occ. eigenvalues --  -10.17050 -10.16983  -1.04715  -1.00853  -1.00486
 Alpha  occ. eigenvalues --   -0.93626  -0.90396  -0.85792  -0.79338  -0.75280
 Alpha  occ. eigenvalues --   -0.75110  -0.71916  -0.67648  -0.63398  -0.61787
 Alpha  occ. eigenvalues --   -0.58381  -0.56528  -0.53713  -0.51656  -0.50412
 Alpha  occ. eigenvalues --   -0.48850  -0.47533  -0.45750  -0.45113  -0.44159
 Alpha  occ. eigenvalues --   -0.43069  -0.42455  -0.41867  -0.41738  -0.41245
 Alpha  occ. eigenvalues --   -0.40138  -0.38879  -0.38454  -0.37748  -0.35898
 Alpha  occ. eigenvalues --   -0.35439  -0.33894  -0.32609  -0.30028  -0.27358
 Alpha  occ. eigenvalues --   -0.26431  -0.25793  -0.25618  -0.24635  -0.20708
 Alpha  occ. eigenvalues --   -0.14834
 Alpha virt. eigenvalues --   -0.03557  -0.01523  -0.00617   0.00316   0.01189
 Alpha virt. eigenvalues --    0.01692   0.02010   0.02646   0.03668   0.04013
 Alpha virt. eigenvalues --    0.04266   0.04963   0.05148   0.05522   0.05939

  Beta  occ. eigenvalues --  -19.09877 -19.07462 -19.07374 -14.34823 -14.30459
  Beta  occ. eigenvalues --  -10.28316 -10.22490 -10.21971 -10.20899 -10.20047
  Beta  occ. eigenvalues --  -10.17327 -10.17293 -10.17259 -10.17218 -10.17110
  Beta  occ. eigenvalues --  -10.17050 -10.16949  -1.04696  -1.00046  -0.99431
  Beta  occ. eigenvalues --   -0.93497  -0.90117  -0.85576  -0.78966  -0.75149
  Beta  occ. eigenvalues --   -0.74906  -0.71784  -0.66868  -0.63183  -0.61590
  Beta  occ. eigenvalues --   -0.58177  -0.56316  -0.53519  -0.51566  -0.50229
  Beta  occ. eigenvalues --   -0.48777  -0.47207  -0.45652  -0.45050  -0.43957
  Beta  occ. eigenvalues --   -0.42578  -0.42280  -0.41689  -0.41106  -0.40684
  Beta  occ. eigenvalues --   -0.40009  -0.38443  -0.37861  -0.36258  -0.35483
  Beta  occ. eigenvalues --   -0.35034  -0.33766  -0.31131  -0.29540  -0.27291
  Beta  occ. eigenvalues --   -0.25171  -0.25016  -0.24754  -0.24094  -0.19941
  Beta virt. eigenvalues --   -0.08487  -0.02803  -0.00746  -0.00544   0.00321
  Beta virt. eigenvalues --    0.01220   0.01981   0.02157   0.02655   0.03762
  Beta virt. eigenvalues --    0.04048   0.04313   0.05009   0.05266   0.05937

 Mulliken charges and spin densities:
               1          2
     1  C    0.138794   0.060187
     2  C   -0.344084   0.017008
     3  C   -0.415695   0.062010
     4  C    0.413890   0.011748
     5  C   -0.016225   0.058100
     6  C    0.091881   0.024164
     7  C   -0.685145   0.164736
     8  C    0.363331   0.059648
     9  C    0.469727  -0.006293
    10  C   -0.882006   0.104954
    11  O   -0.489406   0.238734
    12  O   -0.482408   0.170786
    13  N   -0.448310   0.050665
    14  H    0.165302  -0.003522
    15  H    0.178036  -0.001586
    16  H    0.180630  -0.004523
    17  H    0.165301  -0.000431
    18  H    0.293757  -0.002801
    19  H    0.292932  -0.000035
    20  N   -0.044254  -0.003482
    21  C    0.264229  -0.001580
    22  C   -0.588864   0.001035
    23  H    0.349097  -0.002049
    24  H    0.137267   0.000236
    25  H    0.178933   0.000126
    26  H    0.184540   0.000231
    27  O   -0.471252   0.001934
 Sum of Mulliken charges =  -1.00000   1.00000

 Dipole moment (field-independent basis, Debye):
    X=              0.9462    Y=             -3.7552    Z=             -0.3611  Tot=              3.8894
 Quadrupole moment (field-independent basis, Debye-Ang):
   XX=           -108.5509   YY=           -129.3993   ZZ=           -107.4515
   XY=             -2.4984   XZ=             -5.0864   YZ=              0.1247

 Normal termination of Gaussian 16 at Sun Jan 21 08:34:17 2024.
