 Gaussian 16, Revision A.03,
 Gaussian 16:  ES64L-G16RevA.03 25-Dec-2016

 --------------------------------------
 #P UB3LYP/6-311++G(d,p) nosym opt freq
 --------------------------------------

 -------
 Reduced
 -------
 Symbolic Z-matrix:
 Charge = -2 Multiplicity = 1

 SCF Done:  E(UB3LYP) =  -1529.87326882     A.U. after   32 cycles
 SCF Done:  E(UB3LYP) =  -1529.90445246     A.U. after   24 cycles
 SCF Done:  E(UB3LYP) =  -1529.91392771     A.U. after   20 cycles
 SCF Done:  E(UB3LYP) =  -1529.91547052     A.U. after   19 cycles
 SCF Done:  E(UB3LYP) =  -1529.91637216     A.U. after   19 cycles
 SCF Done:  E(UB3LYP) =  -1529.91684357     A.U. after   18 cycles
 SCF Done:  E(UB3LYP) =  -1529.91696593     A.U. after   17 cycles
 SCF Done:  E(UB3LYP) =  -1529.91699372     A.U. after   17 cycles
 SCF Done:  E(UB3LYP) =  -1529.91704339     A.U. after   17 cycles
 SCF Done:  E(UB3LYP) =  -1529.91705080     A.U. after   15 cycles
 SCF Done:  E(UB3LYP) =  -1529.91705186     A.U. after   14 cycles
 SCF Done:  E(UB3LYP) =  -1529.91705205     A.U. after   13 cycles
 SCF Done:  E(UB3LYP) =  -1529.91705219     A.U. after   13 cycles
 SCF Done:  E(UB3LYP) =  -1529.91705223     A.U. after   13 cycles
 Optimization completed.
    -- Stationary point found.
 Normal termination of Gaussian 16 at Sun Dec 17 21:32:36 2023.

 ----------------------------------------------------------------------
 #P Geom=AllCheck Guess=TCheck SCRF=Check GenChk UB3LYP/6-311++G(d,p) F
 req
 ----------------------------------------------------------------------

 Structure from the checkpoint file:  "022-an.chk"
 -------
 Reduced
 -------
 Charge = -2 Multiplicity = 1

                          Input orientation:
 ---------------------------------------------------------------------
 Center     Atomic      Atomic             Coordinates (Angstroms)
 Number     Number       Type             X           Y           Z
 ---------------------------------------------------------------------
      1          6           0       -3.487409    0.175594    0.374565
      2          8           0       -2.683129    0.638517   -0.698995
      3          6           0       -1.337986    0.287433   -0.585113
      4          6           0       -0.380275    1.307995   -0.522325
      5         17           0       -0.955276    3.008414   -0.512849
      6          6           0        1.036242    1.118315   -0.485829
      7          8           0        1.917952    2.061007   -0.459009
      8          6           0        1.382824   -0.277932   -0.468668
      9          6           0        0.424196   -1.298705   -0.510801
     10         17           0        0.997514   -2.999463   -0.482208
     11          6           0       -0.990073   -1.108559   -0.597504
     12          8           0       -1.869821   -2.050835   -0.667650
     13          8           0        2.733087   -0.627860   -0.468087
     14          6           0        3.437245   -0.186224    0.682049
     15          1           0       -3.202877    0.672302    1.316792
     16          1           0       -4.522312    0.447933    0.131481
     17          1           0       -3.393233   -0.910546    0.473866
     18          1           0        3.332907    0.897802    0.793665
     19          1           0        3.070228   -0.701286    1.585106
     20          1           0        4.490196   -0.453902    0.527421
 ---------------------------------------------------------------------

 SCF Done:  E(UB3LYP) =  -1529.91705223     A.U. after    2 cycles

 Alpha  occ. eigenvalues -- -101.27983-101.27982 -18.87865 -18.87864 -18.76244
 Alpha  occ. eigenvalues --  -18.76243  -9.97045  -9.97045  -9.93976  -9.93974
 Alpha  occ. eigenvalues --   -9.93588  -9.93587  -9.93190  -9.93189  -9.19399
 Alpha  occ. eigenvalues --   -9.19399  -6.95799  -6.95799  -6.94952  -6.94952
 Alpha  occ. eigenvalues --   -6.94866  -6.94866  -0.79029  -0.78929  -0.67956
 Alpha  occ. eigenvalues --   -0.67689  -0.58853  -0.58019  -0.52087  -0.47564
 Alpha  occ. eigenvalues --   -0.44706  -0.40606  -0.39079  -0.31128  -0.29611
 Alpha  occ. eigenvalues --   -0.24556  -0.24002  -0.22174  -0.20966  -0.20771
 Alpha  occ. eigenvalues --   -0.19668  -0.17344  -0.15582  -0.14526  -0.12559
 Alpha  occ. eigenvalues --   -0.10571  -0.10353  -0.09494  -0.08960  -0.08878
 Alpha  occ. eigenvalues --   -0.05565  -0.05492  -0.04278  -0.04219  -0.02487
 Alpha  occ. eigenvalues --   -0.01727   0.03075   0.04913   0.05565   0.05945
 Alpha  occ. eigenvalues --    0.13106
 Alpha virt. eigenvalues --    0.17108   0.17240   0.20273   0.20845   0.21687
 Alpha virt. eigenvalues --    0.21938   0.22943   0.23694   0.25908   0.26157
 Alpha virt. eigenvalues --    0.27171   0.28234   0.28411   0.28752   0.29267

  Beta  occ. eigenvalues -- -101.27983-101.27982 -18.87865 -18.87864 -18.76244
  Beta  occ. eigenvalues --  -18.76243  -9.97045  -9.97045  -9.93976  -9.93974
  Beta  occ. eigenvalues --   -9.93588  -9.93587  -9.93190  -9.93189  -9.19399
  Beta  occ. eigenvalues --   -9.19399  -6.95799  -6.95799  -6.94952  -6.94952
  Beta  occ. eigenvalues --   -6.94866  -6.94866  -0.79029  -0.78929  -0.67956
  Beta  occ. eigenvalues --   -0.67689  -0.58853  -0.58019  -0.52087  -0.47564
  Beta  occ. eigenvalues --   -0.44706  -0.40606  -0.39079  -0.31128  -0.29611
  Beta  occ. eigenvalues --   -0.24556  -0.24002  -0.22174  -0.20966  -0.20771
  Beta  occ. eigenvalues --   -0.19668  -0.17344  -0.15582  -0.14526  -0.12559
  Beta  occ. eigenvalues --   -0.10571  -0.10353  -0.09494  -0.08960  -0.08878
  Beta  occ. eigenvalues --   -0.05565  -0.05492  -0.04278  -0.04219  -0.02487
  Beta  occ. eigenvalues --   -0.01727   0.03075   0.04913   0.05565   0.05945
  Beta  occ. eigenvalues --    0.13106
  Beta virt. eigenvalues --    0.17108   0.17240   0.20273   0.20845   0.21687
  Beta virt. eigenvalues --    0.21938   0.22943   0.23694   0.25908   0.26157
  Beta virt. eigenvalues --    0.27171   0.28234   0.28411   0.28752   0.29267

 Mulliken charges and spin densities:
               1          2
     1  C   -0.206076  -0.000000
     2  O   -0.130462  -0.000000
     3  C   -1.957401   0.000000
     4  C    2.537738  -0.000000
     5  Cl   0.080949   0.000000
     6  C   -1.069591  -0.000000
     7  O   -0.512672   0.000000
     8  C   -1.958025   0.000000
     9  C    2.537513  -0.000000
    10  Cl   0.081056   0.000000
    11  C   -1.069942   0.000000
    12  O   -0.512688  -0.000000
    13  O   -0.130382  -0.000000
    14  C   -0.206261  -0.000000
    15  H    0.034821   0.000000
    16  H    0.022827  -0.000000
    17  H    0.200434  -0.000000
    18  H    0.200450  -0.000000
    19  H    0.034866   0.000000
    20  H    0.022846  -0.000000
 Sum of Mulliken charges =  -2.00000  -0.00000

 Dipole moment (field-independent basis, Debye):
    X=             -0.2687    Y=             -0.0571    Z=              6.2350  Tot=              6.2411
 Quadrupole moment (field-independent basis, Debye-Ang):
   XX=           -145.1575   YY=           -157.9506   ZZ=           -108.6275
   XY=             -9.6829   XZ=             -1.7396   YZ=             -0.9027

  Exact polarizability: 400.648 -47.618 215.900  11.876  -1.279 126.350
 Approx polarizability: 421.686 -23.693 323.235  10.778   0.332 176.681

                      1                      2                      3
                      A                      A                      A
 Frequencies --     67.7657                83.3606                94.5359
 Red. masses --      5.1652                 6.5413                 4.1401
 Frc consts  --      0.0140                 0.0268                 0.0218
 IR Inten    --      0.2782                 6.6199                 0.3511

                      4                      5                      6
                      A                      A                      A
 Frequencies --    104.0208               104.8402               182.9511
 Red. masses --      5.7317                 3.2988                 1.2895
 Frc consts  --      0.0365                 0.0214                 0.0254
 IR Inten    --      1.3568                 7.5074                 0.2471

                      7                      8                      9
                      A                      A                      A
 Frequencies --    184.4054               185.1658               195.9973
 Red. masses --      1.4369                 2.2232                11.0832
 Frc consts  --      0.0288                 0.0449                 0.2509
 IR Inten    --      1.6754                 4.1228                 3.2165

                     10                     11                     12
                      A                      A                      A
 Frequencies --    230.9083               250.2291               288.2210
 Red. masses --      5.6150                 6.3983                10.8974
 Frc consts  --      0.1764                 0.2360                 0.5334
 IR Inten    --      5.1551                 4.0459                 0.0826

                     13                     14                     15
                      A                      A                      A
 Frequencies --    304.6674               314.2115               327.5408
 Red. masses --     12.3153                 6.8414                10.1186
 Frc consts  --      0.6735                 0.3980                 0.6396
 IR Inten    --      0.0131                 0.0428                 1.3503

                     16                     17                     18
                      A                      A                      A
 Frequencies --    357.6346               358.8891               447.1113
 Red. masses --     10.5069                10.2839                 8.2794
 Frc consts  --      0.7918                 0.7804                 0.9752
 IR Inten    --      1.9482                 0.7908                 0.5154

                     19                     20                     21
                      A                      A                      A
 Frequencies --    456.8872               498.6169               511.4919
 Red. masses --      8.1024                 7.7167                11.8509
 Frc consts  --      0.9965                 1.1304                 1.8267
 IR Inten    --     12.4514                 9.3295                 4.7220

                     22                     23                     24
                      A                      A                      A
 Frequencies --    609.5404               724.2756               734.3962
 Red. masses --      8.9197                11.1112                11.7320
 Frc consts  --      1.9526                 3.4342                 3.7281
 IR Inten    --      1.4097                 0.8390                26.6988

                     25                     26                     27
                      A                      A                      A
 Frequencies --    766.0989               768.7741               846.2076
 Red. masses --     10.0203                 8.3086                10.7937
 Frc consts  --      3.4650                 2.8932                 4.5538
 IR Inten    --      0.9908               193.6721                 0.3053

                     28                     29                     30
                      A                      A                      A
 Frequencies --    937.6310              1017.2350              1074.4653
 Red. masses --      9.0142                 7.0964                10.7721
 Frc consts  --      4.6692                 4.3265                 7.3271
 IR Inten    --    110.0522                34.2430                54.0943

                     31                     32                     33
                      A                      A                      A
 Frequencies --   1130.5472              1141.2577              1159.8709
 Red. masses --     11.2208                 6.7371                 1.3419
 Frc consts  --      8.4499                 5.1700                 1.0636
 IR Inten    --    526.1199                10.4382                24.6268

                     34                     35                     36
                      A                      A                      A
 Frequencies --   1161.8821              1177.5125              1219.0672
 Red. masses --      1.2886                 2.6000                 1.5529
 Frc consts  --      1.0249                 2.1240                 1.3597
 IR Inten    --      1.2406                 6.4269                 0.7481

                     37                     38                     39
                      A                      A                      A
 Frequencies --   1233.7619              1385.5311              1389.2125
 Red. masses --      2.2039                 2.9365                 6.3610
 Frc consts  --      1.9765                 3.3213                 7.2329
 IR Inten    --     13.0548                84.2092                 5.2928

                     40                     41                     42
                      A                      A                      A
 Frequencies --   1406.1987              1422.7390              1433.2258
 Red. masses --      4.5842                 2.9893                 1.4242
 Frc consts  --      5.3409                 3.5651                 1.7237
 IR Inten    --     12.5851               428.2106                 0.1090

                     43                     44                     45
                      A                      A                      A
 Frequencies --   1460.8554              1467.7545              1469.1158
 Red. masses --      2.0739                 1.1139                 1.1961
 Frc consts  --      2.6077                 1.4138                 1.5210
 IR Inten    --    361.5483                 5.6915                46.3207

                     46                     47                     48
                      A                      A                      A
 Frequencies --   1515.8395              1515.8864              1587.7328
 Red. masses --      1.0547                 1.0555                 9.8023
 Frc consts  --      1.4278                 1.4290                14.5591
 IR Inten    --      3.9978                 0.5730                14.6710

                     49                     50                     51
                      A                      A                      A
 Frequencies --   2931.0549              2932.9139              3004.3214
 Red. masses --      1.0448                 1.0452                 1.0853
 Frc consts  --      5.2885                 5.2974                 5.7716
 IR Inten    --    228.4139               206.6555               319.6378

                     52                     53                     54
                      A                      A                      A
 Frequencies --   3004.9797              3052.1115              3052.2259
 Red. masses --      1.0848                 1.1032                 1.1033
 Frc consts  --      5.7712                 6.0546                 6.0556
 IR Inten    --     13.2527                60.8982                 7.8718

 - Thermochemistry -
 -------------------
 Temperature   298.150 Kelvin.  Pressure   1.00000 Atm.
 Atom     1 has atomic number  6 and mass  12.00000

 Molecular mass:   235.96431 amu.
 Principal axes and moments of inertia in atomic units:
                           1         2         3
     Eigenvalues --  2663.869053716.126706132.49600
           X            0.71430   0.69840  -0.04480
           Y           -0.69937   0.71469  -0.00945
           Z            0.02542   0.03808   0.99895
 This molecule is an asymmetric top.
 Rotational symmetry number  1.
 Warning -- assumption of classical behavior for rotation
           may cause significant error
 Rotational temperatures (Kelvin)      0.03251     0.02331     0.01412
 Rotational constants (GHZ):           0.67749     0.48565     0.29429
 Zero-point vibrational energy     330669.8 (Joules/Mol)
                                   79.03198 (Kcal/Mol)
 Warning -- explicit consideration of  22 degrees of freedom as
           vibrations may cause significant error
 Vibrational temperatures:     97.50   119.94   136.02   149.66   150.84
          (Kelvin)            263.23   265.32   266.41   282.00   332.23
                              360.02   414.69   438.35   452.08   471.26
                              514.56   516.36   643.29   657.36   717.40
                              735.92   876.99  1042.07  1056.63  1102.25
                             1106.09  1217.50  1349.04  1463.57  1545.92
                             1626.61  1642.02  1668.80  1671.69  1694.18
                             1753.97  1775.11  1993.47  1998.77  2023.21
                             2047.00  2062.09  2101.85  2111.77  2113.73
                             2180.95  2181.02  2284.39  4217.13  4219.81
                             4322.55  4323.50  4391.31  4391.47

 Zero-point correction=                           0.125945 (Hartree/Particle)
 Thermal correction to Energy=                    0.140080
 Thermal correction to Enthalpy=                  0.141024
 Thermal correction to Gibbs Free Energy=         0.084621
 Sum of electronic and zero-point Energies=          -1529.791107
 Sum of electronic and thermal Energies=             -1529.776972
 Sum of electronic and thermal Enthalpies=           -1529.776028
 Sum of electronic and thermal Free Energies=        -1529.832431

                     E (Thermal)             CV                S
                      KCal/Mol        Cal/Mol-Kelvin    Cal/Mol-Kelvin
 Total                   87.902             49.847            118.711
 Electronic               0.000              0.000              0.000
 Translational            0.889              2.981             42.277
 Rotational               0.889              2.981             32.473
 Vibrational             86.124             43.886             43.961
 Vibration     1          0.598              1.970              4.217
 Vibration     2          0.600              1.961              3.810
 Vibration     3          0.603              1.953              3.564
 Vibration     4          0.605              1.946              3.378
 Vibration     5          0.605              1.945              3.362
 Vibration     6          0.630              1.863              2.298
 Vibration     7          0.631              1.861              2.283
 Vibration     8          0.631              1.860              2.276
 Vibration     9          0.636              1.845              2.170
 Vibration    10          0.653              1.794              1.872
 Vibration    11          0.663              1.762              1.729
 Vibration    12          0.685              1.696              1.484
 Vibration    13          0.696              1.665              1.391
 Vibration    14          0.702              1.647              1.340
 Vibration    15          0.711              1.620              1.272
 Vibration    16          0.733              1.560              1.132
 Vibration    17          0.734              1.557              1.127
 Vibration    18          0.806              1.367              0.805
 Vibration    19          0.815              1.346              0.775
 Vibration    20          0.854              1.253              0.662
 Vibration    21          0.867              1.225              0.630
 Vibration    22          0.969              1.012              0.434

 Optimization completed.
    -- Stationary point found.
 Normal termination of Gaussian 16 at Sun Dec 17 21:53:03 2023.
