 Q-Chem 5.4, Q-Chem, Inc., Pleasanton, CA (2021)
 Q-Chem 5.4.0 for Intel X86 EM64T Linux

User input:
--------------------------------------------------------------
$molecule
0 1
C                 -0.7596110000     -1.6910840000      3.5919200000
C                  0.3177420000     -2.4557800000      2.8961190000
C                  0.4053860000     -2.3063760000      1.5620300000
C                 -0.4940480000     -1.4368390000      0.7507220000
C                 -1.5349660000     -0.6991660000      1.4261170000
C                 -1.6928540000     -0.7952670000      2.7788270000
O                 -0.9333790000     -1.7485230000      4.7996160000
O                 -0.3160280000     -1.3798210000     -0.4660130000
N                 -2.6026300000     -0.1846600000      3.5682540000
C                 -3.6880840000      0.7569940000      3.2230710000
C                 -4.3817280000      1.0987310000      4.5517740000
C                 -4.7079390000      0.0920850000      2.2784360000
C                 -3.1151000000      2.0477350000      2.6064680000
H                 -2.1628360000     -0.0826570000      0.8005180000
H                 -2.4984180000     -0.4307870000      4.5460490000
H                 -3.6817780000      1.5661620000      5.2504310000
H                 -4.7945610000      0.2007860000      5.0205830000
H                 -5.2028040000      1.7970630000      4.3792010000
H                 -5.1218070000     -0.8087290000      2.7380840000
H                 -4.2660500000     -0.1898300000      1.3224370000
H                 -5.5302760000      0.7830460000      2.0754840000
H                 -2.4132440000      2.5209340000      3.2974920000
H                 -3.9251960000      2.7528850000      2.4030740000
H                 -2.5912550000      1.8623110000      1.6684210000
C                  1.2521400000     -3.3552240000      3.7176390000
C                  0.4309740000     -4.4538460000      4.4367530000
C                  2.2866750000     -4.0511130000      2.8136340000
C                  2.0225270000     -2.5061230000      4.7588270000
H                  1.1538620000     -2.8200970000      0.9725220000
H                 -0.2805590000     -4.0288490000      5.1432330000
H                  1.1081390000     -5.1134830000      4.9873880000
H                 -0.1164520000     -5.0658340000      3.7137360000
H                  1.8126530000     -4.6946950000      2.0674490000
H                  2.9330480000     -4.6814930000      3.4292550000
H                  2.9260230000     -3.3328250000      2.2930640000
H                  1.3492620000     -2.0347360000      5.4733390000
H                  2.6112180000     -1.7268720000      4.2657130000
H                  2.7147860000     -3.1476440000      5.3120850000
$end
$rem
MAX_SCF_CYCLES=200
BASIS  =  6-311++G(d,p)
GUI  =  2
JOB_TYPE  =  SP
METHOD  =  B3LYP
SOLVENT_METHOD = COSMO
$end
$solvent
dielectric 37.219
opticaldielectric 1.43
$end

--------------------------------------------------------------

             Standard Nuclear Orientation (Angstroms)
    I     Atom           X                Y                Z
 ----------------------------------------------------------------
    1      C      -0.4903046037    -0.6097598686    -0.0012209624
    2      C      -1.7696657392     0.1601896863    -0.0000990549
    3      C      -1.6722357568     1.5019435916     0.0004858303
    4      C      -0.3842263188     2.2531611680    -0.0003054658
    5      C       0.8509652262     1.5060790825    -0.0008956633
    6      C       0.8405415710     0.1408392859    -0.0007856197
    7      O      -0.4563156812    -1.8307707861    -0.0023511705
    8      O      -0.4212824488     3.4836135534    -0.0003631922
    9      N       1.8879775547    -0.7115726126    -0.0004987692
   10      C       3.3406526097    -0.4398956953     0.0003858069
   11      C       4.0224335642    -1.8177730499     0.0029478674
   12      C       3.7517164003     0.3282851084     1.2713965446
   13      C       3.7534555467     0.3249156607    -1.2720840662
   14      H       1.7592404562     2.0897863827    -0.0011907941
   15      H       1.5999850572    -1.6834681606    -0.0015323253
   16      H       3.7447353263    -2.3941179736    -0.8843252380
   17      H       3.7441112491    -2.3910338370     0.8920074527
   18      H       5.1077669368    -1.7008701810     0.0030469524
   19      H       3.4728438359    -0.2362158793     2.1644797410
   20      H       3.2822491471     1.3103590433     1.3331000941
   21      H       4.8349181220     0.4746405883     1.2818302883
   22      H       3.4783608623    -0.2432601267    -2.1640103502
   23      H       4.8362908834     0.4741248244    -1.2801729416
   24      H       3.2813914092     1.3054820969    -1.3382107047
   25      C      -3.1041499571    -0.5988530065     0.0004529151
   26      C      -3.2090547638    -1.4827641553     1.2677748577
   27      C      -4.2958772604     0.3766122404     0.0021241796
   28      C      -3.2110594022    -1.4809077984    -1.2680465149
   29      H      -2.5443394714     2.1430985356     0.0013339376
   30      H      -2.4279673410    -2.2410932174     1.2970173284
   31      H      -4.1787918579    -1.9890601795     1.2798833834
   32      H      -3.1394590311    -0.8732288083     2.1736342368
   33      H      -4.3016651847     1.0159421244     0.8892039397
   34      H      -5.2266975631    -0.1958730284     0.0027537352
   35      H      -4.3035027696     1.0168922583    -0.8842617359
   36      H      -2.4303164910    -2.2395063139    -1.2994735889
   37      H      -3.1423387018    -0.8699833460    -2.1730323768
   38      H      -4.1810194156    -1.9867821515    -1.2796586747
 ----------------------------------------------------------------

    9    -751.5435101710      6.61e-06  Convergence criterion met
 Total energy in the final basis set =     -751.5435101710
    5    -751.5590017143      4.79e-06  Convergence criterion met
 Total energy in the final basis set =     -751.5590017143

                    Orbital Energies (a.u.)
 --------------------------------------------------------------

 Alpha MOs
 -- Occupied --
-19.1467 -19.1165 -14.3499 -10.2937 -10.2655 -10.2488 -10.2324 -10.2108
-10.2005 -10.1990 -10.1722 -10.1640 -10.1615 -10.1615 -10.1583 -10.1567
-10.1567  -1.0826  -1.0474  -0.9614  -0.8602  -0.8261  -0.7980  -0.7556
 -0.7003  -0.6963  -0.6952  -0.6871  -0.6841  -0.6407  -0.6087  -0.5837
 -0.5464  -0.5348  -0.5087  -0.5015  -0.4802  -0.4655  -0.4644  -0.4504
 -0.4494  -0.4402  -0.4389  -0.4351  -0.4168  -0.4130  -0.4078  -0.4046
 -0.3894  -0.3867  -0.3803  -0.3765  -0.3725  -0.3675  -0.3597  -0.3549
 -0.3412  -0.3403  -0.3355  -0.3304  -0.2924  -0.2873  -0.2690  -0.2312

          Ground-State Mulliken Net Atomic Charges

     Atom                 Charge (a.u.)
  ----------------------------------------
      1 C                    -0.602576
      2 C                     0.958423
      3 C                    -0.228660
      4 C                    -0.529541
      5 C                    -0.076560
      6 C                     0.007653
      7 O                    -0.242475
      8 O                    -0.401926
      9 N                     0.082396
     10 C                    -0.117425
     11 C                    -0.543167
     12 C                    -0.438522
     13 C                    -0.438686
     14 H                     0.236561
     15 H                     0.370772
     16 H                     0.168185
     17 H                     0.168173
     18 H                     0.176649
     19 H                     0.175158
     20 H                     0.143328
     21 H                     0.181286
     22 H                     0.175215
     23 H                     0.181160
     24 H                     0.143599
     25 C                     0.568239
     26 C                    -0.702954
     27 C                    -0.470742
     28 C                    -0.702278
     29 H                     0.252016
     30 H                     0.179715
     31 H                     0.171618
     32 H                     0.157822
     33 H                     0.148684
     34 H                     0.191142
     35 H                     0.148651
     36 H                     0.179701
     37 H                     0.157754
     38 H                     0.171611
  ----------------------------------------
  Sum of atomic charges =     0.000000

                    Cartesian Multipole Moments
 -----------------------------------------------------------------
    Charge (ESU x 10^10)
                -0.0000
    Dipole Moment (Debye)
         X       2.4349      Y      -5.0223      Z       0.0042
       Tot       5.5815
    Quadrupole Moments (Debye-Ang)
        XX     -81.1213     XY      -1.6148     YY    -131.3220
        XZ      -0.0018     YZ       0.0006     ZZ    -105.4615

 Total job time:  87.57s(wall), 672.88s(cpu)
        *  Thank you very much for using Q-Chem.  Have a nice day.  *
