 Gaussian 16, Revision A.03,
 Gaussian 16:  ES64L-G16RevA.03 25-Dec-2016

 --------------------------------------
 #P UB3LYP/6-311++G(d,p) nosym opt freq
 --------------------------------------

 -------
 Reduced
 -------
 Symbolic Z-matrix:
 Charge = -2 Multiplicity = 1

 SCF Done:  E(UB3LYP) =  -841.138497289     A.U. after   23 cycles
 SCF Done:  E(UB3LYP) =  -841.166069552     A.U. after   17 cycles
 SCF Done:  E(UB3LYP) =  -841.169151345     A.U. after   17 cycles
 SCF Done:  E(UB3LYP) =  -841.169308454     A.U. after   16 cycles
 SCF Done:  E(UB3LYP) =  -841.169349298     A.U. after   14 cycles
 SCF Done:  E(UB3LYP) =  -841.169353846     A.U. after   13 cycles
 SCF Done:  E(UB3LYP) =  -841.169354869     A.U. after   13 cycles
 Optimization completed.
    -- Stationary point found.
 Normal termination of Gaussian 16 at Sun Dec 17 20:56:36 2023.

 ----------------------------------------------------------------------
 #P Geom=AllCheck Guess=TCheck SCRF=Check GenChk UB3LYP/6-311++G(d,p) F
 req
 ----------------------------------------------------------------------

 Structure from the checkpoint file:  "003-an.chk"
 -------
 Reduced
 -------
 Charge = -2 Multiplicity = 1

                          Input orientation:
 ---------------------------------------------------------------------
 Center     Atomic      Atomic             Coordinates (Angstroms)
 Number     Number       Type             X           Y           Z
 ---------------------------------------------------------------------
      1         17           0        3.119758   -0.141514    0.031832
      2          6           0        1.286811   -0.105311    0.012995
      3          6           0        0.695087    1.163374    0.011178
      4          6           0       -0.724546    1.349282   -0.002893
      5          8           0       -1.300411    2.518986   -0.004904
      6          6           0       -1.434739    0.104414   -0.014519
      7          6           0       -0.806457   -1.144257   -0.012252
      8          6           0        0.614525   -1.364045    0.001760
      9          8           0        1.165286   -2.536781    0.003431
     10          1           0        1.323552    2.049545    0.020687
     11          1           0       -2.525148    0.157459   -0.025665
     12          1           0       -1.413719   -2.051153   -0.021650
 ---------------------------------------------------------------------

 SCF Done:  E(UB3LYP) =  -841.169354869     A.U. after    1 cycles

 Alpha  occ. eigenvalues -- -101.25844 -18.73347 -18.73246  -9.91042  -9.90131
 Alpha  occ. eigenvalues --   -9.89650  -9.85851  -9.85677  -9.85511  -9.17242
 Alpha  occ. eigenvalues --   -6.93592  -6.92808  -6.92760  -0.64700  -0.63909
 Alpha  occ. eigenvalues --   -0.55671  -0.49780  -0.41798  -0.37499  -0.28833
 Alpha  occ. eigenvalues --   -0.25439  -0.16196  -0.15396  -0.14153  -0.10679
 Alpha  occ. eigenvalues --   -0.09069  -0.07403  -0.05378  -0.05083  -0.04513
 Alpha  occ. eigenvalues --   -0.02358  -0.02223   0.05659   0.05988   0.08593
 Alpha  occ. eigenvalues --    0.08910   0.15887
 Alpha virt. eigenvalues --    0.20393   0.21629   0.22044   0.23892   0.27759
 Alpha virt. eigenvalues --    0.27812   0.29042   0.29842   0.30559   0.30978
 Alpha virt. eigenvalues --    0.31553   0.32531   0.33762   0.33809   0.34748

  Beta  occ. eigenvalues -- -101.25844 -18.73347 -18.73246  -9.91042  -9.90131
  Beta  occ. eigenvalues --   -9.89650  -9.85851  -9.85677  -9.85511  -9.17242
  Beta  occ. eigenvalues --   -6.93592  -6.92808  -6.92760  -0.64700  -0.63909
  Beta  occ. eigenvalues --   -0.55671  -0.49780  -0.41798  -0.37499  -0.28833
  Beta  occ. eigenvalues --   -0.25439  -0.16196  -0.15396  -0.14153  -0.10679
  Beta  occ. eigenvalues --   -0.09069  -0.07403  -0.05378  -0.05083  -0.04513
  Beta  occ. eigenvalues --   -0.02358  -0.02223   0.05659   0.05988   0.08593
  Beta  occ. eigenvalues --    0.08910   0.15887
  Beta virt. eigenvalues --    0.20393   0.21629   0.22044   0.23892   0.27759
  Beta virt. eigenvalues --    0.27812   0.29042   0.29842   0.30559   0.30978
  Beta virt. eigenvalues --    0.31553   0.32531   0.33762   0.33809   0.34748

 Mulliken charges and spin densities:
               1          2
     1  Cl  -0.036255   0.000000
     2  C    1.548348  -0.000000
     3  C   -0.481745   0.000000
     4  C   -1.060684   0.000000
     5  O   -0.610304  -0.000000
     6  C    0.272699  -0.000000
     7  C    0.128998  -0.000000
     8  C   -1.329497   0.000000
     9  O   -0.554473  -0.000000
    10  H    0.044991   0.000000
    11  H    0.031112  -0.000000
    12  H    0.046810  -0.000000
 Sum of Mulliken charges =  -2.00000   0.00000

 Dipole moment (field-independent basis, Debye):
    X=             -3.1839    Y=             -0.1683    Z=             -0.0336  Tot=              3.1885
 Quadrupole moment (field-independent basis, Debye-Ang):
   XX=            -97.6301   YY=           -116.2719   ZZ=            -68.8318
   XY=             22.4894   XZ=             -0.2218   YZ=              0.0715

  Exact polarizability: 165.690  -6.742 149.282   0.910   0.181  75.599
 Approx polarizability: 243.512 -11.093 232.269   1.398   0.319 104.990

                      1                      2                      3
                      A                      A                      A
 Frequencies --    125.9675               175.0675               213.5036
 Red. masses --      7.4805                 7.4677                17.1096
 Frc consts  --      0.0699                 0.1348                 0.4595
 IR Inten    --     10.2490                 1.1760                 2.4956

                      4                      5                      6
                      A                      A                      A
 Frequencies --    302.3830               323.6789               409.2760
 Red. masses --     20.3224                 8.7927                 9.8905
 Frc consts  --      1.0948                 0.5427                 0.9761
 IR Inten    --      1.9508                 0.8526                 4.1598

                      7                      8                      9
                      A                      A                      A
 Frequencies --    439.7101               475.8896               544.1097
 Red. masses --      3.3398                12.1072                 5.0440
 Frc consts  --      0.3805                 1.6155                 0.8798
 IR Inten    --      1.4615                 2.5900                 5.9364

                     10                     11                     12
                      A                      A                      A
 Frequencies --    575.7141               670.3507               679.0699
 Red. masses --      2.1148                 7.8788                 1.8808
 Frc consts  --      0.4130                 2.0860                 0.5110
 IR Inten    --     22.9813                16.4381                 0.0192

                     13                     14                     15
                      A                      A                      A
 Frequencies --    762.2519               795.1250               801.8092
 Red. masses --      2.1310                 2.2629                 6.9855
 Frc consts  --      0.7295                 0.8429                 2.6460
 IR Inten    --      0.2613                50.1117               172.3270

                     16                     17                     18
                      A                      A                      A
 Frequencies --    848.9200               849.5813               974.0116
 Red. masses --      1.3332                 8.1994                 2.3843
 Frc consts  --      0.5661                 3.4869                 1.3327
 IR Inten    --      0.4996                53.2363                81.1321

                     19                     20                     21
                      A                      A                      A
 Frequencies --   1081.5465              1161.0205              1209.9878
 Red. masses --      1.7657                 2.7896                 1.4648
 Frc consts  --      1.2169                 2.2155                 1.2636
 IR Inten    --      3.1246               134.0874                35.3609

                     22                     23                     24
                      A                      A                      A
 Frequencies --   1289.6896              1344.4946              1380.4837
 Red. masses --      2.3675                10.3758                 3.9913
 Frc consts  --      2.3201                11.0507                 4.4815
 IR Inten    --    352.4597                 2.1713                31.6002

                     25                     26                     27
                      A                      A                      A
 Frequencies --   1430.7641              1468.0698              1603.6737
 Red. masses --      6.4364                 3.6144                 7.5478
 Frc consts  --      7.7630                 4.5897                11.4367
 IR Inten    --    218.5912               933.2784                20.4843

                     28                     29                     30
                      A                      A                      A
 Frequencies --   3059.3607              3089.7025              3136.7536
 Red. masses --      1.0828                 1.0913                 1.0882
 Frc consts  --      5.9711                 6.1381                 6.3083
 IR Inten    --     76.1777               159.1838                40.1284

 - Thermochemistry -
 -------------------
 Temperature   298.150 Kelvin.  Pressure   1.00000 Atm.
 Atom     1 has atomic number 17 and mass  34.96885

 Molecular mass:   141.98216 amu.
 Principal axes and moments of inertia in atomic units:
                           1         2         3
     Eigenvalues --   788.144141668.603672456.74780
           X            0.84826   0.52948  -0.01036
           Y           -0.52953   0.84828  -0.00340
           Z            0.00699   0.00837   0.99994
 This molecule is an asymmetric top.
 Rotational symmetry number  1.
 Warning -- assumption of classical behavior for rotation
           may cause significant error
 Rotational temperatures (Kelvin)      0.10990     0.05191     0.03526
 Rotational constants (GHZ):           2.28986     1.08159     0.73461
 Zero-point vibrational energy     186748.8 (Joules/Mol)
                                   44.63404 (Kcal/Mol)
 Warning -- explicit consideration of  10 degrees of freedom as
           vibrations may cause significant error
 Vibrational temperatures:    181.24   251.88   307.18   435.06   465.70
          (Kelvin)            588.86   632.64   684.70   782.85   828.32
                              964.49   977.03  1096.71  1144.01  1153.62
                             1221.41  1222.36  1401.39  1556.10  1670.45
                             1740.90  1855.58  1934.43  1986.21  2058.55
                             2112.23  2307.33  4401.74  4445.39  4513.09

 Zero-point correction=                           0.071129 (Hartree/Particle)
 Thermal correction to Energy=                    0.078552
 Thermal correction to Enthalpy=                  0.079497
 Thermal correction to Gibbs Free Energy=         0.038642
 Sum of electronic and zero-point Energies=           -841.098226
 Sum of electronic and thermal Energies=              -841.090803
 Sum of electronic and thermal Enthalpies=            -841.089858
 Sum of electronic and thermal Free Energies=         -841.130713

                     E (Thermal)             CV                S
                      KCal/Mol        Cal/Mol-Kelvin    Cal/Mol-Kelvin
 Total                   49.292             27.935             85.986
 Electronic               0.000              0.000              0.000
 Translational            0.889              2.981             40.763
 Rotational               0.889              2.981             29.559
 Vibrational             47.515             21.974             15.664
 Vibration     1          0.611              1.927              3.007
 Vibration     2          0.627              1.873              2.380
 Vibration     3          0.644              1.820              2.014
 Vibration     4          0.694              1.669              1.404
 Vibration     5          0.708              1.628              1.291
 Vibration     6          0.774              1.450              0.929
 Vibration     7          0.800              1.384              0.828
 Vibration     8          0.833              1.304              0.721
 Vibration     9          0.899              1.153              0.557
 Vibration    10          0.932              1.084              0.493

 Optimization completed.
    -- Stationary point found.
 Normal termination of Gaussian 16 at Sun Dec 17 21:01:55 2023.
