 Gaussian 16, Revision A.03,
 Gaussian 16:  ES64L-G16RevA.03 25-Dec-2016

 --------------------------------------
 #P UB3LYP/6-311++G(d,p) nosym opt freq
 --------------------------------------

 --------
 Oxidized
 --------
 Symbolic Z-matrix:
 Charge =  0 Multiplicity = 1

 SCF Done:  E(UB3LYP) =  -1243.21247570     A.U. after   18 cycles
 SCF Done:  E(UB3LYP) =  -1243.23940933     A.U. after   15 cycles
 SCF Done:  E(UB3LYP) =  -1243.25461312     A.U. after   16 cycles
 SCF Done:  E(UB3LYP) =  -1243.26661887     A.U. after   16 cycles
 SCF Done:  E(UB3LYP) =  -1243.27177988     A.U. after   15 cycles
 SCF Done:  E(UB3LYP) =  -1243.27428793     A.U. after   14 cycles
 SCF Done:  E(UB3LYP) =  -1243.27538365     A.U. after   14 cycles
 SCF Done:  E(UB3LYP) =  -1243.27570331     A.U. after   13 cycles
 SCF Done:  E(UB3LYP) =  -1243.27583613     A.U. after   13 cycles
 SCF Done:  E(UB3LYP) =  -1243.27598176     A.U. after   12 cycles
 SCF Done:  E(UB3LYP) =  -1243.27604260     A.U. after   10 cycles
 SCF Done:  E(UB3LYP) =  -1243.27604270     A.U. after   10 cycles
 SCF Done:  E(UB3LYP) =  -1243.27604286     A.U. after   11 cycles
 SCF Done:  E(UB3LYP) =  -1243.27604304     A.U. after   11 cycles
 SCF Done:  E(UB3LYP) =  -1243.27604320     A.U. after   12 cycles
 SCF Done:  E(UB3LYP) =  -1243.27604339     A.U. after   11 cycles
 SCF Done:  E(UB3LYP) =  -1243.27604365     A.U. after   11 cycles
 SCF Done:  E(UB3LYP) =  -1243.27604378     A.U. after   10 cycles
 SCF Done:  E(UB3LYP) =  -1243.27604377     A.U. after   10 cycles
 Optimization completed.
    -- Stationary point found.
 Normal termination of Gaussian 16 at Thu Dec 21 08:19:55 2023.

 ----------------------------------------------------------------------
 #P Geom=AllCheck Guess=TCheck SCRF=Check GenChk UB3LYP/6-311++G(d,p) F
 req
 ----------------------------------------------------------------------

 Structure from the checkpoint file:  "162.chk"
 --------
 Oxidized
 --------
 Charge =  0 Multiplicity = 1

                          Input orientation:
 ---------------------------------------------------------------------
 Center     Atomic      Atomic             Coordinates (Angstroms)
 Number     Number       Type             X           Y           Z
 ---------------------------------------------------------------------
      1          6           0       -4.388169   -0.453318   -0.169423
      2          6           0       -2.904995   -0.707271   -0.135197
      3          6           0       -2.404056   -1.975812   -0.309535
      4          6           0       -1.030010   -2.255036   -0.270996
      5         17           0       -0.624012   -3.941701   -0.521349
      6          6           0       -0.104812   -1.232489   -0.062506
      7          6           0        1.368507   -1.506917    0.004950
      8          8           0        1.825327   -2.636375   -0.013531
      9          6           0        2.292246   -0.341879    0.102749
     10          6           0        3.672939   -0.569348    0.076825
     11          6           0        4.555779    0.497968    0.172904
     12          6           0        4.067482    1.802336    0.303789
     13          6           0        2.698938    2.033921    0.336965
     14          6           0        1.803793    0.962189    0.233437
     15          6           0        0.343255    1.230064    0.272542
     16          8           0       -0.039667    2.395826    0.433559
     17          6           0       -0.593561    0.106128    0.102613
     18          6           0       -1.995053    0.369562    0.080182
     19          7           0       -2.498208    1.616644    0.265186
     20          1           0       -4.744827   -0.026599    0.775111
     21          1           0       -4.660706    0.244520   -0.970092
     22          1           0       -4.936113   -1.379890   -0.341411
     23          1           0       -3.086977   -2.799522   -0.478609
     24          1           0        4.026287   -1.588169   -0.019348
     25          1           0        5.624820    0.319354    0.148031
     26          1           0        4.758344    2.634309    0.380990
     27          1           0        2.298465    3.033965    0.442264
     28          1           0       -1.841943    2.381599    0.375114
     29          1           0       -3.483071    1.785940    0.167853
 ---------------------------------------------------------------------

 SCF Done:  E(UB3LYP) =  -1243.27604377     A.U. after    1 cycles

 Alpha  occ. eigenvalues -- -101.55054 -19.12253 -19.11737 -14.34184 -10.27663
 Alpha  occ. eigenvalues --  -10.27434 -10.25258 -10.24939 -10.21614 -10.21282
 Alpha  occ. eigenvalues --  -10.20838 -10.20404 -10.20326 -10.20215 -10.19741
 Alpha  occ. eigenvalues --  -10.19703 -10.19683 -10.19373 -10.19316  -9.46526
 Alpha  occ. eigenvalues --   -7.23011  -7.22033  -7.21916  -1.05702  -1.05442
 Alpha  occ. eigenvalues --   -0.95468  -0.89955  -0.88504  -0.84315  -0.82301
 Alpha  occ. eigenvalues --   -0.78226  -0.77438  -0.74680  -0.72948  -0.68285
 Alpha  occ. eigenvalues --   -0.66120  -0.64397  -0.60882  -0.58779  -0.58135
 Alpha  occ. eigenvalues --   -0.55003  -0.53984  -0.51106  -0.50048  -0.48093
 Alpha  occ. eigenvalues --   -0.47814  -0.47062  -0.46322  -0.44924  -0.44714
 Alpha  occ. eigenvalues --   -0.44523  -0.44353  -0.43320  -0.42034  -0.41385
 Alpha  occ. eigenvalues --   -0.40093  -0.39927  -0.39454  -0.37826  -0.36869
 Alpha  occ. eigenvalues --   -0.36632  -0.36545  -0.32032  -0.31139  -0.28459
 Alpha  occ. eigenvalues --   -0.27868  -0.27496  -0.27406  -0.25748  -0.22621
 Alpha virt. eigenvalues --   -0.11123  -0.06597  -0.03733  -0.02049  -0.01891
 Alpha virt. eigenvalues --   -0.00531   0.00360   0.01232   0.01395   0.01851
 Alpha virt. eigenvalues --    0.02083   0.03014   0.03411   0.03578   0.04340

  Beta  occ. eigenvalues -- -101.55054 -19.12253 -19.11737 -14.34184 -10.27663
  Beta  occ. eigenvalues --  -10.27434 -10.25258 -10.24939 -10.21614 -10.21282
  Beta  occ. eigenvalues --  -10.20838 -10.20404 -10.20326 -10.20215 -10.19741
  Beta  occ. eigenvalues --  -10.19703 -10.19683 -10.19373 -10.19316  -9.46526
  Beta  occ. eigenvalues --   -7.23011  -7.22033  -7.21916  -1.05702  -1.05442
  Beta  occ. eigenvalues --   -0.95468  -0.89955  -0.88504  -0.84315  -0.82301
  Beta  occ. eigenvalues --   -0.78226  -0.77438  -0.74680  -0.72948  -0.68285
  Beta  occ. eigenvalues --   -0.66120  -0.64397  -0.60882  -0.58779  -0.58135
  Beta  occ. eigenvalues --   -0.55003  -0.53984  -0.51106  -0.50048  -0.48093
  Beta  occ. eigenvalues --   -0.47814  -0.47062  -0.46322  -0.44924  -0.44714
  Beta  occ. eigenvalues --   -0.44523  -0.44353  -0.43320  -0.42034  -0.41385
  Beta  occ. eigenvalues --   -0.40093  -0.39927  -0.39454  -0.37826  -0.36869
  Beta  occ. eigenvalues --   -0.36632  -0.36545  -0.32032  -0.31139  -0.28459
  Beta  occ. eigenvalues --   -0.27868  -0.27496  -0.27406  -0.25748  -0.22621
  Beta virt. eigenvalues --   -0.11123  -0.06597  -0.03733  -0.02049  -0.01891
  Beta virt. eigenvalues --   -0.00531   0.00360   0.01232   0.01395   0.01851
  Beta virt. eigenvalues --    0.02083   0.03014   0.03411   0.03578   0.04340

 Mulliken charges and spin densities:
               1          2
     1  C   -0.414218   0.000000
     2  C    0.507896  -0.000000
     3  C   -0.815380  -0.000000
     4  C    0.912117  -0.000000
     5  Cl   0.443289   0.000000
     6  C    0.483571  -0.000000
     7  C   -1.583140   0.000000
     8  O   -0.110100  -0.000000
     9  C    0.019190   0.000000
    10  C    0.198231  -0.000000
    11  C   -0.353914   0.000000
    12  C   -0.431821  -0.000000
    13  C    0.176236  -0.000000
    14  C   -0.096773   0.000000
    15  C   -0.446434   0.000000
    16  O   -0.260278   0.000000
    17  C    0.138753   0.000000
    18  C   -0.011161   0.000000
    19  N   -0.376222  -0.000000
    20  H    0.172666  -0.000000
    21  H    0.172676   0.000000
    22  H    0.170733  -0.000000
    23  H    0.180002  -0.000000
    24  H    0.180281  -0.000000
    25  H    0.176245  -0.000000
    26  H    0.173409  -0.000000
    27  H    0.183458   0.000000
    28  H    0.341310   0.000000
    29  H    0.269380  -0.000000
 Sum of Mulliken charges =  -0.00000  -0.00000

 Dipole moment (field-independent basis, Debye):
    X=             -2.5839    Y=              2.7529    Z=             -0.1965  Tot=              3.7806
 Quadrupole moment (field-independent basis, Debye-Ang):
   XX=            -86.8457   YY=           -127.3497   ZZ=           -119.9076
   XY=              5.7140   XZ=              1.2126   YZ=             -0.4791

  Exact polarizability: 304.370  17.254 243.646   7.462  18.540 102.903
 Approx polarizability: 449.985  -3.426 444.482   7.777  34.793 168.352

                      1                      2                      3
                      A                      A                      A
 Frequencies --     11.8908                45.5444                90.1074
 Red. masses --      8.9021                 6.6523                 5.9918
 Frc consts  --      0.0007                 0.0081                 0.0287
 IR Inten    --      4.7949                 0.6018                 2.0755

                      4                      5                      6
                      A                      A                      A
 Frequencies --    116.7298               142.2241               179.6282
 Red. masses --      5.5596                 5.4371                 4.0654
 Frc consts  --      0.0446                 0.0648                 0.0773
 IR Inten    --      1.4518                 0.3310                10.5126

                      7                      8                      9
                      A                      A                      A
 Frequencies --    181.6089               195.8545               231.4523
 Red. masses --      5.3109                 1.1491                 1.3332
 Frc consts  --      0.1032                 0.0260                 0.0421
 IR Inten    --      4.3963                46.7747                45.3645

                     10                     11                     12
                      A                      A                      A
 Frequencies --    243.5943               276.8866               292.3063
 Red. masses --      5.0624                 3.8860                 5.2495
 Frc consts  --      0.1770                 0.1755                 0.2643
 IR Inten    --      1.2362                26.1965                 0.4737

                     13                     14                     15
                      A                      A                      A
 Frequencies --    331.8564               358.8877               366.3350
 Red. masses --      6.4599                 7.2608                 5.4763
 Frc consts  --      0.4192                 0.5510                 0.4330
 IR Inten    --      0.6298                10.1391                12.7743

                     16                     17                     18
                      A                      A                      A
 Frequencies --    382.0247               407.0233               428.5591
 Red. masses --      4.5347                 7.9395                 3.4117
 Frc consts  --      0.3899                 0.7750                 0.3692
 IR Inten    --      0.7613                 2.0613                 1.0352

                     19                     20                     21
                      A                      A                      A
 Frequencies --    436.8740               444.4322               486.1180
 Red. masses --      8.4859                 4.9413                10.6096
 Frc consts  --      0.9542                 0.5750                 1.4772
 IR Inten    --     19.5318                 3.0917                 0.2143

                     22                     23                     24
                      A                      A                      A
 Frequencies --    500.5169               505.7513               587.7090
 Red. masses --      5.0250                 4.0812                 5.8263
 Frc consts  --      0.7417                 0.6151                 1.1857
 IR Inten    --      2.9678                 9.0785                 4.8524

                     25                     26                     27
                      A                      A                      A
 Frequencies --    595.5828               632.9859               671.7156
 Red. masses --      5.9060                 4.6379                 2.4785
 Frc consts  --      1.2343                 1.0949                 0.6589
 IR Inten    --      6.0210                 0.2015                 4.6462

                     28                     29                     30
                      A                      A                      A
 Frequencies --    674.1196               702.2351               729.5674
 Red. masses --      4.4966                 1.5063                 4.3135
 Frc consts  --      1.2039                 0.4377                 1.3527
 IR Inten    --     10.6289                10.0616                12.8532

                     31                     32                     33
                      A                      A                      A
 Frequencies --    732.9108               752.3579               808.6920
 Red. masses --      5.5426                 2.4106                 6.0857
 Frc consts  --      1.7541                 0.8039                 2.3449
 IR Inten    --      7.7615                57.7344                 1.1579

                     34                     35                     36
                      A                      A                      A
 Frequencies --    816.2188               822.0694               827.5824
 Red. masses --      2.3492                 6.8556                 6.4659
 Frc consts  --      0.9221                 2.7297                 2.6092
 IR Inten    --      8.4641                45.8815                13.7299

                     37                     38                     39
                      A                      A                      A
 Frequencies --    908.0217               910.8908               914.3890
 Red. masses --      1.3264                 6.5239                 1.4387
 Frc consts  --      0.6444                 3.1893                 0.7087
 IR Inten    --     10.0685                21.8363                 0.9494

                     40                     41                     42
                      A                      A                      A
 Frequencies --    990.2408              1002.3352              1016.5386
 Red. masses --      3.2801                 1.3793                 1.3216
 Frc consts  --      1.8950                 0.8164                 0.8046
 IR Inten    --     50.9539                 1.9069                 0.0141

                     43                     44                     45
                      A                      A                      A
 Frequencies --   1018.0453              1054.0835              1058.5963
 Red. masses --      1.8168                 2.1612                 1.5110
 Frc consts  --      1.1094                 1.4148                 0.9977
 IR Inten    --     64.6441                 1.2868                 1.4264

                     46                     47                     48
                      A                      A                      A
 Frequencies --   1075.2562              1114.9733              1144.9890
 Red. masses --      2.8184                 2.2135                 1.9618
 Frc consts  --      1.9199                 1.6213                 1.5153
 IR Inten    --      3.4792                 0.4353                25.4686

                     49                     50                     51
                      A                      A                      A
 Frequencies --   1182.3759              1196.3835              1223.0317
 Red. masses --      1.1477                 2.3594                 3.6926
 Frc consts  --      0.9454                 1.9897                 3.2543
 IR Inten    --      8.3562                48.4971                55.0856

                     52                     53                     54
                      A                      A                      A
 Frequencies --   1264.1293              1276.2825              1305.5059
 Red. masses --      1.9207                 4.2689                 2.1273
 Frc consts  --      1.8084                 4.0969                 2.1362
 IR Inten    --     46.8096               580.2442                20.9080

                     55                     56                     57
                      A                      A                      A
 Frequencies --   1348.1507              1361.0586              1378.0577
 Red. masses --      4.1988                 7.4671                 3.8583
 Frc consts  --      4.4962                 8.1500                 4.3170
 IR Inten    --     57.6047                 0.2231                11.9180

                     58                     59                     60
                      A                      A                      A
 Frequencies --   1401.2946              1418.9021              1444.0532
 Red. masses --      2.5688                 1.9916                 2.8332
 Frc consts  --      2.9720                 2.3624                 3.4810
 IR Inten    --    149.7118                24.0464                 4.7637

                     61                     62                     63
                      A                      A                      A
 Frequencies --   1481.5462              1486.9626              1500.3250
 Red. masses --      2.4326                 1.0428                 1.1646
 Frc consts  --      3.1459                 1.3584                 1.5446
 IR Inten    --      3.2352                 9.5836                14.1722

                     64                     65                     66
                      A                      A                      A
 Frequencies --   1510.4750              1569.3741              1582.6479
 Red. masses --      2.5238                 6.5718                 2.2808
 Frc consts  --      3.3926                 9.5364                 3.3659
 IR Inten    --      3.1058                30.0753               347.2682

                     67                     68                     69
                      A                      A                      A
 Frequencies --   1618.4370              1629.6809              1638.0192
 Red. masses --      6.3652                 5.5080                 2.6787
 Frc consts  --      9.8232                 8.6189                 4.2346
 IR Inten    --      9.4654                42.4257               133.3849

                     70                     71                     72
                      A                      A                      A
 Frequencies --   1671.3326              1723.0899              3007.6950
 Red. masses --      7.3274                12.4283                 1.0409
 Frc consts  --     12.0594                21.7409                 5.5479
 IR Inten    --    101.7101               177.0276                30.0011

                     73                     74                     75
                      A                      A                      A
 Frequencies --   3051.0031              3115.5653              3169.1208
 Red. masses --      1.0998                 1.0963                 1.0871
 Frc consts  --      6.0319                 6.2700                 6.4326
 IR Inten    --     14.6481                11.3648                 3.7256

                     76                     77                     78
                      A                      A                      A
 Frequencies --   3184.0725              3187.4755              3203.7511
 Red. masses --      1.0924                 1.0913                 1.0926
 Frc consts  --      6.5255                 6.5326                 6.6074
 IR Inten    --     14.8791                 3.9040                 1.9304

                     79                     80                     81
                      A                      A                      A
 Frequencies --   3206.6847              3486.1337              3711.3331
 Red. masses --      1.0938                 1.0574                 1.0931
 Frc consts  --      6.6266                 7.5715                 8.8712
 IR Inten    --      9.7334                86.8118                91.6245

 - Thermochemistry -
 -------------------
 Temperature   298.150 Kelvin.  Pressure   1.00000 Atm.
 Atom     1 has atomic number  6 and mass  12.00000

 Molecular mass:   271.04001 amu.
 Principal axes and moments of inertia in atomic units:
                           1         2         3
     Eigenvalues --  3372.432456159.760509510.08230
           X            0.92168  -0.38702  -0.02704
           Y            0.38081   0.91581  -0.12759
           Z            0.07414   0.10730   0.99146
 This molecule is an asymmetric top.
 Rotational symmetry number  1.
 Warning -- assumption of classical behavior for rotation
           may cause significant error
 Rotational temperatures (Kelvin)      0.02568     0.01406     0.00911
 Rotational constants (GHZ):           0.53515     0.29299     0.18977
 Zero-point vibrational energy     560763.1 (Joules/Mol)
                                  134.02559 (Kcal/Mol)
 Warning -- explicit consideration of  25 degrees of freedom as
           vibrations may cause significant error
 Vibrational temperatures:     17.11    65.53   129.64   167.95   204.63
          (Kelvin)            258.44   261.29   281.79   333.01   350.48
                              398.38   420.56   477.47   516.36   527.07
                              549.65   585.62   616.60   628.56   639.44
                              699.42   720.13   727.66   845.58   856.91
                              910.73   966.45   969.91  1010.36  1049.68
                             1054.50  1082.48  1163.53  1174.36  1182.77
                             1190.71  1306.44  1310.57  1315.60  1424.74
                             1442.14  1462.57  1464.74  1516.59  1523.08
                             1547.05  1604.20  1647.38  1701.18  1721.33
                             1759.67  1818.80  1836.29  1878.33  1939.69
                             1958.26  1982.72  2016.15  2041.48  2077.67
                             2131.61  2139.41  2158.63  2173.24  2257.98
                             2277.08  2328.57  2344.75  2356.74  2404.67
                             2479.14  4327.40  4389.71  4482.60  4559.66
                             4581.17  4586.07  4609.48  4613.70  5015.77
                             5339.78

 Zero-point correction=                           0.213583 (Hartree/Particle)
 Thermal correction to Energy=                    0.229164
 Thermal correction to Enthalpy=                  0.230109
 Thermal correction to Gibbs Free Energy=         0.169578
 Sum of electronic and zero-point Energies=          -1243.062460
 Sum of electronic and thermal Energies=             -1243.046879
 Sum of electronic and thermal Enthalpies=           -1243.045935
 Sum of electronic and thermal Free Energies=        -1243.106466

                     E (Thermal)             CV                S
                      KCal/Mol        Cal/Mol-Kelvin    Cal/Mol-Kelvin
 Total                  143.803             61.064            127.398
 Electronic               0.000              0.000              0.000
 Translational            0.889              2.981             42.690
 Rotational               0.889              2.981             33.646
 Vibrational            142.025             55.103             51.062
 Vibration     1          0.593              1.987              7.667
 Vibration     2          0.595              1.979              5.002
 Vibration     3          0.602              1.956              3.658
 Vibration     4          0.608              1.935              3.154
 Vibration     5          0.616              1.911              2.774
 Vibration     6          0.629              1.867              2.332
 Vibration     7          0.630              1.865              2.312
 Vibration     8          0.636              1.846              2.172
 Vibration     9          0.653              1.793              1.868
 Vibration    10          0.659              1.773              1.776
 Vibration    11          0.678              1.716              1.553
 Vibration    12          0.688              1.688              1.461
 Vibration    13          0.714              1.612              1.251
 Vibration    14          0.734              1.557              1.127
 Vibration    15          0.739              1.542              1.095
 Vibration    16          0.751              1.509              1.031
 Vibration    17          0.772              1.455              0.937
 Vibration    18          0.790              1.408              0.863
 Vibration    19          0.797              1.390              0.836
 Vibration    20          0.804              1.373              0.813
 Vibration    21          0.842              1.281              0.694
 Vibration    22          0.856              1.249              0.657
 Vibration    23          0.861              1.237              0.644
 Vibration    24          0.945              1.058              0.471
 Vibration    25          0.953              1.041              0.457

                           ! Non-Optimized Parameters !
 Normal termination of Gaussian 16 at Thu Dec 21 09:21:49 2023.
