 Q-Chem 5.4, Q-Chem, Inc., Pleasanton, CA (2021)
 Q-Chem 5.4.0 for Intel X86 EM64T Linux

User input:
--------------------------------------------------------------
$molecule
-1 2
C                  1.3106250000      4.2147690000      5.1606500000
C                  1.8119020000      3.9656080000      3.8243480000
C                  1.6023260000      2.8028510000      3.1182650000
C                  0.8831450000      1.6767120000      3.7222570000
C                  0.3607210000      1.9364650000      5.0486870000
C                  0.5140460000      3.1232270000      5.7265440000
O                  1.5953500000      5.2753780000      5.7697180000
O                  0.7476710000      0.5555860000      3.1791200000
H                  2.3821710000      4.7751780000      3.3840120000
C                 -0.1290850000      3.2225670000      7.0619530000
O                 -0.2531220000      2.3063070000      7.8528310000
O                 -0.6371160000      4.4524420000      7.3141660000
C                 -1.2355220000      4.6253350000      8.5984650000
H                 -1.5519870000      5.6672370000      8.6340450000
H                 -0.5146600000      4.4214430000      9.3937110000
H                 -2.0940550000      3.9609280000      8.7264020000
C                  2.0818870000      2.7026120000      1.7189190000
O                  3.2755140000      3.3645050000      1.5419180000
O                  1.5294880000      2.1555950000      0.7934690000
C                  3.7658810000      3.3868800000      0.2012690000
H                 -0.1873290000      1.1218440000      5.5094480000
H                  4.7057090000      3.9375380000      0.2403890000
H                  3.0606750000      3.8880560000     -0.4669940000
H                  3.9345250000      2.3734770000     -0.1705710000
$end
$rem
MAX_SCF_CYCLES=200
BASIS  =  6-311++G(d,p)
GUI  =  2
JOB_TYPE  =  SP
METHOD  =  B3LYP
SOLVENT_METHOD = COSMO
$end
$solvent
dielectric 37.219
opticaldielectric 1.43
$end

--------------------------------------------------------------

             Standard Nuclear Orientation (Angstroms)
    I     Atom           X                Y                Z
 ----------------------------------------------------------------
    1      C       0.7291326803    -1.0957446843     0.1408130936
    2      C      -0.7137561773    -1.0194881789     0.0344196742
    3      C      -1.4281957792     0.1546822217    -0.0389224649
    4      C      -0.7515334212     1.4524198984     0.0517509599
    5      C       0.6932051460     1.3749160382     0.1326127296
    6      C       1.4101851965     0.2013292686     0.1386471604
    7      O       1.3095792632    -2.2019853172     0.2682377053
    8      O      -1.3462282030     2.5544633283     0.0977173438
    9      H      -1.2284658710    -1.9728927089     0.0099279727
   10      C       2.8904629940     0.3181453982     0.1826329551
   11      O       3.5104605429     1.1858772353     0.7683377221
   12      O       3.5177591692    -0.6254216234    -0.5593105699
   13      C       4.9444124996    -0.5921344117    -0.5283607995
   14      H       5.2683699212    -1.4301919078    -1.1445482973
   15      H       5.3137882207    -0.7085452641     0.4932263291
   16      H       5.3259868094     0.3490365906    -0.9326894285
   17      C      -2.8955596188     0.1041305577    -0.2450382796
   18      O      -3.4646881601    -0.9632238508     0.4114861927
   19      O      -3.5660689226     0.8508945952    -0.9185297062
   20      C      -4.8659227738    -1.1327248063     0.1967511002
   21      H       1.2158438989     2.3237222985     0.1862996896
   22      H      -5.1505478560    -2.0058126247     0.7838946098
   23      H      -5.0841126186    -1.3001487744    -0.8612804349
   24      H      -5.4219564973    -0.2531903591     0.5298232834
 ----------------------------------------------------------------

    9    -837.5315873864      8.39e-06  Convergence criterion met
 Total energy in the final basis set =     -837.5315873864
    4    -837.6253155993      8.79e-06  Convergence criterion met
 Total energy in the final basis set =     -837.6253155993

                    Orbital Energies (a.u.)
 --------------------------------------------------------------

 Alpha MOs
 -- Occupied --
-19.1709 -19.1691 -19.1233 -19.1212 -19.0959 -19.0950 -10.3121 -10.3119
-10.2439 -10.2437 -10.2167 -10.2160 -10.1959 -10.1957 -10.1868 -10.1863
 -1.1146  -1.1112  -1.0291  -1.0273  -1.0212  -1.0188  -0.8494  -0.7959
 -0.7393  -0.7224  -0.6996  -0.6502  -0.6042  -0.5797  -0.5600  -0.5252
 -0.5132  -0.5056  -0.4889  -0.4866  -0.4813  -0.4698  -0.4504  -0.4449
 -0.4313  -0.4232  -0.4204  -0.4085  -0.4027  -0.3952  -0.3914  -0.3819
 -0.3641  -0.3627  -0.3142  -0.3133  -0.3049  -0.3023  -0.2951  -0.2768
 -0.2606  -0.2514  -0.1829

 Beta MOs
 -- Occupied --
-19.1709 -19.1691 -19.1231 -19.1211 -19.0889 -19.0879 -10.3121 -10.3119
-10.2430 -10.2428 -10.2167 -10.2160 -10.1953 -10.1951 -10.1848 -10.1843
 -1.1144  -1.1110  -1.0281  -1.0270  -1.0098  -1.0068  -0.8436  -0.7937
 -0.7381  -0.7193  -0.6915  -0.6475  -0.6003  -0.5787  -0.5591  -0.5241
 -0.5105  -0.5032  -0.4882  -0.4860  -0.4807  -0.4689  -0.4476  -0.4422
 -0.4243  -0.4176  -0.4141  -0.4053  -0.3983  -0.3895  -0.3789  -0.3673
 -0.3638  -0.3600  -0.3136  -0.3127  -0.3015  -0.2979  -0.2692  -0.2675
 -0.2540  -0.2453

          Ground-State Mulliken Net Atomic Charges

     Atom                 Charge (a.u.)    Spin (a.u.)
  --------------------------------------------------------
      1 C                    -0.943425       0.067266
      2 C                    -0.022322       0.137136
      3 C                     0.994786       0.021913
      4 C                    -1.044218       0.075489
      5 C                    -0.131905       0.128265
      6 C                     1.134526       0.043030
      7 O                    -0.457823       0.255559
      8 O                    -0.471420       0.250110
      9 H                     0.225400      -0.010573
     10 C                    -0.175974       0.005306
     11 O                    -0.338649       0.001450
     12 O                    -0.086400       0.001768
     13 C                    -0.278156       0.000140
     14 H                     0.181303       0.000110
     15 H                     0.198500       0.000033
     16 H                     0.184406       0.000075
     17 C                    -0.020760       0.028960
     18 O                    -0.117766      -0.001110
     19 O                    -0.324901       0.006090
     20 C                    -0.279359      -0.000259
     21 H                     0.216574      -0.010859
     22 H                     0.180131       0.000076
     23 H                     0.192952      -0.000074
     24 H                     0.184500       0.000100
  --------------------------------------------------------
  Sum of atomic charges =    -1.000000

                    Cartesian Multipole Moments
 -----------------------------------------------------------------
    Charge (ESU x 10^10)
                -4.8032
    Dipole Moment (Debye)
         X       0.3555      Y      -4.5988      Z      -0.9793
       Tot       4.7153
    Quadrupole Moments (Debye-Ang)
        XX     -96.9807     XY      18.0445     YY    -125.5921
        XZ     -12.2239     YZ       0.9956     ZZ     -97.5241

 Total job time:  51.06s(wall), 375.93s(cpu)
        *  Thank you very much for using Q-Chem.  Have a nice day.  *
