 Gaussian 16, Revision A.03,
 Gaussian 16:  ES64L-G16RevA.03 25-Dec-2016

 ----------------------------------------------------------------
 #P UB3LYP/6-311++G(d,p) SCRF=(PCM,Solvent=n,n-DiMethylFormamide)
 ----------------------------------------------------------------

 -------
 Reduced
 -------
 Symbolic Z-matrix:
 Charge = -2 Multiplicity = 1

                         Standard orientation:
 ---------------------------------------------------------------------
 Center     Atomic      Atomic             Coordinates (Angstroms)
 Number     Number       Type             X           Y           Z
 ---------------------------------------------------------------------
      1          7           0       -4.256273    2.197950   -0.000739
      2          6           0       -3.653126    1.193670   -0.000111
      3          6           0       -2.920271    0.000011    0.000151
      4          6           0       -3.653284   -1.193597    0.000320
      5          7           0       -4.256158   -2.198048    0.000460
      6          6           0       -1.446802   -0.000021    0.000071
      7          6           0       -0.696156    1.193118    0.000665
      8          6           0        0.696271    1.193066    0.000528
      9          6           0        1.446852   -0.000034   -0.000174
     10          6           0        0.696218   -1.193147   -0.000666
     11          6           0       -0.696199   -1.193133   -0.000524
     12          6           0        2.920362   -0.000024   -0.000223
     13          6           0        3.653314   -1.193608   -0.000050
     14          7           0        4.256195   -2.198016    0.000339
     15          6           0        3.653294    1.193583   -0.000126
     16          7           0        4.255801    2.198223    0.000014
     17          1           0       -1.219816    2.144508    0.001335
     18          1           0        1.219988    2.144424    0.001155
     19          1           0        1.219917   -2.144497   -0.001234
     20          1           0       -1.219889   -2.144507   -0.000940
 ---------------------------------------------------------------------

 SCF Done:  E(UB3LYP) =  -679.097400245     A.U. after   15 cycles

 The electronic state is 1-A.
 Alpha  occ. eigenvalues --  -14.28523 -14.28522 -14.28522 -14.28521 -10.19718
 Alpha  occ. eigenvalues --  -10.19717 -10.19715 -10.19714 -10.17900 -10.17898
 Alpha  occ. eigenvalues --  -10.17737 -10.17736 -10.16073 -10.16071 -10.16017
 Alpha  occ. eigenvalues --  -10.16017  -0.89400  -0.89305  -0.88186  -0.88184
 Alpha  occ. eigenvalues --   -0.85034  -0.79643  -0.75560  -0.73456  -0.69712
 Alpha  occ. eigenvalues --   -0.61051  -0.59226  -0.55684  -0.53012  -0.51931
 Alpha  occ. eigenvalues --   -0.47670  -0.43151  -0.42932  -0.40654  -0.39336
 Alpha  occ. eigenvalues --   -0.38196  -0.37314  -0.36273  -0.36053  -0.35810
 Alpha  occ. eigenvalues --   -0.35603  -0.34738  -0.33164  -0.32681  -0.32671
 Alpha  occ. eigenvalues --   -0.32331  -0.32272  -0.31535  -0.31352  -0.27456
 Alpha  occ. eigenvalues --   -0.24678  -0.20054  -0.15441
 Alpha virt. eigenvalues --   -0.00775   0.00082   0.00283   0.00928   0.01357
 Alpha virt. eigenvalues --    0.01412   0.01672   0.03274   0.03588   0.04683
 Alpha virt. eigenvalues --    0.05044   0.05056   0.05256   0.05616   0.05643

  Beta  occ. eigenvalues --  -14.28523 -14.28522 -14.28522 -14.28521 -10.19718
  Beta  occ. eigenvalues --  -10.19717 -10.19715 -10.19714 -10.17900 -10.17898
  Beta  occ. eigenvalues --  -10.17737 -10.17736 -10.16073 -10.16071 -10.16017
  Beta  occ. eigenvalues --  -10.16017  -0.89400  -0.89305  -0.88186  -0.88184
  Beta  occ. eigenvalues --   -0.85034  -0.79643  -0.75560  -0.73456  -0.69712
  Beta  occ. eigenvalues --   -0.61051  -0.59226  -0.55684  -0.53012  -0.51931
  Beta  occ. eigenvalues --   -0.47670  -0.43151  -0.42932  -0.40654  -0.39336
  Beta  occ. eigenvalues --   -0.38196  -0.37314  -0.36273  -0.36053  -0.35810
  Beta  occ. eigenvalues --   -0.35603  -0.34738  -0.33164  -0.32681  -0.32671
  Beta  occ. eigenvalues --   -0.32331  -0.32272  -0.31535  -0.31352  -0.27456
  Beta  occ. eigenvalues --   -0.24678  -0.20054  -0.15441
  Beta virt. eigenvalues --   -0.00775   0.00082   0.00283   0.00928   0.01357
  Beta virt. eigenvalues --    0.01412   0.01672   0.03274   0.03588   0.04683
  Beta virt. eigenvalues --    0.05044   0.05056   0.05256   0.05616   0.05643

 Mulliken charges and spin densities:
               1          2
     1  N   -0.425082  -0.000000
     2  C   -1.341973   0.000000
     3  C    2.155300  -0.000000
     4  C   -1.341728   0.000000
     5  N   -0.425021  -0.000000
     6  C    1.472729  -0.000000
     7  C   -0.675932  -0.000000
     8  C   -0.675735  -0.000000
     9  C    1.473495  -0.000000
    10  C   -0.675717   0.000000
    11  C   -0.675783   0.000000
    12  C    2.154968  -0.000000
    13  C   -1.342235  -0.000000
    14  N   -0.425084  -0.000000
    15  C   -1.341866   0.000000
    16  N   -0.425045  -0.000000
    17  H    0.128680  -0.000000
    18  H    0.128672   0.000000
    19  H    0.128688   0.000000
    20  H    0.128671   0.000000
 Sum of Mulliken charges =  -2.00000   0.00000

 Dipole moment (field-independent basis, Debye):
    X=              0.0006    Y=             -0.0004    Z=              0.0002  Tot=              0.0008
 Quadrupole moment (field-independent basis, Debye-Ang):
   XX=           -263.5803   YY=           -146.5636   ZZ=           -101.1068
   XY=              0.0011   XZ=             -0.0071   YZ=              0.0136

 Normal termination of Gaussian 16 at Sat Jan 13 19:20:52 2024.
