 Q-Chem 5.4, Q-Chem, Inc., Pleasanton, CA (2021)
 Q-Chem 5.4.0 for Intel X86 EM64T Linux

User input:
--------------------------------------------------------------
$molecule
0 1
C                 -1.5293270000      1.9071560000     -4.7759520000
C                 -1.4930020000      0.5391210000     -5.0131610000
C                 -1.2542480000     -0.3483120000     -3.9595670000
C                 -1.3282920000      2.3978200000     -3.4809590000
C                 -1.0883730000      1.5087030000     -2.4226430000
C                 -1.0514590000      0.1334050000     -2.6719890000
C                 -1.3731800000      3.8568350000     -3.2402090000
C                 -0.8559030000      1.9950130000     -1.0299360000
C                 -1.1777770000      4.3568190000     -1.8740110000
C                 -0.9227480000      3.4681050000     -0.7880400000
C                 -1.2594820000      5.7516370000     -1.6460830000
C                 -1.0993420000      6.2520030000     -0.3435620000
C                 -0.8552270000      5.3885600000      0.7003710000
C                 -0.7611500000      4.0078960000      0.4888390000
O                 -1.5820510000      4.6336820000     -4.1848730000
O                 -0.6244370000      1.1933500000     -0.1386210000
H                 -1.7111350000      2.6132610000     -5.5761560000
H                 -1.6491160000      0.1601500000     -6.0166260000
H                 -1.2252640000     -1.4156470000     -4.1469650000
H                 -0.8605000000     -0.5367250000     -1.8435010000
H                 -0.7292760000      5.7598820000      1.7101800000
O                 -1.4906160000      6.6361200000     -2.6205280000
O                 -0.5828470000      3.2279980000      1.6172580000
C                  0.6525150000      2.6454860000      1.8318760000
C                  0.5687540000      1.6717420000      2.9686740000
O                  1.6211470000      2.9202120000      1.1833900000
H                 -1.1693590000      7.3216650000     -0.1902980000
H                 -1.5790240000      6.1233420000     -3.4631470000
H                  0.0378720000      0.7852200000      2.6129930000
H                  0.0017860000      2.0924890000      3.8004630000
H                  1.5719170000      1.3959120000      3.2871220000
$end
$rem
MAX_SCF_CYCLES=200
BASIS  =  6-311++G(d,p)
GUI  =  2
JOB_TYPE  =  SP
METHOD  =  B3LYP
SOLVENT_METHOD = COSMO
$end
$solvent
dielectric 37.219
opticaldielectric 1.43
$end

--------------------------------------------------------------

             Standard Nuclear Orientation (Angstroms)
    I     Atom           X                Y                Z
 ----------------------------------------------------------------
    1      C       3.6905782997     0.2446237582    -0.1621071471
    2      C       4.2494695103     1.5148694824    -0.1053287085
    3      C       3.4297517091     2.6334317054     0.0721040912
    4      C       2.3058549977     0.0839110328    -0.0400993637
    5      C       1.4818591533     1.2053011141     0.1377715339
    6      C       2.0537844541     2.4800598934     0.1913641148
    7      C       1.7227659629    -1.2745143468    -0.0983052975
    8      C      -0.0009417485     1.0751468641     0.2583280002
    9      C       0.2705453941    -1.4301258402     0.0483364105
   10      C      -0.5831756439    -0.3005323389     0.2196965245
   11      C      -0.2751061946    -2.7362777074     0.0289514441
   12      C      -1.6590967428    -2.9121214412     0.1908806035
   13      C      -2.4771984023    -1.8176735637     0.3576606210
   14      C      -1.9535458675    -0.5194040398     0.3683196944
   15      O       2.4612019951    -2.2583984903    -0.2601467244
   16      O      -0.6888866669     2.0756641947     0.3863098907
   17      H       4.3051467353    -0.6358389160    -0.3001505422
   18      H       5.3222361363     1.6381556902    -0.1996943979
   19      H       3.8678115747     3.6240955629     0.1151245578
   20      H       1.4013886069     3.3336160897     0.3246060043
   21      H      -3.5464168425    -1.9377335912     0.4834199761
   22      O       0.4694828557    -3.8338727969    -0.1327529996
   23      O      -2.8552996354     0.5007703828     0.6121363864
   24      C      -3.2172761068     1.3293902497    -0.4337424486
   25      C      -4.0122755940     2.4900475037     0.0842860541
   26      O      -2.9229240455     1.1037026825    -1.5724603261
   27      H      -2.0555864294    -3.9196770507     0.1768573936
   28      H       1.4088702949    -3.5357672670    -0.2299556895
   29      H      -3.3227411736     3.1700366035     0.5906683557
   30      H      -4.7543978084     2.1593408374     0.8124628261
   31      H      -4.4908662028     3.0040503020    -0.7467250618
 ----------------------------------------------------------------

    9    -992.1508725993      5.72e-06  Convergence criterion met
 Total energy in the final basis set =     -992.1508725993
    5    -992.1699852184      3.31e-06  Convergence criterion met
 Total energy in the final basis set =     -992.1699852184

                    Orbital Energies (a.u.)
 --------------------------------------------------------------

 Alpha MOs
 -- Occupied --
-19.1889 -19.1668 -19.1435 -19.1361 -19.1340 -10.3261 -10.2933 -10.2903
-10.2723 -10.2656 -10.2232 -10.2169 -10.2108 -10.2101 -10.2073 -10.2019
-10.1986 -10.1982 -10.1975 -10.1972 -10.1801  -1.1333  -1.0977  -1.0707
 -1.0658  -1.0536  -0.8987  -0.8842  -0.8209  -0.7934  -0.7799  -0.7779
 -0.7510  -0.7032  -0.6762  -0.6619  -0.6501  -0.6065  -0.5914  -0.5723
 -0.5609  -0.5437  -0.5151  -0.5082  -0.5054  -0.4970  -0.4905  -0.4800
 -0.4676  -0.4653  -0.4577  -0.4534  -0.4474  -0.4471  -0.4344  -0.4272
 -0.4216  -0.4159  -0.4042  -0.3922  -0.3907  -0.3833  -0.3810  -0.3696
 -0.3584  -0.3419  -0.3070  -0.2984  -0.2971  -0.2812  -0.2801  -0.2787
 -0.2521

          Ground-State Mulliken Net Atomic Charges

     Atom                 Charge (a.u.)
  ----------------------------------------
      1 C                     0.001831
      2 C                    -0.505080
      3 C                    -0.404734
      4 C                     0.073018
      5 C                    -0.166404
      6 C                     0.101173
      7 C                    -0.349644
      8 C                    -0.257820
      9 C                     0.780487
     10 C                     0.647044
     11 C                    -0.304146
     12 C                    -0.174304
     13 C                     0.115914
     14 C                    -0.201830
     15 O                    -0.329881
     16 O                    -0.268260
     17 H                     0.205358
     18 H                     0.226538
     19 H                     0.231737
     20 H                     0.197191
     21 H                     0.256409
     22 O                    -0.336603
     23 O                    -0.013827
     24 C                     0.060004
     25 C                    -0.510915
     26 O                    -0.282945
     27 H                     0.254280
     28 H                     0.367972
     29 H                     0.207996
     30 H                     0.195832
     31 H                     0.183608
  ----------------------------------------
  Sum of atomic charges =     0.000000

                    Cartesian Multipole Moments
 -----------------------------------------------------------------
    Charge (ESU x 10^10)
                -0.0000
    Dipole Moment (Debye)
         X       0.8576      Y       1.9298      Z       2.3777
       Tot       3.1801
    Quadrupole Moments (Debye-Ang)
        XX     -92.5184     XY      14.6148     YY    -116.9810
        XZ      -6.8820     YZ       0.6104     ZZ    -128.1252

 Total job time:  107.48s(wall), 649.09s(cpu)
        *  Thank you very much for using Q-Chem.  Have a nice day.  *
