 Gaussian 16, Revision A.03,
 Gaussian 16:  ES64L-G16RevA.03 25-Dec-2016

 ----------------------------------------------------------------
 #P UB3LYP/6-311++G(d,p) SCRF=(PCM,Solvent=n,n-DiMethylFormamide)
 ----------------------------------------------------------------

 -------
 Reduced
 -------
 Symbolic Z-matrix:
 Charge = -2 Multiplicity = 1

                         Standard orientation:
 ---------------------------------------------------------------------
 Center     Atomic      Atomic             Coordinates (Angstroms)
 Number     Number       Type             X           Y           Z
 ---------------------------------------------------------------------
      1          6           0       -1.928231   -1.430388    0.066364
      2          6           0       -0.996897   -2.460597   -0.037606
      3          6           0        0.380392   -2.176965   -0.175200
      4          6           0       -1.551426   -0.059706    0.039949
      5          6           0       -0.126932    0.208187   -0.130265
      6          6           0        0.806419   -0.868339   -0.195834
      7          6           0       -2.514583    1.050124    0.132232
      8          6           0       -1.919167    2.337467   -0.041114
      9          6           0       -0.555713    2.568952   -0.247719
     10          6           0        0.404271    1.534325   -0.306908
     11          8           0       -3.770038    0.905874    0.344997
     12          8           0        1.677863    1.715082   -0.524596
     13          8           0       -3.261303   -1.780412    0.190012
     14          1           0        1.100542   -2.988572   -0.234983
     15          1           0       -0.194820    3.589250   -0.381850
     16          6           0        2.274824   -0.594065   -0.250681
     17          8           0        3.031222   -0.909494   -1.153350
     18          8           0        2.768071   -0.244025    0.994304
     19          6           0        4.024094    0.418977    0.958665
     20          1           0       -1.340422   -3.493802    0.017107
     21          1           0       -2.608778    3.180034    0.001889
     22          1           0       -3.298513   -2.729619    0.020895
     23          1           0        4.274500    0.653333    1.997163
     24          1           0        3.913787    1.338717    0.377193
     25          1           0        4.804887   -0.213359    0.520352
 ---------------------------------------------------------------------

 SCF Done:  E(UB3LYP) =  -838.693921824     A.U. after   18 cycles

 The electronic state is 1-A.
 Alpha  occ. eigenvalues --  -19.13793 -19.13786 -19.09352 -19.02047 -19.01497
 Alpha  occ. eigenvalues --  -10.28971 -10.22174 -10.20054 -10.17884 -10.16897
 Alpha  occ. eigenvalues --  -10.16126 -10.15940 -10.15145 -10.14976 -10.14773
 Alpha  occ. eigenvalues --  -10.12563 -10.12055  -1.07901  -1.04678  -0.99738
 Alpha  occ. eigenvalues --   -0.93563  -0.93169  -0.83329  -0.76939  -0.74470
 Alpha  occ. eigenvalues --   -0.71271  -0.69463  -0.64681  -0.61102  -0.59728
 Alpha  occ. eigenvalues --   -0.56065  -0.54169  -0.51752  -0.48701  -0.46798
 Alpha  occ. eigenvalues --   -0.46295  -0.45360  -0.44952  -0.43118  -0.42013
 Alpha  occ. eigenvalues --   -0.40446  -0.40002  -0.38884  -0.37354  -0.36437
 Alpha  occ. eigenvalues --   -0.35823  -0.35697  -0.35050  -0.33934  -0.32795
 Alpha  occ. eigenvalues --   -0.32170  -0.31977  -0.30645  -0.28030  -0.26724
 Alpha  occ. eigenvalues --   -0.22712  -0.22048  -0.21387  -0.20173  -0.19116
 Alpha  occ. eigenvalues --   -0.11367
 Alpha virt. eigenvalues --   -0.01061   0.00038   0.00308   0.00855   0.01327
 Alpha virt. eigenvalues --    0.02294   0.02518   0.03221   0.03539   0.04175
 Alpha virt. eigenvalues --    0.05235   0.05477   0.05968   0.06776   0.07072

  Beta  occ. eigenvalues --  -19.13793 -19.13786 -19.09352 -19.02047 -19.01497
  Beta  occ. eigenvalues --  -10.28971 -10.22174 -10.20054 -10.17884 -10.16897
  Beta  occ. eigenvalues --  -10.16126 -10.15940 -10.15145 -10.14976 -10.14773
  Beta  occ. eigenvalues --  -10.12563 -10.12055  -1.07901  -1.04678  -0.99738
  Beta  occ. eigenvalues --   -0.93563  -0.93169  -0.83329  -0.76939  -0.74470
  Beta  occ. eigenvalues --   -0.71271  -0.69463  -0.64681  -0.61102  -0.59728
  Beta  occ. eigenvalues --   -0.56065  -0.54169  -0.51752  -0.48701  -0.46798
  Beta  occ. eigenvalues --   -0.46295  -0.45360  -0.44952  -0.43118  -0.42013
  Beta  occ. eigenvalues --   -0.40446  -0.40002  -0.38884  -0.37354  -0.36437
  Beta  occ. eigenvalues --   -0.35823  -0.35697  -0.35050  -0.33934  -0.32795
  Beta  occ. eigenvalues --   -0.32170  -0.31977  -0.30645  -0.28030  -0.26724
  Beta  occ. eigenvalues --   -0.22712  -0.22048  -0.21387  -0.20173  -0.19116
  Beta  occ. eigenvalues --   -0.11367
  Beta virt. eigenvalues --   -0.01061   0.00038   0.00308   0.00855   0.01327
  Beta virt. eigenvalues --    0.02294   0.02518   0.03221   0.03539   0.04175
  Beta virt. eigenvalues --    0.05235   0.05477   0.05968   0.06776   0.07072

 Mulliken charges and spin densities:
               1          2
     1  C    0.006355  -0.000000
     2  C   -0.120855  -0.000000
     3  C   -0.306657   0.000000
     4  C    0.075914   0.000000
     5  C    0.451740   0.000000
     6  C    0.674536   0.000000
     7  C   -0.425731   0.000000
     8  C   -0.161680   0.000000
     9  C   -0.224900   0.000000
    10  C   -0.569188   0.000000
    11  O   -0.679894  -0.000000
    12  O   -0.614338   0.000000
    13  O   -0.255653  -0.000000
    14  H    0.166208   0.000000
    15  H    0.134388   0.000000
    16  C   -0.573333  -0.000000
    17  O   -0.323323   0.000000
    18  O   -0.046251  -0.000000
    19  C   -0.239868  -0.000000
    20  H    0.144434  -0.000000
    21  H    0.131057  -0.000000
    22  H    0.284365  -0.000000
    23  H    0.151216   0.000000
    24  H    0.181033  -0.000000
    25  H    0.140426  -0.000000
 Sum of Mulliken charges =  -2.00000   0.00000

 Dipole moment (field-independent basis, Debye):
    X=              6.7412    Y=             -9.0474    Z=              2.2416  Tot=             11.5032
 Quadrupole moment (field-independent basis, Debye-Ang):
   XX=           -180.5253   YY=           -115.6117   ZZ=           -114.7884
   XY=             15.7153   XZ=             16.8583   YZ=              1.1112

 Normal termination of Gaussian 16 at Sun Jan 21 08:53:38 2024.
