 Q-Chem 5.4, Q-Chem, Inc., Pleasanton, CA (2021)
 Q-Chem 5.4.0 for Intel X86 EM64T Linux

User input:
--------------------------------------------------------------
$molecule
0 1
O                  4.9783680000      0.5779100000     -0.6554320000
C                  3.7091930000      0.1172350000     -0.4796150000
C                  3.5376510000     -1.2734160000     -0.4198030000
C                  2.2722600000     -1.8040310000     -0.2425830000
C                  1.1530550000     -0.9691430000     -0.1212770000
C                 -0.1921760000     -1.5824740000      0.0683700000
O                 -0.3065240000     -2.7964300000      0.1165030000
C                 -1.3572090000     -0.6580170000      0.1923920000
C                 -2.6578280000     -1.1481230000      0.3723020000
O                 -2.8934870000     -2.4824680000      0.4386300000
C                 -3.7329750000     -0.2436310000      0.4854700000
C                 -3.5447290000      1.1164080000      0.4243950000
C                 -2.2541380000      1.6413050000      0.2447340000
O                 -2.1348780000      2.9743650000      0.1931810000
C                 -1.1590530000      0.7570070000      0.1284930000
C                  0.1787870000      1.3307430000     -0.0586160000
O                  0.3523140000      2.5596610000     -0.1140830000
C                  1.3357520000      0.4181760000     -0.1824880000
C                  2.6108120000      0.9619140000     -0.3612750000
H                  4.9805270000      1.5411830000     -0.6817470000
H                  4.4079120000     -1.9115470000     -0.5144890000
H                  2.1211480000     -2.8751010000     -0.1941100000
H                 -3.8376510000     -2.6300370000      0.5638720000
H                 -4.7354450000     -0.6391240000      0.6246750000
H                 -4.3752710000      1.8057700000      0.5121080000
H                 -1.1732070000      3.1713630000      0.0646600000
H                  2.7167930000      2.0405000000     -0.4042650000
$end
$rem
MAX_SCF_CYCLES=200
BASIS  =  6-311++G(d,p)
GUI  =  2
JOB_TYPE  =  SP
METHOD  =  B3LYP
SOLVENT_METHOD = PCM
$end
$pcm
theory = CPCM
$end
$solvent
dielectric 37.219
opticaldielectric 1.43
$end

--------------------------------------------------------------

             Standard Nuclear Orientation (Angstroms)
    I     Atom           X                Y                Z
 ----------------------------------------------------------------
    1      O       4.9783680000     0.5779100000    -0.6554320000
    2      C       3.7091930000     0.1172350000    -0.4796150000
    3      C       3.5376510000    -1.2734160000    -0.4198030000
    4      C       2.2722600000    -1.8040310000    -0.2425830000
    5      C       1.1530550000    -0.9691430000    -0.1212770000
    6      C      -0.1921760000    -1.5824740000     0.0683700000
    7      O      -0.3065240000    -2.7964300000     0.1165030000
    8      C      -1.3572090000    -0.6580170000     0.1923920000
    9      C      -2.6578280000    -1.1481230000     0.3723020000
   10      O      -2.8934870000    -2.4824680000     0.4386300000
   11      C      -3.7329750000    -0.2436310000     0.4854700000
   12      C      -3.5447290000     1.1164080000     0.4243950000
   13      C      -2.2541380000     1.6413050000     0.2447340000
   14      O      -2.1348780000     2.9743650000     0.1931810000
   15      C      -1.1590530000     0.7570070000     0.1284930000
   16      C       0.1787870000     1.3307430000    -0.0586160000
   17      O       0.3523140000     2.5596610000    -0.1140830000
   18      C       1.3357520000     0.4181760000    -0.1824880000
   19      C       2.6108120000     0.9619140000    -0.3612750000
   20      H       4.9805270000     1.5411830000    -0.6817470000
   21      H       4.4079120000    -1.9115470000    -0.5144890000
   22      H       2.1211480000    -2.8751010000    -0.1941100000
   23      H      -3.8376510000    -2.6300370000     0.5638720000
   24      H      -4.7354450000    -0.6391240000     0.6246750000
   25      H      -4.3752710000     1.8057700000     0.5121080000
   26      H      -1.1732070000     3.1713630000     0.0646600000
   27      H       2.7167930000     2.0405000000    -0.4042650000
 ----------------------------------------------------------------

    9    -914.7262546162      2.06e-06  Convergence criterion met
 Total energy in the final basis set =     -914.7262546162

                    Orbital Energies (a.u.)
 --------------------------------------------------------------

 Alpha MOs
 -- Occupied --
-19.1717 -19.1703 -19.1621 -19.1393 -19.1202 -10.2888 -10.2784 -10.2652
-10.2651 -10.2621 -10.2109 -10.2107 -10.2104 -10.2041 -10.2007 -10.1994
-10.1974 -10.1959 -10.1945  -1.0924  -1.0869  -1.0839  -1.0609  -1.0567
 -0.8924  -0.8776  -0.8146  -0.7817  -0.7708  -0.7660  -0.6963  -0.6784
 -0.6624  -0.6327  -0.6036  -0.5898  -0.5794  -0.5588  -0.5343  -0.5183
 -0.5036  -0.4905  -0.4849  -0.4679  -0.4622  -0.4556  -0.4533  -0.4451
 -0.4377  -0.4319  -0.4261  -0.4170  -0.4114  -0.4030  -0.3973  -0.3898
 -0.3828  -0.3697  -0.3532  -0.3342  -0.2930  -0.2913  -0.2805  -0.2688
 -0.2532  -0.2344

          Ground-State Mulliken Net Atomic Charges

     Atom                 Charge (a.u.)
  ----------------------------------------
      1 O                    -0.272310
      2 C                    -0.724328
      3 C                    -0.179976
      4 C                     0.173868
      5 C                    -0.255349
      6 C                    -0.379298
      7 O                    -0.311670
      8 C                     0.304934
      9 C                    -0.268307
     10 O                    -0.236665
     11 C                    -0.192057
     12 C                    -0.077279
     13 C                    -0.255513
     14 O                    -0.334309
     15 C                     0.835534
     16 C                    -0.364470
     17 O                    -0.328655
     18 C                     0.456588
     19 C                     0.283654
     20 H                     0.330044
     21 H                     0.246797
     22 H                     0.195998
     23 H                     0.323807
     24 H                     0.229529
     25 H                     0.244462
     26 H                     0.360457
     27 H                     0.194514
  ----------------------------------------
  Sum of atomic charges =     0.000000

                    Cartesian Multipole Moments
 -----------------------------------------------------------------
    Charge (ESU x 10^10)
                 0.0000
    Dipole Moment (Debye)
         X      -1.7579      Y       1.6022      Z       0.1804
       Tot       2.3854
    Quadrupole Moments (Debye-Ang)
        XX     -71.9438     XY      13.0917     YY    -122.3244
        XZ      -5.2968     YZ      -1.3567     ZZ    -109.8037

 Total job time:  55.83s(wall), 361.40s(cpu)
        *  Thank you very much for using Q-Chem.  Have a nice day.  *
