 Gaussian 16, Revision A.03,
 Gaussian 16:  ES64L-G16RevA.03 25-Dec-2016

 ----------------------------------------------------------------
 #P UB3LYP/6-311++G(d,p) SCRF=(PCM,Solvent=n,n-DiMethylFormamide)
 ----------------------------------------------------------------

 ------------------
 Quinone PCM in DMF
 ------------------
 Symbolic Z-matrix:
 Charge =  0 Multiplicity = 1

                         Standard orientation:
 ---------------------------------------------------------------------
 Center     Atomic      Atomic             Coordinates (Angstroms)
 Number     Number       Type             X           Y           Z
 ---------------------------------------------------------------------
      1          6           0        0.531692    2.309253    0.338696
      2          6           0       -0.318751    3.419846   -0.148736
      3          6           0       -1.503889    3.187022   -0.719670
      4          6           0       -2.020126    1.811482   -0.887116
      5          6           0       -1.229925    0.664914   -0.296940
      6          6           0       -0.050892    0.931646    0.296582
      7          8           0        1.665715    2.519317    0.723999
      8          8           0       -3.056763    1.606218   -1.489038
      9         16           0        0.917307   -0.381980    1.131693
     10          6           0        2.385271   -0.593983    0.120507
     11          6           0        2.290515   -1.358741   -1.042257
     12          6           0        3.582393   -0.016943    0.536710
     13          6           0        4.720789   -0.217363   -0.239612
     14          6           0        3.436728   -1.540408   -1.811534
     15          6           0        4.646653   -0.973722   -1.409411
     16          8           0        0.099010   -1.594147    1.004413
     17          8           0        1.293492    0.114870    2.453284
     18          1           0        0.102442    4.413236   -0.042467
     19          1           0       -2.134444    3.974795   -1.116222
     20          1           0        1.345527   -1.801376   -1.333050
     21          1           0        3.609390    0.572401    1.443419
     22          1           0        5.663828    0.217924    0.069279
     23          1           0        3.385147   -2.130671   -2.718766
     24          1           0        5.536422   -1.123385   -2.010543
     25          6           0       -1.818329   -0.725482   -0.620744
     26          8           0       -1.408755   -1.218864   -1.644989
     27          6           0       -2.949562   -1.341126    0.220357
     28          6           0       -3.088056   -0.660889    1.591806
     29          6           0       -4.265591   -1.181555   -0.585170
     30          6           0       -2.666547   -2.849041    0.392533
     31          1           0       -3.316166    0.405917    1.502510
     32          1           0       -2.183445   -0.778533    2.191112
     33          1           0       -3.914585   -1.118754    2.141579
     34          1           0       -4.542818   -0.136617   -0.721291
     35          1           0       -5.068547   -1.688539   -0.042948
     36          1           0       -4.171123   -1.640729   -1.571198
     37          1           0       -1.774325   -3.017776    0.993653
     38          1           0       -2.528654   -3.327926   -0.578308
     39          1           0       -3.521398   -3.316923    0.888793
 ---------------------------------------------------------------------

 SCF Done:  E(UB3LYP) =  -1431.96367455     A.U. after   18 cycles

 The electronic state is 1-A.
 Alpha  occ. eigenvalues --  -89.07929 -19.16434 -19.16018 -19.14767 -19.14434
 Alpha  occ. eigenvalues --  -19.14281 -10.31288 -10.31118 -10.30036 -10.26015
 Alpha  occ. eigenvalues --  -10.25879 -10.23011 -10.22762 -10.22655 -10.20857
 Alpha  occ. eigenvalues --  -10.20706 -10.20688 -10.20059 -10.19844 -10.19809
 Alpha  occ. eigenvalues --  -10.16680 -10.16606 -10.16118  -8.14310  -6.10576
 Alpha  occ. eigenvalues --   -6.10504  -6.10403  -1.14092  -1.09897  -1.09364
 Alpha  occ. eigenvalues --   -1.08393  -1.03660  -0.89364  -0.89005  -0.83524
 Alpha  occ. eigenvalues --   -0.82486  -0.79636  -0.77724  -0.74745  -0.70592
 Alpha  occ. eigenvalues --   -0.69725  -0.69298  -0.67622  -0.64711  -0.63631
 Alpha  occ. eigenvalues --   -0.62236  -0.60363  -0.56354  -0.55976  -0.54711
 Alpha  occ. eigenvalues --   -0.53147  -0.51218  -0.50251  -0.49936  -0.49350
 Alpha  occ. eigenvalues --   -0.49026  -0.47626  -0.47281  -0.46849  -0.46683
 Alpha  occ. eigenvalues --   -0.46106  -0.45059  -0.44638  -0.44463  -0.43912
 Alpha  occ. eigenvalues --   -0.43321  -0.42008  -0.40103  -0.39624  -0.39246
 Alpha  occ. eigenvalues --   -0.38906  -0.38234  -0.37408  -0.37344  -0.36712
 Alpha  occ. eigenvalues --   -0.35665  -0.34329  -0.34029  -0.33973  -0.33430
 Alpha  occ. eigenvalues --   -0.32960  -0.32257  -0.31244  -0.30523  -0.28731
 Alpha  occ. eigenvalues --   -0.28214  -0.27530
 Alpha virt. eigenvalues --   -0.15651  -0.07217  -0.05597  -0.04751  -0.03640
 Alpha virt. eigenvalues --   -0.02763  -0.00827  -0.00074   0.00444   0.01106
 Alpha virt. eigenvalues --    0.01497   0.01793   0.02093   0.02378   0.02800

  Beta  occ. eigenvalues --  -89.07929 -19.16434 -19.16018 -19.14767 -19.14434
  Beta  occ. eigenvalues --  -19.14281 -10.31288 -10.31118 -10.30036 -10.26015
  Beta  occ. eigenvalues --  -10.25879 -10.23011 -10.22762 -10.22655 -10.20857
  Beta  occ. eigenvalues --  -10.20706 -10.20688 -10.20059 -10.19844 -10.19809
  Beta  occ. eigenvalues --  -10.16680 -10.16606 -10.16118  -8.14310  -6.10576
  Beta  occ. eigenvalues --   -6.10504  -6.10403  -1.14092  -1.09897  -1.09364
  Beta  occ. eigenvalues --   -1.08393  -1.03660  -0.89364  -0.89005  -0.83524
  Beta  occ. eigenvalues --   -0.82486  -0.79636  -0.77724  -0.74745  -0.70592
  Beta  occ. eigenvalues --   -0.69725  -0.69298  -0.67622  -0.64711  -0.63631
  Beta  occ. eigenvalues --   -0.62236  -0.60363  -0.56354  -0.55976  -0.54711
  Beta  occ. eigenvalues --   -0.53147  -0.51218  -0.50251  -0.49936  -0.49350
  Beta  occ. eigenvalues --   -0.49026  -0.47626  -0.47281  -0.46849  -0.46683
  Beta  occ. eigenvalues --   -0.46106  -0.45059  -0.44638  -0.44463  -0.43912
  Beta  occ. eigenvalues --   -0.43321  -0.42008  -0.40103  -0.39624  -0.39246
  Beta  occ. eigenvalues --   -0.38906  -0.38234  -0.37408  -0.37344  -0.36712
  Beta  occ. eigenvalues --   -0.35665  -0.34329  -0.34029  -0.33973  -0.33430
  Beta  occ. eigenvalues --   -0.32960  -0.32257  -0.31244  -0.30523  -0.28731
  Beta  occ. eigenvalues --   -0.28214  -0.27530
  Beta virt. eigenvalues --   -0.15651  -0.07217  -0.05597  -0.04751  -0.03640
  Beta virt. eigenvalues --   -0.02763  -0.00827  -0.00074   0.00444   0.01106
  Beta virt. eigenvalues --    0.01497   0.01793   0.02093   0.02378   0.02800

 Mulliken charges and spin densities:
               1          2
     1  C   -0.196344  -0.000000
     2  C   -0.106162   0.000000
     3  C   -0.081643   0.000000
     4  C   -0.428964   0.000000
     5  C    0.568676   0.000000
     6  C    0.040931  -0.000000
     7  O   -0.198348   0.000000
     8  O   -0.179410   0.000000
     9  S    0.274020  -0.000000
    10  C    0.904256   0.000000
    11  C   -0.403898  -0.000000
    12  C   -0.028779   0.000000
    13  C   -0.467078   0.000000
    14  C   -0.565239  -0.000000
    15  C   -0.355984  -0.000000
    16  O   -0.107935   0.000000
    17  O   -0.101056  -0.000000
    18  H    0.262887  -0.000000
    19  H    0.258771  -0.000000
    20  H    0.220121  -0.000000
    21  H    0.264955  -0.000000
    22  H    0.223194   0.000000
    23  H    0.230375   0.000000
    24  H    0.201354  -0.000000
    25  C   -0.190009  -0.000000
    26  O   -0.190173  -0.000000
    27  C    0.241912   0.000000
    28  C   -0.535595  -0.000000
    29  C   -0.547120   0.000000
    30  C   -0.569586  -0.000000
    31  H    0.145131   0.000000
    32  H    0.208831   0.000000
    33  H    0.184687   0.000000
    34  H    0.173852   0.000000
    35  H    0.164141  -0.000000
    36  H    0.182790  -0.000000
    37  H    0.158190   0.000000
    38  H    0.171199  -0.000000
    39  H    0.173051   0.000000
 Sum of Mulliken charges =  -0.00000  -0.00000

 Dipole moment (field-independent basis, Debye):
    X=              0.9796    Y=              3.5291    Z=             -2.4063  Tot=              4.3823
 Quadrupole moment (field-independent basis, Debye-Ang):
   XX=           -123.5577   YY=           -131.4088   ZZ=           -154.3837
   XY=             -6.8044   XZ=            -18.2561   YZ=              0.2313

 Normal termination of Gaussian 16 at Wed Jan 24 23:02:14 2024.
