 Q-Chem 5.4, Q-Chem, Inc., Pleasanton, CA (2021)
 Q-Chem 5.4.0 for Intel X86 EM64T Linux

User input:
--------------------------------------------------------------
$molecule
-2 1
C                  4.9615910000     -3.5701580000     -3.0941430000
O                  4.1232950000     -2.6989240000     -2.3841640000
C                  4.5938230000     -2.1192800000     -1.2278190000
C                  5.8599980000     -2.3900960000     -0.7512440000
C                  6.3281450000     -1.7856330000      0.4498560000
C                  5.5144060000     -0.9284590000      1.1393000000
C                  4.2045570000     -0.6221920000      0.6832650000
C                  3.4160970000      0.2843950000      1.4605980000
O                  3.8798330000      0.8185160000      2.5615560000
C                  2.0968740000      0.5828920000      0.9936540000
C                  1.2715040000      1.4756020000      1.7610430000
O                  1.7686020000      2.0262210000      2.9089120000
C                 -0.0026020000      1.7714100000      1.3342070000
C                 -0.9192850000      2.6622940000      2.1339700000
C                 -1.4660820000      3.7472310000      1.2117700000
O                 -2.3768340000      4.6488730000      1.9158420000
C                 -2.2458930000      3.1296900000      0.0396460000
C                 -1.8887910000      1.6703880000     -0.3159700000
O                 -2.9720950000      0.8402000000      0.2857200000
C                 -2.9933560000     -0.4506780000     -0.2289370000
C                 -2.5925120000     -1.5025200000      0.8015520000
C                 -2.6897340000     -2.9157670000      0.1885500000
N                 -1.6552010000     -3.1996920000     -0.8247380000
C                 -4.0940790000     -3.1064050000     -0.4323880000
O                 -5.1055000000     -3.1703370000      0.5867300000
C                 -4.3971490000     -1.9569870000     -1.4071220000
C                 -5.7587110000     -2.0539380000     -2.0810780000
O                 -4.3505670000     -0.7225060000     -0.6810970000
C                 -0.5188620000      1.2328490000      0.1130170000
C                  0.2173170000      0.3156480000     -0.6530540000
O                 -0.2832280000     -0.2734970000     -1.7205250000
C                  1.5814680000     -0.0040620000     -0.2109570000
C                  2.3867320000     -0.8939780000     -0.9736380000
O                  1.8851590000     -1.4162460000     -2.1274600000
C                  3.6947230000     -1.2189150000     -0.5393450000
C                 -0.3279430000      4.6844850000      0.7294310000
O                 -0.2959570000      5.1622830000     -0.3899920000
C                  0.7348590000      5.1363720000      1.7292820000
O                  1.4858610000      6.2151790000      1.1992920000
H                  4.3863900000     -3.8944340000     -3.9638660000
H                  5.2439960000     -4.4528410000     -2.5009180000
H                  5.8824760000     -3.0746400000     -3.4361460000
H                  6.5130440000     -3.0682310000     -1.2852050000
H                  7.3295860000     -2.0140490000      0.8049700000
H                  5.8324290000     -0.4481030000      2.0568710000
H                  2.7288490000      1.6233650000      2.9634200000
H                 -0.3786000000      3.0894610000      2.9835380000
H                 -1.7777260000      2.1012560000      2.5297070000
H                 -2.0900070000      4.6750860000      2.8349850000
H                 -2.1039750000      3.7563100000     -0.8425740000
H                 -3.3042560000      3.1614090000      0.3040960000
H                 -1.9781720000      1.5340320000     -1.3961300000
H                 -2.3347760000     -0.5065820000     -1.1019500000
H                 -1.5711020000     -1.2992320000      1.1309610000
H                 -3.2493450000     -1.4008780000      1.6743090000
H                 -2.5990770000     -3.6644990000      0.9820630000
H                 -1.2995540000     -2.3428460000     -1.2547180000
H                 -0.8453740000     -3.6170220000     -0.3794640000
H                 -4.1207240000     -4.0657880000     -0.9547240000
H                 -5.2408530000     -2.2595840000      0.8806390000
H                 -3.6132370000     -1.9546060000     -2.1774010000
H                 -5.8207890000     -2.9684260000     -2.6795690000
H                 -5.9090150000     -1.1934190000     -2.7376720000
H                 -6.5605100000     -2.0728380000     -1.3396350000
H                  0.9440520000     -1.0366550000     -2.1777190000
H                  0.2521400000      5.4606860000      2.6594550000
H                  1.3789170000      4.2828310000      1.9780940000
H                  1.2347540000      6.2459930000      0.2610610000
$end
$rem
MAX_SCF_CYCLES=200
BASIS  =  6-311++G(d,p)
GUI  =  2
JOB_TYPE  =  SP
METHOD  =  B3LYP
SCF_ALGORITHM = DIIS_GDM
THRESH = 14
SOLVENT_METHOD = PCM
$end
$pcm
theory = CPCM
$end
$solvent
dielectric 37.219
opticaldielectric 1.43
$end

--------------------------------------------------------------

             Standard Nuclear Orientation (Angstroms)
    I     Atom           X                Y                Z
 ----------------------------------------------------------------
    1      C       4.9615910000    -3.5701580000    -3.0941430000
    2      O       4.1232950000    -2.6989240000    -2.3841640000
    3      C       4.5938230000    -2.1192800000    -1.2278190000
    4      C       5.8599980000    -2.3900960000    -0.7512440000
    5      C       6.3281450000    -1.7856330000     0.4498560000
    6      C       5.5144060000    -0.9284590000     1.1393000000
    7      C       4.2045570000    -0.6221920000     0.6832650000
    8      C       3.4160970000     0.2843950000     1.4605980000
    9      O       3.8798330000     0.8185160000     2.5615560000
   10      C       2.0968740000     0.5828920000     0.9936540000
   11      C       1.2715040000     1.4756020000     1.7610430000
   12      O       1.7686020000     2.0262210000     2.9089120000
   13      C      -0.0026020000     1.7714100000     1.3342070000
   14      C      -0.9192850000     2.6622940000     2.1339700000
   15      C      -1.4660820000     3.7472310000     1.2117700000
   16      O      -2.3768340000     4.6488730000     1.9158420000
   17      C      -2.2458930000     3.1296900000     0.0396460000
   18      C      -1.8887910000     1.6703880000    -0.3159700000
   19      O      -2.9720950000     0.8402000000     0.2857200000
   20      C      -2.9933560000    -0.4506780000    -0.2289370000
   21      C      -2.5925120000    -1.5025200000     0.8015520000
   22      C      -2.6897340000    -2.9157670000     0.1885500000
   23      N      -1.6552010000    -3.1996920000    -0.8247380000
   24      C      -4.0940790000    -3.1064050000    -0.4323880000
   25      O      -5.1055000000    -3.1703370000     0.5867300000
   26      C      -4.3971490000    -1.9569870000    -1.4071220000
   27      C      -5.7587110000    -2.0539380000    -2.0810780000
   28      O      -4.3505670000    -0.7225060000    -0.6810970000
   29      C      -0.5188620000     1.2328490000     0.1130170000
   30      C       0.2173170000     0.3156480000    -0.6530540000
   31      O      -0.2832280000    -0.2734970000    -1.7205250000
   32      C       1.5814680000    -0.0040620000    -0.2109570000
   33      C       2.3867320000    -0.8939780000    -0.9736380000
   34      O       1.8851590000    -1.4162460000    -2.1274600000
   35      C       3.6947230000    -1.2189150000    -0.5393450000
   36      C      -0.3279430000     4.6844850000     0.7294310000
   37      O      -0.2959570000     5.1622830000    -0.3899920000
   38      C       0.7348590000     5.1363720000     1.7292820000
   39      O       1.4858610000     6.2151790000     1.1992920000
   40      H       4.3863900000    -3.8944340000    -3.9638660000
   41      H       5.2439960000    -4.4528410000    -2.5009180000
   42      H       5.8824760000    -3.0746400000    -3.4361460000
   43      H       6.5130440000    -3.0682310000    -1.2852050000
   44      H       7.3295860000    -2.0140490000     0.8049700000
   45      H       5.8324290000    -0.4481030000     2.0568710000
   46      H       2.7288490000     1.6233650000     2.9634200000
   47      H      -0.3786000000     3.0894610000     2.9835380000
   48      H      -1.7777260000     2.1012560000     2.5297070000
   49      H      -2.0900070000     4.6750860000     2.8349850000
   50      H      -2.1039750000     3.7563100000    -0.8425740000
   51      H      -3.3042560000     3.1614090000     0.3040960000
   52      H      -1.9781720000     1.5340320000    -1.3961300000
   53      H      -2.3347760000    -0.5065820000    -1.1019500000
   54      H      -1.5711020000    -1.2992320000     1.1309610000
   55      H      -3.2493450000    -1.4008780000     1.6743090000
   56      H      -2.5990770000    -3.6644990000     0.9820630000
   57      H      -1.2995540000    -2.3428460000    -1.2547180000
   58      H      -0.8453740000    -3.6170220000    -0.3794640000
   59      H      -4.1207240000    -4.0657880000    -0.9547240000
   60      H      -5.2408530000    -2.2595840000     0.8806390000
   61      H      -3.6132370000    -1.9546060000    -2.1774010000
   62      H      -5.8207890000    -2.9684260000    -2.6795690000
   63      H      -5.9090150000    -1.1934190000    -2.7376720000
   64      H      -6.5605100000    -2.0728380000    -1.3396350000
   65      H       0.9440520000    -1.0366550000    -2.1777190000
   66      H       0.2521400000     5.4606860000     2.6594550000
   67      H       1.3789170000     4.2828310000     1.9780940000
   68      H       1.2347540000     6.2459930000     0.2610610000
 ----------------------------------------------------------------

   16   -1929.3814282704      4.46e-06  Convergence criterion met
 Total energy in the final basis set =    -1929.3814282704

                    Orbital Energies (a.u.)
 --------------------------------------------------------------

 Alpha MOs
 -- Occupied --
-19.1423 -19.1379 -19.1358 -19.1264 -19.1237 -19.1217 -19.1187 -19.0991
-19.0984 -19.0547 -19.0518 -14.2863 -10.2739 -10.2505 -10.2420 -10.2267
-10.2233 -10.2165 -10.2159 -10.2115 -10.2087 -10.2061 -10.2002 -10.1990
-10.1977 -10.1944 -10.1669 -10.1667 -10.1621 -10.1579 -10.1573 -10.1559
-10.1545 -10.1543 -10.1539 -10.1535 -10.1503 -10.1498 -10.1382  -1.0778
 -1.0606  -1.0586  -1.0320  -1.0247  -1.0223  -1.0211  -1.0187  -0.9991
 -0.9635  -0.9581  -0.8812  -0.8453  -0.8354  -0.8053  -0.7733  -0.7644
 -0.7570  -0.7494  -0.7437  -0.7288  -0.7151  -0.7015  -0.6892  -0.6824
 -0.6549  -0.6532  -0.6265  -0.6206  -0.6091  -0.6001  -0.5869  -0.5648
 -0.5607  -0.5574  -0.5495  -0.5323  -0.5274  -0.5157  -0.5108  -0.5057
 -0.4994  -0.4941  -0.4919  -0.4845  -0.4816  -0.4742  -0.4691  -0.4626
 -0.4602  -0.4598  -0.4584  -0.4482  -0.4450  -0.4388  -0.4367  -0.4285
 -0.4256  -0.4149  -0.4110  -0.4094  -0.4016  -0.3997  -0.3960  -0.3941
 -0.3923  -0.3887  -0.3870  -0.3851  -0.3815  -0.3777  -0.3737  -0.3714
 -0.3671  -0.3630  -0.3575  -0.3562  -0.3554  -0.3517  -0.3479  -0.3429
 -0.3393  -0.3384  -0.3302  -0.3285  -0.3259  -0.3204  -0.3162  -0.3122
 -0.3046  -0.3037  -0.2921  -0.2859  -0.2749  -0.2714  -0.2642  -0.2523
 -0.2469  -0.2395  -0.2350  -0.2259  -0.2201  -0.2182  -0.1812  -0.1277

          Ground-State Mulliken Net Atomic Charges

     Atom                 Charge (a.u.)
  ----------------------------------------
      1 C                    -0.275804
      2 O                    -0.194629
      3 C                    -0.043935
      4 C                    -0.001885
      5 C                    -0.469648
      6 C                    -0.255773
      7 C                     0.276001
      8 C                    -0.610416
      9 O                    -0.624865
     10 C                     0.228257
     11 C                    -0.279728
     12 O                    -0.497085
     13 C                     0.441055
     14 C                    -0.419262
     15 C                    -0.199660
     16 O                    -0.223028
     17 C                    -0.640595
     18 C                    -0.238045
     19 O                    -0.045276
     20 C                    -0.221483
     21 C                    -0.550539
     22 C                    -0.099368
     23 N                    -0.495943
     24 C                    -0.242573
     25 O                    -0.253673
     26 C                    -0.324613
     27 C                    -0.476364
     28 O                    -0.095491
     29 C                     0.244853
     30 C                    -0.315704
     31 O                    -0.565650
     32 C                     0.424217
     33 C                    -0.464690
     34 O                    -0.492607
     35 C                     0.166050
     36 C                    -0.139067
     37 O                    -0.292922
     38 C                    -0.426478
     39 O                    -0.319855
     40 H                     0.192113
     41 H                     0.159404
     42 H                     0.160794
     43 H                     0.188284
     44 H                     0.194880
     45 H                     0.161467
     46 H                     0.420363
     47 H                     0.220398
     48 H                     0.243881
     49 H                     0.316981
     50 H                     0.218322
     51 H                     0.214157
     52 H                     0.225920
     53 H                     0.420705
     54 H                     0.151659
     55 H                     0.191176
     56 H                     0.261837
     57 H                     0.257298
     58 H                     0.297067
     59 H                     0.240979
     60 H                     0.293755
     61 H                     0.169173
     62 H                     0.169199
     63 H                     0.158983
     64 H                     0.163568
     65 H                     0.490059
     66 H                     0.229573
     67 H                     0.315320
     68 H                     0.288903
  ----------------------------------------
  Sum of atomic charges =    -2.000000

                    Cartesian Multipole Moments
 -----------------------------------------------------------------
    Charge (ESU x 10^10)
                -9.6064
    Dipole Moment (Debye)
         X      -9.6294      Y      -6.6875      Z      -2.3609
       Tot      11.9591
    Quadrupole Moments (Debye-Ang)
        XX    -336.7317     XY     -23.8147     YY    -303.9281
        XZ     -28.5655     YZ      -6.8492     ZZ    -264.6869

 Total job time:  1496.84s(wall), 10828.28s(cpu)
        *  Thank you very much for using Q-Chem.  Have a nice day.  *
