 Gaussian 16, Revision A.03,
 Gaussian 16:  ES64L-G16RevA.03 25-Dec-2016

 ----------------------------------------------------------------
 #P UB3LYP/6-311++G(d,p) SCRF=(PCM,Solvent=n,n-DiMethylFormamide)
 ----------------------------------------------------------------

 -------
 Reduced
 -------
 Symbolic Z-matrix:
 Charge = -2 Multiplicity = 1

                         Standard orientation:
 ---------------------------------------------------------------------
 Center     Atomic      Atomic             Coordinates (Angstroms)
 Number     Number       Type             X           Y           Z
 ---------------------------------------------------------------------
      1          6           0        5.365978   -3.919207   -1.739540
      2          8           0        4.385063   -2.989731   -1.365720
      3          6           0        4.729546   -1.968067   -0.510119
      4          6           0        6.008807   -1.852395   -0.006358
      5          6           0        6.345915   -0.792139    0.882120
      6          6           0        5.391973    0.120753    1.241110
      7          6           0        4.063579    0.038435    0.745062
      8          6           0        3.124642    1.032309    1.167471
      9          8           0        3.470899    1.991096    1.988006
     10          6           0        1.788475    0.937481    0.664327
     11          6           0        0.815475    1.909367    1.083567
     12          8           0        1.190882    2.905322    1.940908
     13          6           0       -0.476804    1.833394    0.617435
     14          6           0       -1.540607    2.801313    1.070270
     15          6           0       -2.221856    3.384311   -0.163642
     16          8           0       -3.278842    4.328584    0.195908
     17          6           0       -2.865617    2.274865   -1.011013
     18          6           0       -2.279583    0.858276   -0.828294
     19          8           0       -3.238876    0.145444    0.064128
     20          6           0       -3.048069   -1.231169    0.049320
     21          6           0       -2.519015   -1.767004    1.376701
     22          6           0       -2.381815   -3.303247    1.316501
     23          7           0       -1.288781   -3.771435    0.442601
     24          6           0       -3.722926   -3.916694    0.848317
     25          8           0       -4.739989   -3.763029    1.852124
     26          6           0       -4.171866   -3.256052   -0.465123
     27          6           0       -5.483626   -3.795831   -1.017747
     28          8           0       -4.334777   -1.851374   -0.233677
     29          6           0       -0.870990    0.819211   -0.312042
     30          6           0        0.017622   -0.188358   -0.718556
     31          8           0       -0.357477   -1.191350   -1.486957
     32          6           0        1.402096   -0.115141   -0.232303
     33          6           0        2.354679   -1.085830   -0.647552
     34          8           0        1.970670   -2.058518   -1.520512
     35          6           0        3.684691   -1.028807   -0.165005
     36          6           0       -1.228052    4.247027   -0.984941
     37          8           0       -1.239171    4.288605   -2.201727
     38          6           0       -0.274674    5.185195   -0.247131
     39          8           0        0.316320    6.101923   -1.152148
     40          1           0        4.871162   -4.618625   -2.416593
     41          1           0        5.764028   -4.474876   -0.877226
     42          1           0        6.209035   -3.445687   -2.264484
     43          1           0        6.772346   -2.569062   -0.279941
     44          1           0        7.360480   -0.721598    1.265326
     45          1           0        5.607526    0.941780    1.914362
     46          1           0        2.199671    2.700794    2.107795
     47          1           0       -1.095103    3.582901    1.692544
     48          1           0       -2.313406    2.296374    1.667020
     49          1           0       -3.024563    4.727442    1.034976
     50          1           0       -2.797408    2.555602   -2.063458
     51          1           0       -3.923149    2.237676   -0.743965
     52          1           0       -2.317558    0.330220   -1.783827
     53          1           0       -2.365166   -1.496394   -0.764500
     54          1           0       -1.550171   -1.305348    1.579997
     55          1           0       -3.207193   -1.459509    2.173772
     56          1           0       -2.199156   -3.692798    2.323162
     57          1           0       -1.057041   -3.083347   -0.277387
     58          1           0       -0.437006   -3.871556    0.983627
     59          1           0       -3.588020   -4.991801    0.707231
     60          1           0       -5.021246   -2.839659    1.802568
     61          1           0       -3.376887   -3.411508   -1.207885
     62          1           0       -5.388526   -4.862448   -1.244938
     63          1           0       -5.746062   -3.263206   -1.935155
     64          1           0       -6.292957   -3.668691   -0.295393
     65          1           0        0.984237   -1.870950   -1.675641
     66          1           0       -0.826541    5.744884    0.518120
     67          1           0        0.485540    4.587559    0.272635
     68          1           0        0.089108    5.754131   -2.030611
 ---------------------------------------------------------------------

 SCF Done:  E(UB3LYP) =  -1929.36627486     A.U. after   16 cycles

 The electronic state is 1-A.
 Alpha  occ. eigenvalues --  -19.14189 -19.13925 -19.13895 -19.12783 -19.12453
 Alpha  occ. eigenvalues --  -19.12380 -19.11772 -19.09662 -19.09461 -19.05117
 Alpha  occ. eigenvalues --  -19.04895 -14.28809 -10.27511 -10.25135 -10.24383
 Alpha  occ. eigenvalues --  -10.22648 -10.22597 -10.21932 -10.21587 -10.21426
 Alpha  occ. eigenvalues --  -10.21226 -10.20357 -10.19810 -10.19710 -10.19643
 Alpha  occ. eigenvalues --  -10.19608 -10.16896 -10.16504 -10.16353 -10.15832
 Alpha  occ. eigenvalues --  -10.15761 -10.15745 -10.15494 -10.15447 -10.15248
 Alpha  occ. eigenvalues --  -10.15113 -10.14916 -10.14896 -10.13660  -1.07888
 Alpha  occ. eigenvalues --   -1.06030  -1.05904  -1.03531  -1.02627  -1.02388
 Alpha  occ. eigenvalues --   -1.01760  -1.01587  -0.99948  -0.95996  -0.95516
 Alpha  occ. eigenvalues --   -0.88335  -0.84393  -0.83522  -0.80426  -0.77520
 Alpha  occ. eigenvalues --   -0.76387  -0.75911  -0.74909  -0.74512  -0.72846
 Alpha  occ. eigenvalues --   -0.71602  -0.70061  -0.69154  -0.68291  -0.65522
 Alpha  occ. eigenvalues --   -0.65261  -0.62642  -0.62168  -0.61114  -0.59965
 Alpha  occ. eigenvalues --   -0.58710  -0.56579  -0.56048  -0.55707  -0.55074
 Alpha  occ. eigenvalues --   -0.53200  -0.52921  -0.51742  -0.51052  -0.50527
 Alpha  occ. eigenvalues --   -0.50000  -0.49519  -0.49329  -0.48433  -0.48087
 Alpha  occ. eigenvalues --   -0.47538  -0.47084  -0.46463  -0.46168  -0.46042
 Alpha  occ. eigenvalues --   -0.45776  -0.44918  -0.44516  -0.43933  -0.43846
 Alpha  occ. eigenvalues --   -0.42896  -0.42529  -0.41426  -0.41003  -0.40854
 Alpha  occ. eigenvalues --   -0.40179  -0.40095  -0.39742  -0.39556  -0.39276
 Alpha  occ. eigenvalues --   -0.38994  -0.38766  -0.38457  -0.38224  -0.37872
 Alpha  occ. eigenvalues --   -0.37295  -0.37145  -0.36613  -0.36164  -0.35921
 Alpha  occ. eigenvalues --   -0.35644  -0.35560  -0.35206  -0.34782  -0.34220
 Alpha  occ. eigenvalues --   -0.33921  -0.33734  -0.33112  -0.32748  -0.32521
 Alpha  occ. eigenvalues --   -0.32091  -0.31727  -0.31233  -0.30348  -0.30281
 Alpha  occ. eigenvalues --   -0.29344  -0.28725  -0.27405  -0.26945  -0.26540
 Alpha  occ. eigenvalues --   -0.25251  -0.24510  -0.24000  -0.23189  -0.22456
 Alpha  occ. eigenvalues --   -0.21849  -0.21536  -0.17860  -0.12531
 Alpha virt. eigenvalues --   -0.04244  -0.02307  -0.00891  -0.00582  -0.00074
 Alpha virt. eigenvalues --    0.00085   0.00692   0.00849   0.01073   0.01525
 Alpha virt. eigenvalues --    0.01855   0.02212   0.02973   0.03115   0.03413

  Beta  occ. eigenvalues --  -19.14189 -19.13925 -19.13895 -19.12783 -19.12453
  Beta  occ. eigenvalues --  -19.12380 -19.11772 -19.09662 -19.09461 -19.05117
  Beta  occ. eigenvalues --  -19.04895 -14.28809 -10.27511 -10.25135 -10.24383
  Beta  occ. eigenvalues --  -10.22648 -10.22597 -10.21932 -10.21587 -10.21426
  Beta  occ. eigenvalues --  -10.21226 -10.20357 -10.19810 -10.19710 -10.19643
  Beta  occ. eigenvalues --  -10.19608 -10.16896 -10.16504 -10.16353 -10.15832
  Beta  occ. eigenvalues --  -10.15761 -10.15745 -10.15494 -10.15447 -10.15248
  Beta  occ. eigenvalues --  -10.15113 -10.14916 -10.14896 -10.13660  -1.07888
  Beta  occ. eigenvalues --   -1.06030  -1.05904  -1.03531  -1.02627  -1.02388
  Beta  occ. eigenvalues --   -1.01760  -1.01587  -0.99948  -0.95996  -0.95516
  Beta  occ. eigenvalues --   -0.88335  -0.84393  -0.83522  -0.80426  -0.77520
  Beta  occ. eigenvalues --   -0.76387  -0.75911  -0.74909  -0.74512  -0.72846
  Beta  occ. eigenvalues --   -0.71602  -0.70061  -0.69154  -0.68291  -0.65522
  Beta  occ. eigenvalues --   -0.65261  -0.62642  -0.62168  -0.61114  -0.59965
  Beta  occ. eigenvalues --   -0.58710  -0.56579  -0.56048  -0.55707  -0.55074
  Beta  occ. eigenvalues --   -0.53200  -0.52921  -0.51742  -0.51052  -0.50527
  Beta  occ. eigenvalues --   -0.50000  -0.49519  -0.49329  -0.48433  -0.48087
  Beta  occ. eigenvalues --   -0.47538  -0.47084  -0.46463  -0.46168  -0.46042
  Beta  occ. eigenvalues --   -0.45776  -0.44918  -0.44516  -0.43933  -0.43846
  Beta  occ. eigenvalues --   -0.42896  -0.42529  -0.41426  -0.41003  -0.40854
  Beta  occ. eigenvalues --   -0.40179  -0.40095  -0.39742  -0.39556  -0.39276
  Beta  occ. eigenvalues --   -0.38994  -0.38766  -0.38457  -0.38224  -0.37872
  Beta  occ. eigenvalues --   -0.37295  -0.37145  -0.36613  -0.36164  -0.35921
  Beta  occ. eigenvalues --   -0.35644  -0.35560  -0.35206  -0.34782  -0.34220
  Beta  occ. eigenvalues --   -0.33921  -0.33734  -0.33112  -0.32748  -0.32521
  Beta  occ. eigenvalues --   -0.32091  -0.31727  -0.31233  -0.30348  -0.30281
  Beta  occ. eigenvalues --   -0.29344  -0.28725  -0.27405  -0.26945  -0.26540
  Beta  occ. eigenvalues --   -0.25251  -0.24510  -0.24000  -0.23189  -0.22456
  Beta  occ. eigenvalues --   -0.21849  -0.21536  -0.17860  -0.12531
  Beta virt. eigenvalues --   -0.04244  -0.02307  -0.00891  -0.00582  -0.00074
  Beta virt. eigenvalues --    0.00085   0.00692   0.00849   0.01073   0.01525
  Beta virt. eigenvalues --    0.01855   0.02212   0.02973   0.03115   0.03413

 Mulliken charges and spin densities:
               1          2
     1  C   -0.253317   0.000000
     2  O   -0.181971  -0.000000
     3  C   -0.040288   0.000000
     4  C    0.001433   0.000000
     5  C   -0.478234  -0.000000
     6  C   -0.244427  -0.000000
     7  C    0.302070  -0.000000
     8  C   -0.647046  -0.000000
     9  O   -0.604362   0.000000
    10  C    0.231159   0.000000
    11  C   -0.291796   0.000000
    12  O   -0.481735  -0.000000
    13  C    0.473757  -0.000000
    14  C   -0.415067   0.000000
    15  C   -0.248288   0.000000
    16  O   -0.196085  -0.000000
    17  C   -0.608507   0.000000
    18  C   -0.226769  -0.000000
    19  O   -0.022061  -0.000000
    20  C   -0.263230  -0.000000
    21  C   -0.498214   0.000000
    22  C   -0.167981  -0.000000
    23  N   -0.443626  -0.000000
    24  C   -0.210818  -0.000000
    25  O   -0.228824   0.000000
    26  C   -0.325409   0.000000
    27  C   -0.440684  -0.000000
    28  O   -0.081550  -0.000000
    29  C    0.238378  -0.000000
    30  C   -0.339649   0.000000
    31  O   -0.540144  -0.000000
    32  C    0.417039  -0.000000
    33  C   -0.473037  -0.000000
    34  O   -0.478981   0.000000
    35  C    0.183358  -0.000000
    36  C   -0.172205  -0.000000
    37  O   -0.281144  -0.000000
    38  C   -0.396065   0.000000
    39  O   -0.302959  -0.000000
    40  H    0.183956   0.000000
    41  H    0.149993  -0.000000
    42  H    0.151714  -0.000000
    43  H    0.167047   0.000000
    44  H    0.178175  -0.000000
    45  H    0.157175   0.000000
    46  H    0.417145   0.000000
    47  H    0.208642   0.000000
    48  H    0.234274   0.000000
    49  H    0.297348   0.000000
    50  H    0.212643  -0.000000
    51  H    0.209493   0.000000
    52  H    0.217126   0.000000
    53  H    0.414923  -0.000000
    54  H    0.146836  -0.000000
    55  H    0.176122   0.000000
    56  H    0.250095   0.000000
    57  H    0.248267  -0.000000
    58  H    0.283422   0.000000
    59  H    0.231285   0.000000
    60  H    0.279831   0.000000
    61  H    0.154328   0.000000
    62  H    0.161464  -0.000000
    63  H    0.153889  -0.000000
    64  H    0.158508   0.000000
    65  H    0.489061   0.000000
    66  H    0.207161  -0.000000
    67  H    0.320219  -0.000000
    68  H    0.277137  -0.000000
 Sum of Mulliken charges =  -2.00000   0.00000

 Dipole moment (field-independent basis, Debye):
    X=             -6.9317    Y=             -5.8203    Z=              0.1703  Tot=              9.0528
 Quadrupole moment (field-independent basis, Debye-Ang):
   XX=           -327.6690   YY=           -311.6378   ZZ=           -264.2696
   XY=            -30.3866   XZ=            -16.6044   YZ=              5.7274

 Normal termination of Gaussian 16 at Mon Jan 22 19:10:37 2024.
