 Q-Chem 5.4, Q-Chem, Inc., Pleasanton, CA (2021)
 Q-Chem 5.4.0 for Intel X86 EM64T Linux

User input:
--------------------------------------------------------------
$molecule
-1 2
C                 -3.9435770000      0.9544450000      0.9299830000
C                 -3.2770390000     -0.0758630000     -0.0124110000
C                 -3.4728970000     -1.4751540000      0.5988300000
C                 -3.9969000000     -0.0477990000     -1.3817330000
C                 -1.7918630000      0.2787180000     -0.2003570000
C                 -1.4365540000      1.5404060000     -0.7535350000
C                 -0.1180180000      1.8951880000     -0.9372190000
C                  0.9356550000      1.0239870000     -0.5855120000
C                  2.3212120000      1.4413970000     -0.7974080000
O                  2.6131140000      2.5614630000     -1.2871080000
C                  3.3482170000      0.4738670000     -0.4038650000
C                  4.7102340000      0.8047990000     -0.5778440000
C                  5.7127220000     -0.0750460000     -0.2217260000
C                  5.3816720000     -1.3336170000      0.3282980000
C                  4.0573900000     -1.6794810000      0.5079340000
C                  3.0137730000     -0.7963980000      0.1514390000
C                  1.6247450000     -1.2099270000      0.3619770000
O                  1.3309120000     -2.3303670000      0.8518690000
C                  0.6002400000     -0.2417940000     -0.0316600000
C                 -0.7623710000     -0.5782200000      0.1453930000
H                 -5.0060570000      0.7211030000      1.0672620000
H                 -3.4612680000      0.9455760000      1.9115320000
H                 -3.8706370000      1.9701720000      0.5338290000
H                 -3.0453910000     -2.2556410000     -0.0357360000
H                 -4.5422870000     -1.6822620000      0.7137940000
H                 -3.0071850000     -1.5532120000      1.5845520000
H                 -3.9255730000      0.9344210000     -1.8551300000
H                 -5.0598490000     -0.2894550000     -1.2638770000
H                 -3.5530970000     -0.7782320000     -2.0640990000
H                 -2.2119210000      2.2444400000     -1.0396640000
H                  0.1499780000      2.8574450000     -1.3588210000
H                  4.9342970000      1.7769550000     -1.0020190000
H                  6.7543450000      0.1981300000     -0.3634300000
H                  6.1692670000     -2.0269570000      0.6089050000
H                  3.7745200000     -2.6380950000      0.9276610000
H                 -0.9498100000     -1.5549910000      0.5713850000
$end
$rem
MAX_SCF_CYCLES=200
BASIS  =  6-311++G(d,p)
GUI  =  2
JOB_TYPE  =  SP
METHOD  =  B3LYP
SOLVENT_METHOD = COSMO
$end
$solvent
dielectric 37.219
opticaldielectric 1.43
$end

--------------------------------------------------------------

             Standard Nuclear Orientation (Angstroms)
    I     Atom           X                Y                Z
 ----------------------------------------------------------------
    1      C      -4.6404716026     0.2551794979     1.2591267365
    2      C      -3.9285782892    -0.2947519292     0.0002791415
    3      C      -4.0746842262    -1.8272779077     0.0031772666
    4      C      -4.6397868866     0.2504402602    -1.2610606203
    5      C      -2.4568776966     0.1534626803    -0.0001270007
    6      C      -2.1465502257     1.5419162820    -0.0007986925
    7      C      -0.8413994119     1.9831969358    -0.0007734928
    8      C       0.2425502467     1.0787806972    -0.0003353624
    9      C       1.6124568131     1.5908891779     0.0000203030
   10      O       1.8644349454     2.8221761887     0.0001926572
   11      C       2.6731751053     0.5806385404     0.0001534711
   12      C       4.0226241471     0.9976062807     0.0005737915
   13      C       5.0557298279     0.0818431587     0.0005449750
   14      C       4.7695444650    -1.3017099415     0.0000737798
   15      C       3.4583369024    -1.7333908785    -0.0002592743
   16      C       2.3840117069    -0.8158473758    -0.0001733326
   17      C       1.0104969364    -1.3239698254    -0.0003131596
   18      O       0.7566023361    -2.5557389981    -0.0004986016
   19      C      -0.0477457656    -0.3130472434    -0.0002404423
   20      C      -1.3975981206    -0.7362936607    -0.0000268048
   21      H      -5.6941102843    -0.0479439633     1.2700564601
   22      H      -4.1647708475    -0.1264001902     2.1670060255
   23      H      -4.6039122088     1.3465173744     1.2991844940
   24      H      -3.6132934969    -2.2778376892    -0.8792680993
   25      H      -5.1360848304    -2.0977103518     0.0038610136
   26      H      -3.6129404968    -2.2745315398     0.8871373882
   27      H      -4.6030353201     1.3416084758    -1.3052153093
   28      H      -5.6934448807    -0.0526256832    -1.2712636155
   29      H      -4.1637119641    -0.1347143302    -2.1672203401
   30      H      -2.9464293678     2.2760285291    -0.0012775664
   31      H      -0.6077093609     3.0419214052    -0.0010809974
   32      H       4.2120519010     2.0650016976     0.0008849424
   33      H       6.0870282571     0.4225880232     0.0008796095
   34      H       5.5812689370    -2.0234231122    -0.0000210799
   35      H       3.2096569059    -2.7885141737    -0.0005484513
   36      H      -1.5502647494    -1.8074504896     0.0002853831
 ----------------------------------------------------------------

    9    -846.3153073268      8.20e-06  Convergence criterion met
 Total energy in the final basis set =     -846.3153073268
    4    -846.3979887480      7.08e-06  Convergence criterion met
 Total energy in the final basis set =     -846.3979887480

                    Orbital Energies (a.u.)
 --------------------------------------------------------------

 Alpha MOs
 -- Occupied --
-19.0799 -19.0791 -10.2262 -10.2254 -10.1863 -10.1784 -10.1731 -10.1726
-10.1724 -10.1719 -10.1716 -10.1703 -10.1695 -10.1694 -10.1692 -10.1682
-10.1643 -10.1528 -10.1527 -10.1507  -1.0067  -1.0043  -0.8637  -0.8536
 -0.8162  -0.7767  -0.7512  -0.7467  -0.7322  -0.6828  -0.6811  -0.6655
 -0.6374  -0.6168  -0.5868  -0.5593  -0.5546  -0.5296  -0.5087  -0.4754
 -0.4672  -0.4582  -0.4544  -0.4361  -0.4281  -0.4259  -0.4231  -0.4221
 -0.4196  -0.4128  -0.4038  -0.3912  -0.3879  -0.3840  -0.3728  -0.3633
 -0.3605  -0.3593  -0.3484  -0.3408  -0.3366  -0.3247  -0.3211  -0.3152
 -0.2674  -0.2583  -0.2548  -0.2506  -0.2431  -0.2404  -0.1435

 Beta MOs
 -- Occupied --
-19.0745 -19.0737 -10.2244 -10.2235 -10.1863 -10.1779 -10.1723 -10.1719
-10.1718 -10.1714 -10.1708 -10.1696 -10.1695 -10.1694 -10.1688 -10.1681
-10.1642 -10.1527 -10.1527 -10.1507  -0.9972  -0.9945  -0.8615  -0.8523
 -0.8150  -0.7735  -0.7486  -0.7452  -0.7305  -0.6824  -0.6810  -0.6584
 -0.6357  -0.6144  -0.5862  -0.5581  -0.5522  -0.5279  -0.5072  -0.4725
 -0.4663  -0.4572  -0.4532  -0.4355  -0.4275  -0.4254  -0.4217  -0.4156
 -0.4102  -0.4098  -0.4018  -0.3902  -0.3865  -0.3727  -0.3617  -0.3605
 -0.3588  -0.3583  -0.3476  -0.3354  -0.3341  -0.3205  -0.3190  -0.3149
 -0.2541  -0.2484  -0.2458  -0.2457  -0.2374  -0.2354

          Ground-State Mulliken Net Atomic Charges

     Atom                 Charge (a.u.)    Spin (a.u.)
  --------------------------------------------------------
      1 C                    -0.698170      -0.000451
      2 C                     0.576466       0.000754
      3 C                    -0.538647      -0.000034
      4 C                    -0.698063      -0.000449
      5 C                     0.149532       0.025775
      6 C                    -0.602526       0.036962
      7 C                    -0.104401       0.025000
      8 C                     0.211051       0.030335
      9 C                    -0.682230       0.103896
     10 O                    -0.491108       0.194712
     11 C                     0.139968       0.032656
     12 C                     0.098362       0.029239
     13 C                    -0.504667       0.042464
     14 C                    -0.510192       0.035366
     15 C                     0.079182       0.028044
     16 C                     0.383336       0.033785
     17 C                    -0.582740       0.114000
     18 O                    -0.491163       0.200591
     19 C                     0.476401       0.053924
     20 C                     0.067925       0.028081
     21 H                     0.170773      -0.000172
     22 H                     0.154456      -0.000103
     23 H                     0.154228      -0.000361
     24 H                     0.148999       0.000592
     25 H                     0.179363      -0.000102
     26 H                     0.148901       0.000596
     27 H                     0.154479      -0.000361
     28 H                     0.170661      -0.000168
     29 H                     0.154276      -0.000105
     30 H                     0.185923      -0.002779
     31 H                     0.190497      -0.001426
     32 H                     0.177098      -0.001235
     33 H                     0.202135      -0.003351
     34 H                     0.203999      -0.003106
     35 H                     0.177325      -0.001652
     36 H                     0.148572      -0.000920
  --------------------------------------------------------
  Sum of atomic charges =    -1.000002

                    Cartesian Multipole Moments
 -----------------------------------------------------------------
    Charge (ESU x 10^10)
                -4.8032
    Dipole Moment (Debye)
         X      -7.0679      Y      -0.6906      Z       0.0012
       Tot       7.1015
    Quadrupole Moments (Debye-Ang)
        XX    -121.5533     XY      -9.2432     YY    -155.5044
        XZ       0.0047     YZ      -0.0053     ZZ    -126.6442

 Total job time:  147.98s(wall), 944.79s(cpu)
        *  Thank you very much for using Q-Chem.  Have a nice day.  *
