 Gaussian 16, Revision A.03,
 Gaussian 16:  ES64L-G16RevA.03 25-Dec-2016

 ----------------------------------------------------------------
 #P UB3LYP/6-311++G(d,p) SCRF=(PCM,Solvent=n,n-DiMethylFormamide)
 ----------------------------------------------------------------

 ------------------
 Quinone PCM in DMF
 ------------------
 Symbolic Z-matrix:
 Charge =  0 Multiplicity = 1

                         Standard orientation:
 ---------------------------------------------------------------------
 Center     Atomic      Atomic             Coordinates (Angstroms)
 Number     Number       Type             X           Y           Z
 ---------------------------------------------------------------------
      1          6           0       -3.441278   -1.335831    0.059137
      2          8           0       -2.784586   -0.066258    0.037814
      3          6           0       -1.455677   -0.037386    0.007387
      4          6           0       -0.624734   -1.105091   -0.005829
      5          6           0        0.825802   -0.955017   -0.062045
      6          8           0        1.564461   -1.926890   -0.136639
      7          6           0        1.385870    0.453288   -0.039616
      8          6           0        0.545711    1.514791   -0.037891
      9          6           0       -0.903163    1.376852   -0.014004
     10          8           0       -1.658223    2.332316   -0.002044
     11          8           0        2.701460    0.695793   -0.084936
     12          6           0        3.724921   -0.284487    0.187765
     13          1           0       -4.505595   -1.114359    0.083730
     14          1           0       -3.157343   -1.903050    0.950154
     15          1           0       -3.200226   -1.910665   -0.839596
     16          1           0       -0.974714   -2.128495   -0.002067
     17          1           0        0.937189    2.524382   -0.044884
     18          1           0        3.526094   -0.813230    1.119691
     19          1           0        3.808556   -1.001578   -0.626135
     20          1           0        4.636444    0.304593    0.276112
 ---------------------------------------------------------------------

 SCF Done:  E(UB3LYP) =  -610.692514544     A.U. after   16 cycles

 The electronic state is 1-A.
 Alpha  occ. eigenvalues --  -19.19364 -19.18577 -19.14042 -19.13652 -10.29378
 Alpha  occ. eigenvalues --  -10.28766 -10.27958 -10.27790 -10.23606 -10.22974
 Alpha  occ. eigenvalues --  -10.19646 -10.19338  -1.11499  -1.10276  -1.06840
 Alpha  occ. eigenvalues --   -1.06651  -0.86047  -0.79790  -0.75049  -0.73070
 Alpha  occ. eigenvalues --   -0.68162  -0.63416  -0.60600  -0.55541  -0.54748
 Alpha  occ. eigenvalues --   -0.53436  -0.49991  -0.48827  -0.48141  -0.47435
 Alpha  occ. eigenvalues --   -0.45727  -0.45428  -0.44162  -0.43824  -0.42081
 Alpha  occ. eigenvalues --   -0.41470  -0.38149  -0.37380  -0.36789  -0.36247
 Alpha  occ. eigenvalues --   -0.28952  -0.28495  -0.28249  -0.25725
 Alpha virt. eigenvalues --   -0.12818  -0.01618  -0.00647   0.00085   0.00328
 Alpha virt. eigenvalues --    0.01058   0.02308   0.02376   0.03201   0.03670
 Alpha virt. eigenvalues --    0.04209   0.04411   0.05358   0.06544   0.06657

  Beta  occ. eigenvalues --  -19.19364 -19.18577 -19.14042 -19.13652 -10.29378
  Beta  occ. eigenvalues --  -10.28766 -10.27958 -10.27790 -10.23606 -10.22974
  Beta  occ. eigenvalues --  -10.19646 -10.19338  -1.11499  -1.10276  -1.06840
  Beta  occ. eigenvalues --   -1.06651  -0.86047  -0.79790  -0.75049  -0.73070
  Beta  occ. eigenvalues --   -0.68162  -0.63416  -0.60600  -0.55541  -0.54748
  Beta  occ. eigenvalues --   -0.53436  -0.49991  -0.48827  -0.48141  -0.47435
  Beta  occ. eigenvalues --   -0.45727  -0.45428  -0.44162  -0.43824  -0.42081
  Beta  occ. eigenvalues --   -0.41470  -0.38149  -0.37380  -0.36789  -0.36247
  Beta  occ. eigenvalues --   -0.28952  -0.28495  -0.28249  -0.25725
  Beta virt. eigenvalues --   -0.12818  -0.01618  -0.00647   0.00085   0.00328
  Beta virt. eigenvalues --    0.01058   0.02308   0.02376   0.03201   0.03670
  Beta virt. eigenvalues --    0.04209   0.04411   0.05358   0.06544   0.06657

 Mulliken charges and spin densities:
               1          2
     1  C   -0.305360  -0.000000
     2  O   -0.150144   0.000000
     3  C   -0.249008   0.000000
     4  C    0.847752  -0.000000
     5  C   -0.487581   0.000000
     6  O   -0.284979  -0.000000
     7  C    0.106895   0.000000
     8  C    0.267705  -0.000000
     9  C   -0.555488   0.000000
    10  O   -0.323977  -0.000000
    11  O   -0.203712  -0.000000
    12  C   -0.287236   0.000000
    13  H    0.212459  -0.000000
    14  H    0.180261   0.000000
    15  H    0.179605   0.000000
    16  H    0.255243  -0.000000
    17  H    0.242777   0.000000
    18  H    0.179805   0.000000
    19  H    0.194022  -0.000000
    20  H    0.180961  -0.000000
 Sum of Mulliken charges =  -0.00000   0.00000

 Dipole moment (field-independent basis, Debye):
    X=              0.5920    Y=             -3.9557    Z=              0.6392  Tot=              4.0505
 Quadrupole moment (field-independent basis, Debye-Ang):
   XX=            -57.2706   YY=            -80.1958   ZZ=            -68.7370
   XY=             16.5902   XZ=              1.7008   YZ=             -0.6138

 Normal termination of Gaussian 16 at Wed Jan 24 22:49:01 2024.
