 Q-Chem 5.4, Q-Chem, Inc., Pleasanton, CA (2021)
 Q-Chem 5.4.0 for Intel X86 EM64T Linux

User input:
--------------------------------------------------------------
$molecule
-1 2
C                 -2.0285940000      0.3608500000      1.5330510000
C                 -2.9129560000      1.1967960000      0.7109440000
C                 -2.5197000000      1.5056140000     -0.5661040000
C                 -1.2820710000      1.0750370000     -1.1996730000
C                 -0.3978270000      0.2389280000     -0.3776490000
C                 -0.7910690000     -0.0698940000      0.8994070000
O                 -0.9775530000      1.3910610000     -2.3745930000
O                 -2.3333050000      0.0444640000      2.7078250000
Br                 0.3154870000     -1.1722680000      2.0634190000
Br                -3.6263780000      2.6077380000     -1.7302340000
C                  0.9094660000     -0.2360100000     -0.9985960000
C                  1.8499050000      0.9348940000     -1.3459840000
C                  0.6782680000     -1.1556250000     -2.2138790000
C                 -4.2203940000      1.6715300000      1.3317750000
C                 -3.9894940000      2.5915250000      2.5468270000
C                 -5.1605350000      0.5004450000      1.6793610000
H                  1.4142650000     -0.8340690000     -0.2393540000
H                  2.0517180000      1.5446980000     -0.4600320000
H                  1.4091820000      1.5716940000     -2.1135780000
H                  2.8081480000      0.5481980000     -1.7129710000
H                  0.0580830000     -2.0136620000     -1.9370280000
H                  1.6380870000     -1.5391010000     -2.5801080000
H                  0.1833520000     -0.6145730000     -3.0208840000
H                 -4.7253260000      2.2692780000      0.5723740000
H                 -4.9494280000      2.9749030000      2.9128640000
H                 -3.3694830000      3.4496130000      2.2697570000
H                 -3.4945370000      2.0508120000      3.3540310000
H                 -6.1189270000      0.8869570000      2.0461560000
H                 -4.7197200000     -0.1360420000      2.4471590000
H                 -5.3620800000     -0.1096040000      0.7935180000
$end
$rem
MAX_SCF_CYCLES=200
BASIS  =  6-311++G(d,p)
GUI  =  2
JOB_TYPE  =  SP
METHOD  =  B3LYP
SOLVENT_METHOD = COSMO
$end
$solvent
dielectric 37.219
opticaldielectric 1.43
$end

--------------------------------------------------------------

             Standard Nuclear Orientation (Angstroms)
    I     Atom           X                Y                Z
 ----------------------------------------------------------------
    1      C       0.2027853154    -1.4466179977     0.0002715212
    2      C      -1.1529223822    -0.8819779176     0.0002616370
    3      C      -1.2930119137     0.4822967400     0.0001398050
    4      C      -0.2027542118     1.4465943683     0.0001365620
    5      C       1.1529284347     0.8819584792    -0.0000697410
    6      C       1.2930332552    -0.4823189663     0.0000579624
    7      O      -0.3952744086     2.6859390714    -0.0001241629
    8      O       0.3953142747    -2.6859627499     0.0000968931
    9      Br      3.0507535370    -1.3219843199    -0.0001829328
   10      Br     -3.0507209208     1.3219819230     0.0000793902
   11      C       2.3264590341     1.8530311805    -0.0001679943
   12      C       2.3678132939     2.7186994396     1.2745980246
   13      C       2.3667589831     2.7198298404    -1.2741746783
   14      C      -2.3264849129    -1.8530333130     0.0000864349
   15      C      -2.3672849230    -2.7196669643     1.2741894316
   16      C      -2.3674551609    -2.7188025476    -1.2746238364
   17      H       3.2318725386     1.2454367050    -0.0007610615
   18      H       2.3983460320     2.0888157678     2.1689216034
   19      H       1.4910745255     3.3643010997     1.3335825997
   20      H       3.2689984556     3.3434435325     1.2728589594
   21      H       2.3971462852     2.0907242307    -2.1690524059
   22      H       3.2676303222     3.3450156635    -1.2722897774
   23      H       1.4896204501     3.3649763647    -1.3320550710
   24      H      -3.2318720096    -1.2453960605     0.0003091459
   25      H      -3.2682390181    -3.3447369110     1.2721059933
   26      H      -2.3978899978    -2.0904173400     2.1689545855
   27      H      -1.4902532618    -3.3649221521     1.3324344799
   28      H      -3.2687035877    -3.3434580381    -1.2731694959
   29      H      -1.4907667944    -3.3645029372    -1.3332399536
   30      H      -2.3976133070    -2.0889606523    -2.1689882270
 ----------------------------------------------------------------

    9   -5764.6808223743      6.80e-06  Convergence criterion met
 Total energy in the final basis set =    -5764.6808223743
    4   -5764.7531015395      7.18e-06  Convergence criterion met
 Total energy in the final basis set =    -5764.7531015395

                    Orbital Energies (a.u.)
 --------------------------------------------------------------

 Alpha MOs
 -- Occupied --
********-482.8227 -62.4756 -62.4756 -56.2959 -56.2959 -56.2924 -56.2924
-56.2920 -56.2920 -19.0861 -19.0861 -10.2379 -10.2379 -10.2201 -10.2201
-10.1878 -10.1878 -10.1737 -10.1737 -10.1481 -10.1481 -10.1481 -10.1481
 -8.6842  -8.6842  -6.5151  -6.5151  -6.5034  -6.5034  -6.5024  -6.5024
 -2.6261  -2.6261  -2.6229  -2.6229  -2.6222  -2.6222  -2.6129  -2.6129
 -2.6129  -2.6129  -1.0173  -1.0146  -0.8569  -0.8282  -0.7863  -0.7849
 -0.7632  -0.7118  -0.6764  -0.6757  -0.6756  -0.6258  -0.5732  -0.5689
 -0.5380  -0.5129  -0.4618  -0.4489  -0.4412  -0.4366  -0.4290  -0.4162
 -0.4159  -0.4066  -0.3993  -0.3983  -0.3951  -0.3724  -0.3679  -0.3671
 -0.3478  -0.3451  -0.3409  -0.3355  -0.3328  -0.3314  -0.3180  -0.3148
 -0.2850  -0.2762  -0.2730  -0.2487  -0.2457  -0.2413  -0.1697

 Beta MOs
 -- Occupied --
********-482.8227 -62.4756 -62.4756 -56.2959 -56.2959 -56.2924 -56.2924
-56.2920 -56.2920 -19.0794 -19.0793 -10.2365 -10.2365 -10.2191 -10.2191
-10.1865 -10.1865 -10.1737 -10.1737 -10.1481 -10.1481 -10.1480 -10.1480
 -8.6842  -8.6842  -6.5151  -6.5151  -6.5034  -6.5034  -6.5024  -6.5024
 -2.6262  -2.6262  -2.6229  -2.6229  -2.6223  -2.6223  -2.6129  -2.6129
 -2.6129  -2.6128  -1.0057  -1.0027  -0.8520  -0.8268  -0.7857  -0.7834
 -0.7613  -0.7095  -0.6754  -0.6754  -0.6675  -0.6234  -0.5722  -0.5649
 -0.5351  -0.5113  -0.4597  -0.4464  -0.4395  -0.4277  -0.4239  -0.4136
 -0.4117  -0.4036  -0.3976  -0.3906  -0.3863  -0.3704  -0.3648  -0.3558
 -0.3463  -0.3443  -0.3398  -0.3340  -0.3321  -0.3308  -0.3121  -0.3032
 -0.2845  -0.2758  -0.2511  -0.2431  -0.2400  -0.2355

          Ground-State Mulliken Net Atomic Charges

     Atom                 Charge (a.u.)    Spin (a.u.)
  --------------------------------------------------------
      1 C                    -1.190920       0.071400
      2 C                     1.330103       0.132335
      3 C                    -0.115934       0.065118
      4 C                    -1.190788       0.071453
      5 C                     1.329870       0.132261
      6 C                    -0.115748       0.065157
      7 O                    -0.364192       0.244803
      8 O                    -0.364090       0.244822
      9 Br                   -0.194391       0.002979
     10 Br                   -0.194328       0.002979
     11 C                     0.373241      -0.034622
     12 C                    -0.731091       0.009835
     13 C                    -0.730834       0.009836
     14 C                     0.372788      -0.034625
     15 C                    -0.730677       0.009845
     16 C                    -0.730946       0.009831
     17 H                     0.171541      -0.000515
     18 H                     0.134300       0.000130
     19 H                     0.185734      -0.001077
     20 H                     0.156242       0.000354
     21 H                     0.134164       0.000132
     22 H                     0.156239       0.000351
     23 H                     0.185777      -0.001079
     24 H                     0.171529      -0.000515
     25 H                     0.156266       0.000352
     26 H                     0.134153       0.000132
     27 H                     0.185754      -0.001079
     28 H                     0.156288       0.000354
     29 H                     0.185781      -0.001075
     30 H                     0.134170       0.000129
  --------------------------------------------------------
  Sum of atomic charges =    -1.000000

                    Cartesian Multipole Moments
 -----------------------------------------------------------------
    Charge (ESU x 10^10)
                -4.8032
    Dipole Moment (Debye)
         X       0.0002      Y      -0.0010      Z       0.0019
       Tot       0.0021
    Quadrupole Moments (Debye-Ang)
        XX    -135.8977     XY      14.2348     YY    -161.9452
        XZ       0.0028     YZ       0.0013     ZZ    -127.1752

 Total job time:  115.82s(wall), 804.55s(cpu)
        *  Thank you very much for using Q-Chem.  Have a nice day.  *
