 Gaussian 16, Revision A.03,
 Gaussian 16:  ES64L-G16RevA.03 25-Dec-2016

 ----------------------------------------------------------------
 #P UB3LYP/6-311++G(d,p) SCRF=(PCM,Solvent=n,n-DiMethylFormamide)
 ----------------------------------------------------------------

 -------
 Reduced
 -------
 Symbolic Z-matrix:
 Charge = -2 Multiplicity = 1

                         Standard orientation:
 ---------------------------------------------------------------------
 Center     Atomic      Atomic             Coordinates (Angstroms)
 Number     Number       Type             X           Y           Z
 ---------------------------------------------------------------------
      1          7           0        3.837780    1.882087    0.194467
      2          6           0        3.198008    0.619831    0.128935
      3          6           0        3.965797   -0.530100    0.184298
      4          6           0        3.377443   -1.799546    0.033374
      5          6           0        2.014657   -1.951281   -0.166089
      6          7           0        1.491641   -3.253040   -0.368195
      7          6           0        1.158727   -0.792090   -0.181263
      8          6           0       -0.293858   -0.967517   -0.291847
      9          8           0       -0.833376   -2.108649   -0.556119
     10          6           0       -1.088869    0.196483   -0.094655
     11          6           0       -0.489708    1.517935   -0.060741
     12          6           0       -1.303077    2.653983   -0.157367
     13          6           0       -2.686941    2.566650   -0.255698
     14          6           0       -3.299790    1.303610   -0.175578
     15          6           0       -2.532826    0.160781   -0.042528
     16          7           0       -3.286364   -1.012256    0.348083
     17          8           0       -2.844683   -1.735947    1.250165
     18          8           0       -4.409104   -1.215262   -0.194765
     19          6           0        0.947331    1.715952    0.003623
     20          8           0        1.433290    2.909140    0.075879
     21          6           0        1.768839    0.519645   -0.029944
     22          1           0        4.541564    1.916041    0.921085
     23          1           0        3.120016    2.617109    0.274035
     24          1           0        5.045481   -0.439116    0.289939
     25          1           0        4.004613   -2.689354    0.028257
     26          1           0        1.817860   -3.902132    0.337218
     27          1           0        0.458086   -3.180136   -0.410464
     28          1           0       -0.797154    3.613638   -0.157086
     29          1           0       -3.297408    3.462615   -0.330136
     30          1           0       -4.377861    1.203514   -0.141729
 ---------------------------------------------------------------------

 SCF Done:  E(UB3LYP) =  -1004.51671775     A.U. after   20 cycles

 The electronic state is 1-A.
 Alpha  occ. eigenvalues --  -19.11838 -19.11047 -19.05103 -19.03331 -14.49387
 Alpha  occ. eigenvalues --  -14.28295 -14.27481 -10.20732 -10.20173 -10.19094
 Alpha  occ. eigenvalues --  -10.19004 -10.18530 -10.17441 -10.16443 -10.16012
 Alpha  occ. eigenvalues --  -10.16004 -10.15805 -10.15459 -10.14955 -10.14936
 Alpha  occ. eigenvalues --  -10.14662  -1.17498  -1.00234  -0.97180  -0.95728
 Alpha  occ. eigenvalues --   -0.88866  -0.87626  -0.85228  -0.80403  -0.77782
 Alpha  occ. eigenvalues --   -0.76149  -0.72249  -0.69729  -0.67388  -0.64553
 Alpha  occ. eigenvalues --   -0.61233  -0.60803  -0.55411  -0.54013  -0.53198
 Alpha  occ. eigenvalues --   -0.51111  -0.49936  -0.48781  -0.48232  -0.47646
 Alpha  occ. eigenvalues --   -0.45939  -0.45433  -0.44962  -0.43985  -0.42546
 Alpha  occ. eigenvalues --   -0.41969  -0.40002  -0.39434  -0.38168  -0.36995
 Alpha  occ. eigenvalues --   -0.36715  -0.36177  -0.35761  -0.34914  -0.33495
 Alpha  occ. eigenvalues --   -0.33213  -0.32224  -0.30899  -0.28509  -0.28164
 Alpha  occ. eigenvalues --   -0.26932  -0.25576  -0.24110  -0.23404  -0.22861
 Alpha  occ. eigenvalues --   -0.22212  -0.20857  -0.17971  -0.11758
 Alpha virt. eigenvalues --   -0.06954  -0.01905  -0.00824   0.00128   0.00800
 Alpha virt. eigenvalues --    0.01237   0.02012   0.02441   0.02727   0.04147
 Alpha virt. eigenvalues --    0.04517   0.04880   0.05081   0.05587   0.06031

  Beta  occ. eigenvalues --  -19.11838 -19.11047 -19.05103 -19.03331 -14.49387
  Beta  occ. eigenvalues --  -14.28295 -14.27481 -10.20732 -10.20173 -10.19094
  Beta  occ. eigenvalues --  -10.19004 -10.18530 -10.17441 -10.16443 -10.16012
  Beta  occ. eigenvalues --  -10.16004 -10.15805 -10.15459 -10.14955 -10.14936
  Beta  occ. eigenvalues --  -10.14662  -1.17498  -1.00234  -0.97180  -0.95728
  Beta  occ. eigenvalues --   -0.88866  -0.87626  -0.85228  -0.80403  -0.77782
  Beta  occ. eigenvalues --   -0.76149  -0.72249  -0.69729  -0.67388  -0.64553
  Beta  occ. eigenvalues --   -0.61233  -0.60803  -0.55411  -0.54013  -0.53198
  Beta  occ. eigenvalues --   -0.51111  -0.49936  -0.48781  -0.48232  -0.47646
  Beta  occ. eigenvalues --   -0.45939  -0.45433  -0.44962  -0.43985  -0.42546
  Beta  occ. eigenvalues --   -0.41969  -0.40002  -0.39434  -0.38168  -0.36995
  Beta  occ. eigenvalues --   -0.36715  -0.36177  -0.35761  -0.34914  -0.33495
  Beta  occ. eigenvalues --   -0.33213  -0.32224  -0.30899  -0.28509  -0.28164
  Beta  occ. eigenvalues --   -0.26932  -0.25576  -0.24110  -0.23404  -0.22861
  Beta  occ. eigenvalues --   -0.22212  -0.20857  -0.17971  -0.11758
  Beta virt. eigenvalues --   -0.06954  -0.01905  -0.00824   0.00128   0.00800
  Beta virt. eigenvalues --    0.01237   0.02012   0.02441   0.02727   0.04147
  Beta virt. eigenvalues --    0.04517   0.04880   0.05081   0.05587   0.06031

 Mulliken charges and spin densities:
               1          2
     1  N   -0.474918   0.000000
     2  C   -0.137079  -0.000000
     3  C   -0.358773   0.000000
     4  C   -0.424351   0.000000
     5  C   -0.465031   0.000000
     6  N   -0.463700  -0.000000
     7  C    0.703298  -0.000000
     8  C   -0.590418   0.000000
     9  O   -0.542171  -0.000000
    10  C   -0.015687   0.000000
    11  C    0.558716  -0.000000
    12  C   -0.097005   0.000000
    13  C   -0.678921  -0.000000
    14  C    0.099473  -0.000000
    15  C   -0.332782   0.000000
    16  N   -0.168297  -0.000000
    17  O   -0.143178  -0.000000
    18  O   -0.199981   0.000000
    19  C   -0.344640   0.000000
    20  O   -0.526038  -0.000000
    21  C    0.596260  -0.000000
    22  H    0.248948  -0.000000
    23  H    0.309843   0.000000
    24  H    0.159946   0.000000
    25  H    0.163099  -0.000000
    26  H    0.240083   0.000000
    27  H    0.317297  -0.000000
    28  H    0.172339  -0.000000
    29  H    0.174271  -0.000000
    30  H    0.219398  -0.000000
 Sum of Mulliken charges =  -2.00000   0.00000

 Dipole moment (field-independent basis, Debye):
    X=              6.2523    Y=              4.4335    Z=              2.6272  Tot=              8.1025
 Quadrupole moment (field-independent basis, Debye-Ang):
   XX=           -188.4075   YY=           -171.0403   ZZ=           -136.7251
   XY=            -32.4662   XZ=             10.7297   YZ=             -2.9609

 Normal termination of Gaussian 16 at Sun Jan 14 01:35:47 2024.
