 Gaussian 16, Revision A.03,
 Gaussian 16:  ES64L-G16RevA.03 25-Dec-2016

 ----------------------------------------------------------------------
 #P UB3LYP/6-311++G(d,p) nosym opt freq SCRF=(PCM,Solvent=n,n-DiMethylF
 ormamide)
 ----------------------------------------------------------------------

 -------
 Reduced
 -------
 Symbolic Z-matrix:
 Charge = -2 Multiplicity = 1

 SCF Done:  E(UB3LYP) =  -5758.03119459     A.U. after   16 cycles
 SCF Done:  E(UB3LYP) =  -5758.03250423     A.U. after   14 cycles
 SCF Done:  E(UB3LYP) =  -5758.03300852     A.U. after   12 cycles
 SCF Done:  E(UB3LYP) =  -5758.03309172     A.U. after   12 cycles
 SCF Done:  E(UB3LYP) =  -5758.03311067     A.U. after   11 cycles
 SCF Done:  E(UB3LYP) =  -5758.03312567     A.U. after   11 cycles
 SCF Done:  E(UB3LYP) =  -5758.03313491     A.U. after   12 cycles
 SCF Done:  E(UB3LYP) =  -5758.03313847     A.U. after   11 cycles
 SCF Done:  E(UB3LYP) =  -5758.03313885     A.U. after   10 cycles
 Optimization completed.
    -- Stationary point found.
 Normal termination of Gaussian 16 at Sat Feb 10 10:44:57 2024.

 ----------------------------------------------------------------------
 #P Geom=AllCheck Guess=TCheck SCRF=Check GenChk UB3LYP/6-311++G(d,p) F
 req
 ----------------------------------------------------------------------

 Structure from the checkpoint file:  "023-an.chk"
 -------
 Reduced
 -------
 Charge = -2 Multiplicity = 1

                          Input orientation:
 ---------------------------------------------------------------------
 Center     Atomic      Atomic             Coordinates (Angstroms)
 Number     Number       Type             X           Y           Z
 ---------------------------------------------------------------------
      1          6           0       -2.867384   -1.518124    0.108250
      2          8           0       -2.210161   -0.761756   -0.913957
      3          6           0       -1.144570   -0.001517   -0.453675
      4          6           0       -1.285611    1.388575   -0.359257
      5         35           0       -2.996781    2.172732   -0.846916
      6          6           0       -0.270074    2.302104    0.061998
      7          8           0       -0.422159    3.580719    0.150110
      8          6           0        0.938019    1.602636    0.371203
      9          6           0        1.121227    0.216837    0.292434
     10          8           0        2.335707   -0.330870    0.678564
     11          6           0        3.135704   -0.803885   -0.409766
     12          6           0        0.078901   -0.665867   -0.128910
     13          8           0        0.231790   -1.957250   -0.207438
     14         35           0        2.439226    2.694337    0.949452
     15          1           0       -3.328706   -0.850210    0.845036
     16          1           0       -3.647178   -2.102377   -0.383391
     17          1           0       -2.161157   -2.188333    0.603028
     18          1           0        4.031534   -1.248114    0.027664
     19          1           0        2.593239   -1.556978   -0.985122
     20          1           0        3.428435    0.027340   -1.061888
 ---------------------------------------------------------------------

 SCF Done:  E(UB3LYP) =  -5758.03313885     A.U. after    1 cycles

 Alpha  occ. eigenvalues -- -482.80596-482.80593 -62.45869 -62.45866 -56.27880
 Alpha  occ. eigenvalues --  -56.27876 -56.27541 -56.27538 -56.27512 -56.27509
 Alpha  occ. eigenvalues --  -19.12007 -19.12000 -19.02566 -19.02007 -10.19816
 Alpha  occ. eigenvalues --  -10.19787 -10.19509 -10.19258 -10.19256 -10.18445
 Alpha  occ. eigenvalues --  -10.18443 -10.18030  -8.66827  -8.66824  -6.49880
 Alpha  occ. eigenvalues --   -6.49877  -6.48755  -6.48752  -6.48665  -6.48661
 Alpha  occ. eigenvalues --   -2.60989  -2.60986  -2.60682  -2.60679  -2.60613
 Alpha  occ. eigenvalues --   -2.60610  -2.59719  -2.59718  -2.59715  -2.59714
 Alpha  occ. eigenvalues --   -1.03325  -1.02989  -0.94382  -0.92644  -0.81398
 Alpha  occ. eigenvalues --   -0.78687  -0.74869  -0.71008  -0.68898  -0.64523
 Alpha  occ. eigenvalues --   -0.64194  -0.55333  -0.54564  -0.48790  -0.48780
 Alpha  occ. eigenvalues --   -0.45284  -0.44737  -0.43955  -0.42704  -0.40995
 Alpha  occ. eigenvalues --   -0.40943  -0.37399  -0.37078  -0.35005  -0.34972
 Alpha  occ. eigenvalues --   -0.34085  -0.33571  -0.31530  -0.30342  -0.27956
 Alpha  occ. eigenvalues --   -0.27763  -0.27041  -0.26512  -0.25730  -0.22801
 Alpha  occ. eigenvalues --   -0.20702  -0.20370  -0.19999  -0.12981
 Alpha virt. eigenvalues --   -0.01642   0.00434   0.00781   0.01688   0.01748
 Alpha virt. eigenvalues --    0.02315   0.03042   0.03854   0.03987   0.04720
 Alpha virt. eigenvalues --    0.04883   0.05293   0.06541   0.06599   0.06675

  Beta  occ. eigenvalues -- -482.80596-482.80593 -62.45869 -62.45866 -56.27880
  Beta  occ. eigenvalues --  -56.27876 -56.27541 -56.27538 -56.27512 -56.27509
  Beta  occ. eigenvalues --  -19.12007 -19.12000 -19.02566 -19.02007 -10.19816
  Beta  occ. eigenvalues --  -10.19787 -10.19509 -10.19258 -10.19256 -10.18445
  Beta  occ. eigenvalues --  -10.18443 -10.18030  -8.66827  -8.66824  -6.49880
  Beta  occ. eigenvalues --   -6.49877  -6.48755  -6.48752  -6.48665  -6.48661
  Beta  occ. eigenvalues --   -2.60989  -2.60986  -2.60682  -2.60679  -2.60613
  Beta  occ. eigenvalues --   -2.60610  -2.59719  -2.59718  -2.59715  -2.59714
  Beta  occ. eigenvalues --   -1.03325  -1.02989  -0.94382  -0.92644  -0.81398
  Beta  occ. eigenvalues --   -0.78687  -0.74869  -0.71008  -0.68898  -0.64523
  Beta  occ. eigenvalues --   -0.64194  -0.55333  -0.54564  -0.48790  -0.48780
  Beta  occ. eigenvalues --   -0.45284  -0.44737  -0.43955  -0.42704  -0.40995
  Beta  occ. eigenvalues --   -0.40943  -0.37399  -0.37078  -0.35005  -0.34972
  Beta  occ. eigenvalues --   -0.34085  -0.33571  -0.31530  -0.30342  -0.27956
  Beta  occ. eigenvalues --   -0.27763  -0.27041  -0.26512  -0.25730  -0.22801
  Beta  occ. eigenvalues --   -0.20702  -0.20370  -0.19999  -0.12981
  Beta virt. eigenvalues --   -0.01642   0.00434   0.00781   0.01688   0.01748
  Beta virt. eigenvalues --    0.02315   0.03042   0.03854   0.03987   0.04720
  Beta virt. eigenvalues --    0.04883   0.05293   0.06541   0.06599   0.06675

 Mulliken charges and spin densities:
               1          2
     1  C   -0.286078   0.000000
     2  O   -0.176503  -0.000000
     3  C   -1.613463   0.000000
     4  C    2.235339  -0.000000
     5  Br  -0.157518  -0.000000
     6  C   -2.192504   0.000000
     7  O   -0.572016  -0.000000
     8  C    2.238019  -0.000000
     9  C   -1.614710   0.000000
    10  O   -0.175389  -0.000000
    11  C   -0.283870   0.000000
    12  C    0.585866  -0.000000
    13  O   -0.708452  -0.000000
    14  Br  -0.158653  -0.000000
    15  H    0.120924  -0.000000
    16  H    0.147054  -0.000000
    17  H    0.171988  -0.000000
    18  H    0.146980  -0.000000
    19  H    0.172461  -0.000000
    20  H    0.120523   0.000000
 Sum of Mulliken charges =  -2.00000  -0.00000

 Dipole moment (field-independent basis, Debye):
    X=              1.3089    Y=            -11.2159    Z=              0.1251  Tot=             11.2927
 Quadrupole moment (field-independent basis, Debye-Ang):
   XX=           -130.0817   YY=           -185.9511   ZZ=           -120.3100
   XY=              7.4637   XZ=            -13.3030   YZ=             -4.8672

  Exact polarizability: 299.241  -1.130 288.156  35.412  11.847 163.413
 Approx polarizability: 307.241  -4.292 320.100  39.516  13.311 181.434

                      1                      2                      3
                      A                      A                      A
 Frequencies --     52.4547                67.3984                71.5387
 Red. masses --      5.1101                 4.6202                 3.5964
 Frc consts  --      0.0083                 0.0124                 0.0108
 IR Inten    --      2.4547                11.9206                13.7611

                      4                      5                      6
                      A                      A                      A
 Frequencies --     77.0186                91.4375               133.1601
 Red. masses --      3.3863                 7.3561                25.5805
 Frc consts  --      0.0118                 0.0362                 0.2672
 IR Inten    --     14.0368                 2.9115                12.1107

                      7                      8                      9
                      A                      A                      A
 Frequencies --    164.3758               165.1702               174.9970
 Red. masses --      5.9212                 1.3096                 1.1360
 Frc consts  --      0.0943                 0.0210                 0.0205
 IR Inten    --     12.3478                 0.8673                 0.3433

                     10                     11                     12
                      A                      A                      A
 Frequencies --    201.5393               207.5539               236.9469
 Red. masses --      4.1462                 3.8175                15.7463
 Frc consts  --      0.0992                 0.0969                 0.5209
 IR Inten    --      3.3198                 2.9650                 8.9222

                     13                     14                     15
                      A                      A                      A
 Frequencies --    243.3989               284.1670               343.5359
 Red. masses --     12.8819                 8.7923                11.6830
 Frc consts  --      0.4496                 0.4183                 0.8124
 IR Inten    --      0.5536                11.8314                 2.5723

                     16                     17                     18
                      A                      A                      A
 Frequencies --    360.2946               366.8658               396.6621
 Red. masses --      9.0370                 9.7185                 7.7401
 Frc consts  --      0.6912                 0.7707                 0.7175
 IR Inten    --      4.7489                 2.1906                 0.8872

                     19                     20                     21
                      A                      A                      A
 Frequencies --    446.2353               477.3871               557.0040
 Red. masses --      5.9627                11.8050                 9.9163
 Frc consts  --      0.6995                 1.5851                 1.8127
 IR Inten    --      1.3450                 0.1883                14.9786

                     22                     23                     24
                      A                      A                      A
 Frequencies --    649.2246               673.3673               702.2711
 Red. masses --     11.3409                 6.7685                12.1198
 Frc consts  --      2.8164                 1.8082                 3.5217
 IR Inten    --    158.7881                 0.7209                 9.3042

                     25                     26                     27
                      A                      A                      A
 Frequencies --    745.7291               761.0343               865.5065
 Red. masses --     11.8075                 9.8524                12.6788
 Frc consts  --      3.8688                 3.3620                 5.5959
 IR Inten    --      9.1901                37.8257               425.8893

                     28                     29                     30
                      A                      A                      A
 Frequencies --    935.5360               992.7380              1071.9601
 Red. masses --      6.2167                 8.2452                10.5673
 Frc consts  --      3.2058                 4.7876                 7.1544
 IR Inten    --     44.5923                 5.6689               269.4010

                     31                     32                     33
                      A                      A                      A
 Frequencies --   1099.4503              1137.3959              1156.7413
 Red. masses --     12.0157                 8.9041                 1.2717
 Frc consts  --      8.5575                 6.7868                 1.0025
 IR Inten    --    161.1494               596.7227                18.1733

                     34                     35                     36
                      A                      A                      A
 Frequencies --   1157.2420              1192.6319              1213.2954
 Red. masses --      1.2764                 1.8145                 1.5008
 Frc consts  --      1.0072                 1.5207                 1.3017
 IR Inten    --      2.7221                11.2696                53.7240

                     37                     38                     39
                      A                      A                      A
 Frequencies --   1238.6003              1366.4298              1391.6745
 Red. masses --      3.8050                10.9721                 8.6656
 Frc consts  --      3.4393                12.0703                 9.8883
 IR Inten    --     18.2311                 5.3643                48.9939

                     40                     41                     42
                      A                      A                      A
 Frequencies --   1402.5568              1423.8479              1453.5679
 Red. masses --      9.8355                 2.1616                 1.2167
 Frc consts  --     11.3995                 2.5819                 1.5146
 IR Inten    --   2284.3260                 4.8602                36.0757

                     43                     44                     45
                      A                      A                      A
 Frequencies --   1467.7550              1475.6951              1478.4352
 Red. masses --      1.4150                 1.0758                 1.3455
 Frc consts  --      1.7960                 1.3804                 1.7328
 IR Inten    --      1.2151                 0.0966                 8.6401

                     46                     47                     48
                      A                      A                      A
 Frequencies --   1497.7884              1499.3106              1579.1216
 Red. masses --      1.0510                 1.0522                10.7653
 Frc consts  --      1.3892                 1.3936                15.8165
 IR Inten    --     16.0896                18.4035                12.8399

                     49                     50                     51
                      A                      A                      A
 Frequencies --   2999.6674              3000.5836              3073.8529
 Red. masses --      1.0368                 1.0363                 1.0966
 Frc consts  --      5.4967                 5.4973                 6.1048
 IR Inten    --    181.4612                58.6821                35.4541

                     52                     53                     54
                      A                      A                      A
 Frequencies --   3074.4440              3107.5896              3108.0615
 Red. masses --      1.0955                 1.1053                 1.1056
 Frc consts  --      6.1009                 6.2891                 6.2926
 IR Inten    --     83.4857                71.0029                30.0799

 - Thermochemistry -
 -------------------
 Temperature   298.150 Kelvin.  Pressure   1.00000 Atm.
 Atom     1 has atomic number  6 and mass  12.00000

 Molecular mass:   323.86328 amu.
 Principal axes and moments of inertia in atomic units:
                           1         2         3
     Eigenvalues --  3230.307466598.865949523.81634
           X            0.96175  -0.11383  -0.24917
           Y            0.09510   0.99174  -0.08602
           Z            0.25691   0.05903   0.96463
 This molecule is an asymmetric top.
 Rotational symmetry number  1.
 Warning -- assumption of classical behavior for rotation
           may cause significant error
 Rotational temperatures (Kelvin)      0.02681     0.01313     0.00909
 Rotational constants (GHZ):           0.55869     0.27349     0.18950
 Zero-point vibrational energy     329644.4 (Joules/Mol)
                                   78.78691 (Kcal/Mol)
 Warning -- explicit consideration of  21 degrees of freedom as
           vibrations may cause significant error
 Vibrational temperatures:     75.47    96.97   102.93   110.81   131.56
          (Kelvin)            191.59   236.50   237.64   251.78   289.97
                              298.62   340.91   350.20   408.85   494.27
                              518.38   527.84   570.71   642.03   686.85
                              801.40   934.09   968.83  1010.41  1072.94
                             1094.96  1245.27  1346.03  1428.33  1542.31
                             1581.86  1636.46  1664.29  1665.01  1715.93
                             1745.66  1782.07  1965.99  2002.31  2017.97
                             2048.60  2091.36  2111.77  2123.20  2127.14
                             2154.98  2157.17  2272.00  4315.85  4317.17
                             4422.59  4423.44  4471.13  4471.81

 Zero-point correction=                           0.125555 (Hartree/Particle)
 Thermal correction to Energy=                    0.140395
 Thermal correction to Enthalpy=                  0.141339
 Thermal correction to Gibbs Free Energy=         0.081470
 Sum of electronic and zero-point Energies=          -5757.907584
 Sum of electronic and thermal Energies=             -5757.892744
 Sum of electronic and thermal Enthalpies=           -5757.891800
 Sum of electronic and thermal Free Energies=        -5757.951669

                     E (Thermal)             CV                S
                      KCal/Mol        Cal/Mol-Kelvin    Cal/Mol-Kelvin
 Total                   88.099             50.589            126.005
 Electronic               0.000              0.000              0.000
 Translational            0.889              2.981             43.221
 Rotational               0.889              2.981             33.673
 Vibrational             86.322             44.628             49.111
 Vibration     1          0.596              1.977              4.723
 Vibration     2          0.598              1.970              4.228
 Vibration     3          0.598              1.968              4.111
 Vibration     4          0.599              1.964              3.965
 Vibration     5          0.602              1.955              3.629
 Vibration     6          0.613              1.920              2.900
 Vibration     7          0.623              1.886              2.499
 Vibration     8          0.624              1.885              2.490
 Vibration     9          0.627              1.873              2.381
 Vibration    10          0.638              1.838              2.119
 Vibration    11          0.641              1.829              2.065
 Vibration    12          0.656              1.784              1.826
 Vibration    13          0.659              1.774              1.778
 Vibration    14          0.683              1.703              1.508
 Vibration    15          0.722              1.588              1.196
 Vibration    16          0.735              1.554              1.121
 Vibration    17          0.740              1.540              1.093
 Vibration    18          0.763              1.477              0.975
 Vibration    19          0.805              1.369              0.807
 Vibration    20          0.834              1.300              0.717
 Vibration    21          0.913              1.124              0.530

                           ! Non-Optimized Parameters !
 Normal termination of Gaussian 16 at Sat Feb 10 11:23:51 2024.
