 Gaussian 16, Revision A.03,
 Gaussian 16:  ES64L-G16RevA.03 25-Dec-2016

 ----------------------------------------------------------------------
 #P UB3LYP/6-311++G(d,p) nosym opt freq SCRF=(PCM,Solvent=n,n-DiMethylF
 ormamide)
 ----------------------------------------------------------------------

 -------
 Reduced
 -------
 Symbolic Z-matrix:
 Charge = -2 Multiplicity = 1

 SCF Done:  E(UB3LYP) =  -767.821243749     A.U. after   18 cycles
 SCF Done:  E(UB3LYP) =  -767.821949740     A.U. after   13 cycles
 SCF Done:  E(UB3LYP) =  -767.822165320     A.U. after   12 cycles
 SCF Done:  E(UB3LYP) =  -767.822182218     A.U. after   11 cycles
 SCF Done:  E(UB3LYP) =  -767.822182438     A.U. after   11 cycles
 SCF Done:  E(UB3LYP) =  -767.822184397     A.U. after   10 cycles
 SCF Done:  E(UB3LYP) =  -767.822184601     A.U. after   10 cycles
 SCF Done:  E(UB3LYP) =  -767.822184814     A.U. after   10 cycles
 SCF Done:  E(UB3LYP) =  -767.822184889     A.U. after    8 cycles
 SCF Done:  E(UB3LYP) =  -767.822184968     A.U. after    9 cycles
 SCF Done:  E(UB3LYP) =  -767.822184993     A.U. after    9 cycles
 Optimization completed.
    -- Stationary point found.
 Normal termination of Gaussian 16 at Sat Feb 10 18:07:43 2024.

 ----------------------------------------------------------------------
 #P Geom=AllCheck Guess=TCheck SCRF=Check GenChk UB3LYP/6-311++G(d,p) F
 req
 ----------------------------------------------------------------------

 Structure from the checkpoint file:  "128-an.chk"
 -------
 Reduced
 -------
 Charge = -2 Multiplicity = 1

                          Input orientation:
 ---------------------------------------------------------------------
 Center     Atomic      Atomic             Coordinates (Angstroms)
 Number     Number       Type             X           Y           Z
 ---------------------------------------------------------------------
      1          6           0       -3.426955    3.598437    0.070658
      2          6           0       -4.598176    2.860237    0.113112
      3          6           0       -4.592336    1.441877    0.142155
      4          6           0       -2.144198    2.928922    0.055497
      5          6           0       -2.149903    1.471453    0.081790
      6          6           0       -3.395525    0.776878    0.125955
      7          6           0       -0.891220    3.665774    0.015785
      8          6           0        0.331888    2.879311    0.004709
      9          6           0        0.280538    1.422676    0.020099
     10          6           0       -0.949511    0.690744    0.061898
     11          6           0        1.639717    3.497837   -0.021849
     12          6           0        2.781172    2.713536   -0.044269
     13          6           0        2.719732    1.296145   -0.040460
     14          6           0        1.497902    0.678845   -0.007357
     15          8           0       -0.865243    4.958610   -0.010104
     16          8           0       -0.975390   -0.621184    0.080656
     17          6           0       -3.590631    5.105492    0.041434
     18          1           0       -5.548835    3.385790    0.123927
     19          1           0       -5.531736    0.897165    0.175632
     20          1           0       -3.353741   -0.305660    0.145904
     21          6           0        1.862159    4.997798   -0.021796
     22          1           0        1.413474   -0.401308    0.000329
     23          1           0        3.751764    3.201074   -0.063198
     24          1           0        3.637147    0.714578   -0.061222
     25          1           0       -4.656454    5.356299    0.064395
     26          1           0       -3.143641    5.546296   -0.850873
     27          1           0       -3.095359    5.586585    0.885892
     28          1           0        1.403594    5.478872   -0.886710
     29          1           0        2.937359    5.205992   -0.028363
     30          1           0        1.415320    5.475619    0.851141
 ---------------------------------------------------------------------

 SCF Done:  E(UB3LYP) =  -767.822184993     A.U. after    1 cycles

 Alpha  occ. eigenvalues --  -19.00882 -19.00718 -10.17500 -10.16158 -10.15827
 Alpha  occ. eigenvalues --  -10.15827 -10.14359 -10.14356 -10.13811 -10.13809
 Alpha  occ. eigenvalues --  -10.13746 -10.13744 -10.13714 -10.13711 -10.13707
 Alpha  occ. eigenvalues --  -10.13705 -10.13126 -10.13125  -0.92849  -0.91729
 Alpha  occ. eigenvalues --   -0.82267  -0.81876  -0.75122  -0.74314  -0.73815
 Alpha  occ. eigenvalues --   -0.69992  -0.66484  -0.65373  -0.62601  -0.59172
 Alpha  occ. eigenvalues --   -0.58441  -0.53505  -0.51186  -0.49402  -0.48240
 Alpha  occ. eigenvalues --   -0.43500  -0.43311  -0.43045  -0.42766  -0.39933
 Alpha  occ. eigenvalues --   -0.39106  -0.38853  -0.38027  -0.37217  -0.37176
 Alpha  occ. eigenvalues --   -0.35980  -0.35711  -0.35326  -0.34342  -0.33104
 Alpha  occ. eigenvalues --   -0.32429  -0.31390  -0.31185  -0.30720  -0.29367
 Alpha  occ. eigenvalues --   -0.29274  -0.22056  -0.21959  -0.21137  -0.21124
 Alpha  occ. eigenvalues --   -0.19060  -0.18142  -0.10043
 Alpha virt. eigenvalues --   -0.01894  -0.00011   0.00526   0.00729   0.01118
 Alpha virt. eigenvalues --    0.02219   0.02263   0.02327   0.03363   0.04206
 Alpha virt. eigenvalues --    0.04221   0.04507   0.05697   0.05760   0.06113

  Beta  occ. eigenvalues --  -19.00882 -19.00718 -10.17500 -10.16158 -10.15827
  Beta  occ. eigenvalues --  -10.15827 -10.14359 -10.14356 -10.13811 -10.13809
  Beta  occ. eigenvalues --  -10.13746 -10.13744 -10.13714 -10.13711 -10.13707
  Beta  occ. eigenvalues --  -10.13705 -10.13126 -10.13125  -0.92849  -0.91729
  Beta  occ. eigenvalues --   -0.82267  -0.81876  -0.75122  -0.74314  -0.73815
  Beta  occ. eigenvalues --   -0.69992  -0.66484  -0.65373  -0.62601  -0.59172
  Beta  occ. eigenvalues --   -0.58441  -0.53505  -0.51186  -0.49402  -0.48240
  Beta  occ. eigenvalues --   -0.43500  -0.43311  -0.43045  -0.42766  -0.39933
  Beta  occ. eigenvalues --   -0.39106  -0.38853  -0.38027  -0.37217  -0.37176
  Beta  occ. eigenvalues --   -0.35980  -0.35711  -0.35326  -0.34342  -0.33104
  Beta  occ. eigenvalues --   -0.32429  -0.31390  -0.31185  -0.30720  -0.29367
  Beta  occ. eigenvalues --   -0.29274  -0.22056  -0.21959  -0.21137  -0.21124
  Beta  occ. eigenvalues --   -0.19060  -0.18142  -0.10043
  Beta virt. eigenvalues --   -0.01894  -0.00011   0.00526   0.00729   0.01118
  Beta virt. eigenvalues --    0.02219   0.02263   0.02327   0.03363   0.04206
  Beta virt. eigenvalues --    0.04221   0.04507   0.05697   0.05760   0.06113

 Mulliken charges and spin densities:
               1          2
     1  C    0.526998   0.000000
     2  C   -0.573898  -0.000000
     3  C   -0.450084  -0.000000
     4  C    0.127419   0.000000
     5  C    0.453773  -0.000000
     6  C   -0.054484  -0.000000
     7  C   -0.801759   0.000000
     8  C    0.127380   0.000000
     9  C    0.453508   0.000000
    10  C   -0.677647   0.000000
    11  C    0.527330  -0.000000
    12  C   -0.573556  -0.000000
    13  C   -0.450177   0.000000
    14  C   -0.054311  -0.000000
    15  O   -0.573028   0.000000
    16  O   -0.690927   0.000000
    17  C   -0.476087  -0.000000
    18  H    0.092660  -0.000000
    19  H    0.164662   0.000000
    20  H    0.138642  -0.000000
    21  C   -0.476345  -0.000000
    22  H    0.138490  -0.000000
    23  H    0.092723  -0.000000
    24  H    0.164669  -0.000000
    25  H    0.125245   0.000000
    26  H    0.148419  -0.000000
    27  H    0.148413  -0.000000
    28  H    0.148442  -0.000000
    29  H    0.125144  -0.000000
    30  H    0.148387  -0.000000
 Sum of Mulliken charges =  -2.00000  -0.00000

 Dipole moment (field-independent basis, Debye):
    X=              8.8844    Y=            -18.6147    Z=             -0.3860  Tot=             20.6298
 Quadrupole moment (field-independent basis, Debye-Ang):
   XX=           -144.6058   YY=           -204.0917   ZZ=           -119.1132
   XY=             16.5927   XZ=              0.7948   YZ=              0.0782

  Exact polarizability: 586.581  -3.611 408.865  -9.508  -3.084 177.195
 Approx polarizability: 641.882  -3.369 478.277 -10.456  -3.924 197.092

                      1                      2                      3
                      A                      A                      A
 Frequencies --     39.9014                50.7670                79.4614
 Red. masses --      5.1637                 3.4248                 4.3798
 Frc consts  --      0.0048                 0.0052                 0.0163
 IR Inten    --     19.5588                 0.9941                 0.1375

                      4                      5                      6
                      A                      A                      A
 Frequencies --    126.4135               166.6763               184.9875
 Red. masses --      1.1057                 6.5213                 1.2617
 Frc consts  --      0.0104                 0.1067                 0.0254
 IR Inten    --      1.5051                 4.6072                 2.6506

                      7                      8                      9
                      A                      A                      A
 Frequencies --    200.2136               203.8417               228.4684
 Red. masses --      2.9617                 3.2484                 2.9498
 Frc consts  --      0.0699                 0.0795                 0.0907
 IR Inten    --     10.8221                13.0708                 8.2608

                     10                     11                     12
                      A                      A                      A
 Frequencies --    273.1711               305.9647               339.8541
 Red. masses --      4.1820                 4.1750                 6.4740
 Frc consts  --      0.1839                 0.2303                 0.4406
 IR Inten    --      0.0146                 8.3299                 2.9998

                     13                     14                     15
                      A                      A                      A
 Frequencies --    344.7889               378.4660               388.2052
 Red. masses --      4.6874                12.8633                 7.4115
 Frc consts  --      0.3283                 1.0856                 0.6581
 IR Inten    --      5.7241                 3.1734                 0.4288

                     16                     17                     18
                      A                      A                      A
 Frequencies --    415.2051               449.0993               490.6622
 Red. masses --      4.3864                 3.7620                 9.9537
 Frc consts  --      0.4455                 0.4471                 1.4119
 IR Inten    --      0.0706                 3.8466                 2.5778

                     19                     20                     21
                      A                      A                      A
 Frequencies --    497.3858               501.9493               543.0821
 Red. masses --      3.8545                 3.9370                 5.9282
 Frc consts  --      0.5618                 0.5844                 1.0302
 IR Inten    --      6.3473                 0.0254                 2.6859

                     22                     23                     24
                      A                      A                      A
 Frequencies --    553.2805               564.0568               610.9444
 Red. masses --      4.3226                 3.6043                 6.4182
 Frc consts  --      0.7796                 0.6756                 1.4115
 IR Inten    --     16.4173                 0.0369                54.2559

                     25                     26                     27
                      A                      A                      A
 Frequencies --    631.0156               691.5673               709.9109
 Red. masses --      3.9292                 6.6712                 2.0991
 Frc consts  --      0.9218                 1.8798                 0.6233
 IR Inten    --      1.3883                 4.1435               128.9399

                     28                     29                     30
                      A                      A                      A
 Frequencies --    731.3043               773.4424               780.0683
 Red. masses --      2.9652                 1.5395                 2.1537
 Frc consts  --      0.9343                 0.5426                 0.7722
 IR Inten    --      0.3335                 0.1463                85.1997

                     31                     32                     33
                      A                      A                      A
 Frequencies --    788.9383               792.9397               819.7433
 Red. masses --      5.5961                 6.5939                 4.8064
 Frc consts  --      2.0522                 2.4427                 1.9030
 IR Inten    --      5.7481                20.2334                10.7824

                     34                     35                     36
                      A                      A                      A
 Frequencies --    861.4560               862.7866               914.0880
 Red. masses --      1.4329                 1.3962                 4.7657
 Frc consts  --      0.6265                 0.6124                 2.3462
 IR Inten    --      0.1288                 0.1743                 4.6621

                     37                     38                     39
                      A                      A                      A
 Frequencies --    921.7884               972.3905               976.0652
 Red. masses --      4.1412                 1.2811                 1.2800
 Frc consts  --      2.0732                 0.7137                 0.7185
 IR Inten    --    217.4428                 1.2300                 2.9904

                     40                     41                     42
                      A                      A                      A
 Frequencies --    980.0437              1010.7020              1034.4022
 Red. masses --      2.1293                 1.7813                 3.1018
 Frc consts  --      1.2050                 1.0721                 1.9554
 IR Inten    --      0.6089               161.2738               147.1904

                     43                     44                     45
                      A                      A                      A
 Frequencies --   1049.9903              1051.6936              1081.1509
 Red. masses --      1.5361                 1.5317                 2.1353
 Frc consts  --      0.9978                 0.9982                 1.4706
 IR Inten    --      2.5396                 5.6476                 0.5023

                     46                     47                     48
                      A                      A                      A
 Frequencies --   1087.4410              1116.4400              1148.3911
 Red. masses --      2.0095                 1.5600                 2.2099
 Frc consts  --      1.4001                 1.1456                 1.7171
 IR Inten    --    434.8679               350.8387               262.4733

                     49                     50                     51
                      A                      A                      A
 Frequencies --   1161.7706              1202.8073              1208.9456
 Red. masses --      1.5177                 2.5921                 4.6886
 Frc consts  --      1.2069                 2.2095                 4.0375
 IR Inten    --     90.6666               147.7698               418.4620

                     52                     53                     54
                      A                      A                      A
 Frequencies --   1230.9215              1235.7780              1294.5949
 Red. masses --      2.3473                 2.4736                 6.1843
 Frc consts  --      2.0954                 2.2257                 6.1067
 IR Inten    --     48.4667               316.3654               159.5601

                     55                     56                     57
                      A                      A                      A
 Frequencies --   1325.1551              1334.6481              1350.4528
 Red. masses --      6.2141                 3.4898                 2.2695
 Frc consts  --      6.4293                 3.6626                 2.4386
 IR Inten    --    582.0719              2166.6030                 6.5609

                     58                     59                     60
                      A                      A                      A
 Frequencies --   1401.0556              1406.1431              1406.9586
 Red. masses --      2.8303                 1.3078                 1.4334
 Frc consts  --      3.2734                 1.5235                 1.6718
 IR Inten    --    236.4114                13.7172                22.5298

                     61                     62                     63
                      A                      A                      A
 Frequencies --   1408.8596              1448.3770              1448.7637
 Red. masses --      1.7780                 1.0509                 1.0497
 Frc consts  --      2.0793                 1.2988                 1.2981
 IR Inten    --     35.3702                 7.4568                 4.7300

                     64                     65                     66
                      A                      A                      A
 Frequencies --   1451.4223              1468.1253              1470.0682
 Red. masses --      4.8844                 1.2195                 2.2949
 Frc consts  --      6.0625                 1.5486                 2.9221
 IR Inten    --    221.4039                11.3950                34.9449

                     67                     68                     69
                      A                      A                      A
 Frequencies --   1475.7370              1485.5459              1545.9751
 Red. masses --      1.3577                 5.0843                 5.8363
 Frc consts  --      1.7421                 6.6107                 8.2185
 IR Inten    --     76.8453               132.9274               115.7088

                     70                     71                     72
                      A                      A                      A
 Frequencies --   1579.3773              1601.9032              1605.5461
 Red. masses --      6.3919                 4.8133                 5.3812
 Frc consts  --      9.3941                 7.2773                 8.1729
 IR Inten    --     88.5366                27.1537                15.6579

                     73                     74                     75
                      A                      A                      A
 Frequencies --   3014.7676              3015.4165              3085.4223
 Red. masses --      1.0439                 1.0445                 1.0926
 Frc consts  --      5.5899                 5.5956                 6.1285
 IR Inten    --    157.2318               123.0130                49.2720

                     76                     77                     78
                      A                      A                      A
 Frequencies --   3087.8864              3093.7039              3096.2885
 Red. masses --      1.0915                 1.0993                 1.0992
 Frc consts  --      6.1320                 6.1991                 6.2091
 IR Inten    --     26.0666                28.9410                34.2647

                     79                     80                     81
                      A                      A                      A
 Frequencies --   3130.4202              3130.8739              3148.5367
 Red. masses --      1.0850                 1.0851                 1.0916
 Frc consts  --      6.2645                 6.2667                 6.3758
 IR Inten    --     73.1740                27.3519               139.4569

                     82                     83                     84
                      A                      A                      A
 Frequencies --   3148.8391              3179.3116              3181.1007
 Red. masses --      1.0913                 1.0916                 1.0915
 Frc consts  --      6.3755                 6.5011                 6.5074
 IR Inten    --     34.4794                65.5531                40.8175

 - Thermochemistry -
 -------------------
 Temperature   298.150 Kelvin.  Pressure   1.00000 Atm.
 Atom     1 has atomic number  6 and mass  12.00000

 Molecular mass:   236.08373 amu.
 Principal axes and moments of inertia in atomic units:
                           1         2         3
     Eigenvalues --  2530.626924810.938137319.53114
           X            0.99958   0.01959   0.02131
           Y           -0.01987   0.99972   0.01300
           Z           -0.02105  -0.01342   0.99969
 This molecule is an asymmetric top.
 Rotational symmetry number  1.
 Warning -- assumption of classical behavior for rotation
           may cause significant error
 Rotational temperatures (Kelvin)      0.03423     0.01800     0.01183
 Rotational constants (GHZ):           0.71316     0.37513     0.24657
 Zero-point vibrational energy     601638.5 (Joules/Mol)
                                  143.79506 (Kcal/Mol)
 Warning -- explicit consideration of  24 degrees of freedom as
           vibrations may cause significant error
 Vibrational temperatures:     57.41    73.04   114.33   181.88   239.81
          (Kelvin)            266.16   288.06   293.28   328.72   393.03
                              440.21   488.97   496.07   544.53   558.54
                              597.39   646.15   705.95   715.63   722.19
                              781.37   796.05   811.55   879.01   907.89
                              995.01  1021.40  1052.18  1112.81  1122.34
                             1135.11  1140.86  1179.43  1239.44  1241.36
                             1315.17  1326.25  1399.05  1404.34  1410.06
                             1454.17  1488.27  1510.70  1513.15  1555.54
                             1564.59  1606.31  1652.28  1671.53  1730.57
                             1739.40  1771.02  1778.01  1862.63  1906.60
                             1920.26  1943.00  2015.81  2023.13  2024.30
                             2027.03  2083.89  2084.45  2088.27  2112.30
                             2115.10  2123.26  2137.37  2224.31  2272.37
                             2304.78  2310.02  4337.58  4338.51  4439.23
                             4442.78  4451.15  4454.87  4503.98  4504.63
                             4530.04  4530.48  4574.32  4576.89

 Zero-point correction=                           0.229152 (Hartree/Particle)
 Thermal correction to Energy=                    0.243833
 Thermal correction to Enthalpy=                  0.244777
 Thermal correction to Gibbs Free Energy=         0.187552
 Sum of electronic and zero-point Energies=           -767.593033
 Sum of electronic and thermal Energies=              -767.578352
 Sum of electronic and thermal Enthalpies=            -767.577408
 Sum of electronic and thermal Free Energies=         -767.634633

                     E (Thermal)             CV                S
                      KCal/Mol        Cal/Mol-Kelvin    Cal/Mol-Kelvin
 Total                  153.007             58.808            120.439
 Electronic               0.000              0.000              0.000
 Translational            0.889              2.981             42.279
 Rotational               0.889              2.981             32.855
 Vibrational            151.230             52.846             45.306
 Vibration     1          0.594              1.981              5.264
 Vibration     2          0.595              1.977              4.787
 Vibration     3          0.600              1.963              3.904
 Vibration     4          0.611              1.927              3.000
 Vibration     5          0.624              1.883              2.473
 Vibration     6          0.631              1.860              2.277
 Vibration     7          0.638              1.840              2.131
 Vibration     8          0.640              1.834              2.098
 Vibration     9          0.651              1.798              1.891
 Vibration    10          0.676              1.723              1.576
 Vibration    11          0.696              1.662              1.384
 Vibration    12          0.720              1.596              1.213
 Vibration    13          0.723              1.586              1.190
 Vibration    14          0.749              1.516              1.045
 Vibration    15          0.756              1.495              1.007
 Vibration    16          0.779              1.437              0.908
 Vibration    17          0.808              1.363              0.799
 Vibration    18          0.846              1.271              0.682
 Vibration    19          0.853              1.256              0.665
 Vibration    20          0.857              1.246              0.653
 Vibration    21          0.898              1.155              0.559
 Vibration    22          0.909              1.133              0.537
 Vibration    23          0.920              1.109              0.516
 Vibration    24          0.970              1.009              0.431

                           ! Non-Optimized Parameters !
 Normal termination of Gaussian 16 at Sat Feb 10 18:50:28 2024.
