 Q-Chem 5.4, Q-Chem, Inc., Pleasanton, CA (2021)
 Q-Chem 5.4.0 for Intel X86 EM64T Linux

User input:
--------------------------------------------------------------
$molecule
0 1
O                 -0.4221850000      2.1657670000      0.2518890000
C                 -0.5791540000      0.9570590000      0.1296050000
C                  0.5791790000      0.0499410000     -0.0045470000
C                  0.3833740000     -1.2909210000     -0.1308580000
O                  1.3661730000     -2.1937050000     -0.2591090000
C                 -0.9814960000     -1.9212200000     -0.1582830000
O                 -1.1019940000     -3.1237510000     -0.2824050000
C                 -2.1487860000     -1.0086770000     -0.0332660000
C                 -3.4415360000     -1.5378010000     -0.0543630000
C                 -4.5392220000     -0.6916630000      0.0645700000
C                 -4.3493900000      0.6849100000      0.2045780000
C                 -3.0629680000      1.2164150000      0.2256560000
C                 -1.9569070000      0.3733750000      0.1071960000
C                  1.9558610000      0.6864560000     -0.0383400000
H                 -3.5637230000     -2.6084270000     -0.1634180000
H                 -5.5423780000     -1.1021970000      0.0487440000
H                 -5.2061240000      1.3428470000      0.2967230000
H                 -2.8940600000      2.2806660000      0.3326930000
C                  2.9853890000     -0.0038430000      0.8244950000
C                  4.2160800000     -0.4218120000      0.4822950000
C                  4.8221740000     -0.2907680000     -0.8924460000
C                  5.1256040000     -1.0506760000      1.5093140000
H                  2.2220480000     -1.7703520000     -0.0644870000
H                  1.8319800000      1.7196330000      0.2988470000
H                  2.2903070000      0.7497900000     -1.0790760000
H                  2.6822670000     -0.1410840000      1.8615270000
H                  4.1363810000      0.1134220000     -1.6362840000
H                  5.1789950000     -1.2629120000     -1.2501710000
H                  5.6983930000      0.3663690000     -0.8538900000
H                  4.6454870000     -1.1295450000      2.4861510000
H                  6.0417870000     -0.4603290000      1.6249330000
H                  5.4374340000     -2.0534270000      1.1961010000
$end
$rem
MAX_SCF_CYCLES=200
BASIS  =  6-311++G(d,p)
GUI  =  2
JOB_TYPE  =  SP
METHOD  =  B3LYP
SOLVENT_METHOD = COSMO
$end
$solvent
dielectric 37.219
opticaldielectric 1.43
$end

--------------------------------------------------------------

             Standard Nuclear Orientation (Angstroms)
    I     Atom           X                Y                Z
 ----------------------------------------------------------------
    1      O      -0.6382597764    -2.5747637354     0.0556966005
    2      C      -0.7533717275    -1.3552839619     0.0693345464
    3      C       0.4329509312    -0.4810090029     0.1736274488
    4      C       0.2839611759     0.8717594761     0.1785736337
    5      O       1.2950576921     1.7473424333     0.2702222246
    6      C      -1.0558750869     1.5493597203     0.0973592576
    7      O      -1.1348736087     2.7615729346     0.1148292731
    8      C      -2.2516921550     0.6707776583     0.0022539419
    9      C      -3.5231434381     1.2445765054    -0.0738142579
   10      C      -4.6471454948     0.4302057257    -0.1656224161
   11      C      -4.5049717112    -0.9590847351    -0.1814427647
   12      C      -3.2399311007    -1.5350318255    -0.1054124278
   13      C      -2.1076667895    -0.7240786705    -0.0134740847
   14      C       1.7820471003    -1.1599708556     0.3167950789
   15      H      -3.6083071089     2.3242188206    -0.0603120979
   16      H      -5.6337557854     0.8753603877    -0.2251879190
   17      H      -5.3821764158    -1.5921799632    -0.2526276092
   18      H      -3.1079454929    -2.6097849088    -0.1155431774
   19      C       2.8688742329    -0.5824300482    -0.5585210062
   20      C       4.1009382449    -0.1799271232    -0.2029806735
   21      C       4.6495584025    -0.2138951014     1.2014043816
   22      C       5.0717460902     0.3265776361    -1.2414684778
   23      H       2.1408183093     1.2792611157     0.1468676157
   24      H       1.6314897435    -2.2132611490     0.0630071187
   25      H       2.0745334175    -1.1456248816     1.3718982452
   26      H       2.6103541045    -0.5239620901    -1.6148837512
   27      H       3.9213790822    -0.5287391552     1.9481336931
   28      H       5.0296165184     0.7722487551     1.4902442700
   29      H       5.5008370019    -0.9021105613     1.2539359421
   30      H       4.6319940227     0.3382557286    -2.2401801072
   31      H       5.9683773920    -0.3031256120    -1.2696598064
   32      H       5.4097187103     1.3409580683    -1.0013502838
 ----------------------------------------------------------------

    9    -805.9084316218      5.29e-06  Convergence criterion met
 Total energy in the final basis set =     -805.9084316218
    5    -805.9263489378      2.54e-06  Convergence criterion met
 Total energy in the final basis set =     -805.9263489378

                    Orbital Energies (a.u.)
 --------------------------------------------------------------

 Alpha MOs
 -- Occupied --
-19.1801 -19.1416 -19.1303 -10.2903 -10.2822 -10.2719 -10.2078 -10.2073
-10.2071 -10.1972 -10.1962 -10.1953 -10.1950 -10.1938 -10.1871 -10.1762
-10.1661 -10.1641  -1.1038  -1.0702  -1.0641  -0.8899  -0.8446  -0.8234
 -0.7846  -0.7775  -0.7451  -0.6994  -0.6974  -0.6626  -0.6494  -0.6286
 -0.5909  -0.5804  -0.5487  -0.5290  -0.5090  -0.5003  -0.4766  -0.4673
 -0.4644  -0.4613  -0.4570  -0.4503  -0.4425  -0.4386  -0.4266  -0.4242
 -0.4123  -0.4006  -0.3938  -0.3881  -0.3809  -0.3772  -0.3752  -0.3678
 -0.3665  -0.3434  -0.2941  -0.2883  -0.2841  -0.2781  -0.2622  -0.2508

          Ground-State Mulliken Net Atomic Charges

     Atom                 Charge (a.u.)
  ----------------------------------------
      1 O                    -0.299781
      2 C                    -1.159142
      3 C                     1.925466
      4 C                    -0.845645
      5 O                    -0.278059
      6 C                    -0.523624
      7 O                    -0.300857
      8 C                     0.732213
      9 C                     0.100547
     10 C                    -0.380572
     11 C                    -0.469348
     12 C                     0.242457
     13 C                    -0.197663
     14 C                    -0.337290
     15 H                     0.194365
     16 H                     0.228562
     17 H                     0.226714
     18 H                     0.200389
     19 C                    -0.447637
     20 C                     0.515291
     21 C                    -0.579686
     22 C                    -0.611825
     23 H                     0.415168
     24 H                     0.221035
     25 H                     0.201413
     26 H                     0.216387
     27 H                     0.164331
     28 H                     0.169712
     29 H                     0.176469
     30 H                     0.170945
     31 H                     0.162416
     32 H                     0.167248
  ----------------------------------------
  Sum of atomic charges =     0.000000

                    Cartesian Multipole Moments
 -----------------------------------------------------------------
    Charge (ESU x 10^10)
                -0.0000
    Dipole Moment (Debye)
         X       0.9920      Y      -1.5872      Z      -0.1297
       Tot       1.8762
    Quadrupole Moments (Debye-Ang)
        XX     -66.3435     XY       1.8482     YY    -128.3013
        XZ       2.1950     YZ      -1.2704     ZZ    -105.1753

 Total job time:  69.62s(wall), 525.45s(cpu)
        *  Thank you very much for using Q-Chem.  Have a nice day.  *
