 Gaussian 16, Revision A.03,
 Gaussian 16:  ES64L-G16RevA.03 25-Dec-2016

 --------------------------------------
 #P UB3LYP/6-311++G(d,p) nosym opt freq
 --------------------------------------

 -------
 Reduced
 -------
 Symbolic Z-matrix:
 Charge = -2 Multiplicity = 1

 SCF Done:  E(UB3LYP) =  -613.877620992     A.U. after   39 cycles
 SCF Done:  E(UB3LYP) =  -613.877896245     A.U. after   32 cycles
 SCF Done:  E(UB3LYP) =  -613.877917216     A.U. after   29 cycles
 SCF Done:  E(UB3LYP) =  -613.877926848     A.U. after   28 cycles
 SCF Done:  E(UB3LYP) =  -613.877930357     A.U. after   27 cycles
 SCF Done:  E(UB3LYP) =  -613.877931096     A.U. after   23 cycles
 SCF Done:  E(UB3LYP) =  -613.877931336     A.U. after   23 cycles
 SCF Done:  E(UB3LYP) =  -613.877931417     A.U. after   24 cycles
 Optimization completed.
    -- Stationary point found.
 Normal termination of Gaussian 16 at Sun Jan  7 21:12:08 2024.

 ----------------------------------------------------------------------
 #P Geom=AllCheck Guess=TCheck SCRF=Check GenChk UB3LYP/6-311++G(d,p) F
 req
 ----------------------------------------------------------------------

 Structure from the checkpoint file:  "244-an.chk"
 -------
 Reduced
 -------
 Charge = -2 Multiplicity = 1

                          Input orientation:
 ---------------------------------------------------------------------
 Center     Atomic      Atomic             Coordinates (Angstroms)
 Number     Number       Type             X           Y           Z
 ---------------------------------------------------------------------
      1          6           0        5.705142   -5.344282    1.208313
      2          6           0        6.656385   -5.190088    0.208267
      3          6           0        6.588821   -4.124206   -0.725506
      4          6           0        4.611906   -4.417861    1.328479
      5          6           0        4.551953   -3.324167    0.361569
      6          6           0        5.551797   -3.221594   -0.634391
      7          6           0        3.593954   -4.546452    2.365758
      8          6           0        2.580263   -3.546045    2.344540
      9          6           0        2.544767   -2.501298    1.400912
     10          6           0        3.496607   -2.316026    0.370799
     11          8           0        3.582939   -5.493930    3.261176
     12          8           0        3.451061   -1.347471   -0.492621
     13          6           0        5.874442   -6.520673    2.152061
     14          1           0        7.472454   -5.910306    0.145265
     15          6           0        1.509945   -3.644897    3.401399
     16          1           0        1.733558   -1.771782    1.450314
     17          1           0        5.451429   -2.387324   -1.322658
     18          1           0        7.348991   -4.027116   -1.500357
     19          1           0        6.775041   -7.089528    1.872853
     20          1           0        5.003121   -7.178735    2.134231
     21          1           0        5.951959   -6.194564    3.191316
     22          1           0        1.939323   -3.611255    4.414392
     23          1           0        0.978521   -4.607411    3.348392
     24          1           0        0.779261   -2.831579    3.299899
 ---------------------------------------------------------------------

 SCF Done:  E(UB3LYP) =  -613.877931417     A.U. after    1 cycles

 Alpha  occ. eigenvalues --  -18.74828 -18.74579  -9.91536  -9.91048  -9.90774
 Alpha  occ. eigenvalues --   -9.90655  -9.90486  -9.90450  -9.90290  -9.89338
 Alpha  occ. eigenvalues --   -9.88729  -9.87907  -9.87235  -9.86127  -0.66173
 Alpha  occ. eigenvalues --   -0.65595  -0.57598  -0.51804  -0.50071  -0.47203
 Alpha  occ. eigenvalues --   -0.42256  -0.41543  -0.37158  -0.32509  -0.31304
 Alpha  occ. eigenvalues --   -0.25650  -0.22627  -0.21359  -0.18921  -0.16797
 Alpha  occ. eigenvalues --   -0.15980  -0.15046  -0.14907  -0.13698  -0.12434
 Alpha  occ. eigenvalues --   -0.11696  -0.10344  -0.09801  -0.08587  -0.08199
 Alpha  occ. eigenvalues --   -0.05918  -0.05469  -0.04469  -0.04221   0.02794
 Alpha  occ. eigenvalues --    0.04048   0.05025   0.07363   0.07683   0.15333
 Alpha virt. eigenvalues --    0.16905   0.18016   0.18164   0.20052   0.20811
 Alpha virt. eigenvalues --    0.21628   0.22159   0.22462   0.22880   0.23876
 Alpha virt. eigenvalues --    0.24791   0.25831   0.26850   0.27038   0.27656

  Beta  occ. eigenvalues --  -18.74828 -18.74579  -9.91536  -9.91048  -9.90774
  Beta  occ. eigenvalues --   -9.90655  -9.90486  -9.90450  -9.90290  -9.89338
  Beta  occ. eigenvalues --   -9.88729  -9.87907  -9.87235  -9.86127  -0.66173
  Beta  occ. eigenvalues --   -0.65595  -0.57598  -0.51804  -0.50071  -0.47203
  Beta  occ. eigenvalues --   -0.42256  -0.41543  -0.37158  -0.32509  -0.31304
  Beta  occ. eigenvalues --   -0.25650  -0.22627  -0.21359  -0.18921  -0.16797
  Beta  occ. eigenvalues --   -0.15980  -0.15046  -0.14907  -0.13698  -0.12434
  Beta  occ. eigenvalues --   -0.11696  -0.10344  -0.09801  -0.08587  -0.08199
  Beta  occ. eigenvalues --   -0.05918  -0.05469  -0.04469  -0.04221   0.02794
  Beta  occ. eigenvalues --    0.04048   0.05025   0.07363   0.07683   0.15333
  Beta virt. eigenvalues --    0.16905   0.18016   0.18164   0.20052   0.20811
  Beta virt. eigenvalues --    0.21628   0.22159   0.22462   0.22880   0.23876
  Beta virt. eigenvalues --    0.24791   0.25831   0.26850   0.27038   0.27656

 Mulliken charges and spin densities:
               1          2
     1  C    0.734838  -0.000000
     2  C   -0.526237  -0.000000
     3  C   -0.418422  -0.000000
     4  C    0.572280  -0.000000
     5  C    0.657370   0.000000
     6  C   -0.125120   0.000000
     7  C   -1.215407   0.000000
     8  C    0.999519  -0.000000
     9  C   -0.233114   0.000000
    10  C   -1.208954  -0.000000
    11  O   -0.524101  -0.000000
    12  O   -0.563707   0.000000
    13  C   -0.547865  -0.000000
    14  H    0.010615   0.000000
    15  C   -0.417248   0.000000
    16  H    0.008353   0.000000
    17  H    0.120323   0.000000
    18  H    0.070272   0.000000
    19  H    0.048840   0.000000
    20  H    0.140374   0.000000
    21  H    0.140699  -0.000000
    22  H    0.090593  -0.000000
    23  H    0.090822   0.000000
    24  H    0.095276  -0.000000
 Sum of Mulliken charges =  -2.00000  -0.00000

 Dipole moment (field-independent basis, Debye):
    X=            -37.8831    Y=             34.9464    Z=            -11.5547  Tot=             52.8194
 Quadrupole moment (field-independent basis, Debye-Ang):
   XX=           -265.7180   YY=           -257.7086   ZZ=           -140.9234
   XY=            147.0593   XZ=            -35.9791   YZ=             65.8996

  Exact polarizability: 315.360  -4.717 248.134 -51.569   5.447 290.799
 Approx polarizability: 427.020 -72.318 333.912-125.961 -48.023 370.832

                      1                      2                      3
                      A                      A                      A
 Frequencies --     56.8602                72.4444                88.9278
 Red. masses --      1.6638                 2.6767                 2.1835
 Frc consts  --      0.0032                 0.0083                 0.0102
 IR Inten    --     16.8740                 3.1299                 0.2616

                      4                      5                      6
                      A                      A                      A
 Frequencies --    150.9074               169.1490               215.2373
 Red. masses --      1.1147                 4.5661                 3.2419
 Frc consts  --      0.0150                 0.0770                 0.0885
 IR Inten    --      0.9161                 2.4340                 0.0994

                      7                      8                      9
                      A                      A                      A
 Frequencies --    245.6117               259.3591               306.4371
 Red. masses --      3.3556                 3.6526                 4.6331
 Frc consts  --      0.1193                 0.1448                 0.2563
 IR Inten    --      5.4434                 0.1138                 1.7928

                     10                     11                     12
                      A                      A                      A
 Frequencies --    341.8685               357.6047               362.6724
 Red. masses --      6.9436                 6.0039                 4.8947
 Frc consts  --      0.4781                 0.4524                 0.3793
 IR Inten    --     32.2808                 3.1376                 2.2902

                     13                     14                     15
                      A                      A                      A
 Frequencies --    416.5047               467.7902               474.0526
 Red. masses --      5.4405                 3.5465                 6.4528
 Frc consts  --      0.5561                 0.4572                 0.8544
 IR Inten    --      0.3071                 0.1972                 2.9248

                     16                     17                     18
                      A                      A                      A
 Frequencies --    514.2797               525.9280               561.2603
 Red. masses --      4.2483                 6.6811                 4.8631
 Frc consts  --      0.6620                 1.0888                 0.9026
 IR Inten    --      2.0960                 1.0875                11.1203

                     19                     20                     21
                      A                      A                      A
 Frequencies --    651.2099               660.1709               677.8746
 Red. masses --      2.1529                 4.4018                 3.7857
 Frc consts  --      0.5379                 1.1303                 1.0249
 IR Inten    --     14.2773                 8.7038                 2.7229

                     22                     23                     24
                      A                      A                      A
 Frequencies --    701.7913               726.8300               777.2393
 Red. masses --      6.4053                 1.5978                 2.2760
 Frc consts  --      1.8587                 0.4973                 0.8101
 IR Inten    --     55.7159               127.1812                13.9017

                     25                     26                     27
                      A                      A                      A
 Frequencies --    799.9631               806.4327               822.4101
 Red. masses --      4.6178                 1.5654                 2.3259
 Frc consts  --      1.7411                 0.5998                 0.9269
 IR Inten    --      3.7954               127.2783                24.1251

                     28                     29                     30
                      A                      A                      A
 Frequencies --    887.5088               948.6716               959.1738
 Red. masses --      4.4889                 1.2607                 3.2487
 Frc consts  --      2.0832                 0.6685                 1.7610
 IR Inten    --     15.4056                 0.4460                35.7727

                     31                     32                     33
                      A                      A                      A
 Frequencies --   1003.2604              1014.8872              1030.6219
 Red. masses --      1.6813                 1.7964                 1.4425
 Frc consts  --      0.9971                 1.0902                 0.9027
 IR Inten    --     50.2940                56.7270                27.1919

                     34                     35                     36
                      A                      A                      A
 Frequencies --   1043.9824              1075.9310              1126.4240
 Red. masses --      1.4988                 2.0033                 1.6145
 Frc consts  --      0.9625                 1.3663                 1.2070
 IR Inten    --      0.3424               104.6389               119.9529

                     37                     38                     39
                      A                      A                      A
 Frequencies --   1144.9206              1175.2165              1200.2558
 Red. masses --      2.5885                 2.3930                 3.9097
 Frc consts  --      1.9992                 1.9473                 3.3185
 IR Inten    --      2.4383                30.0065               151.0221

                     40                     41                     42
                      A                      A                      A
 Frequencies --   1226.3946              1272.2183              1305.3809
 Red. masses --      2.3214                 1.9619                 5.2487
 Frc consts  --      2.0572                 1.8709                 5.2696
 IR Inten    --    104.9051                62.2212               116.7027

                     43                     44                     45
                      A                      A                      A
 Frequencies --   1354.6925              1377.8379              1392.7844
 Red. masses --      1.9402                 3.9870                 3.0169
 Frc consts  --      2.0979                 4.4596                 3.4481
 IR Inten    --    258.6738               107.7769                 2.0462

                     46                     47                     48
                      A                      A                      A
 Frequencies --   1397.0525              1401.0543              1425.7815
 Red. masses --      2.3000                 1.4374                 3.2723
 Frc consts  --      2.6449                 1.6624                 3.9193
 IR Inten    --    475.3634                86.3607                10.3053

                     49                     50                     51
                      A                      A                      A
 Frequencies --   1438.1928              1445.8610              1469.6856
 Red. masses --      1.0532                 1.0481                 1.4608
 Frc consts  --      1.2835                 1.2909                 1.8590
 IR Inten    --     89.2256                12.9817                14.1625

                     52                     53                     54
                      A                      A                      A
 Frequencies --   1473.0362              1502.1861              1522.9953
 Red. masses --      1.1654                 2.2391                 5.5536
 Frc consts  --      1.4899                 2.9770                 7.5897
 IR Inten    --      4.3191               107.2193               248.6109

                     55                     56                     57
                      A                      A                      A
 Frequencies --   1571.4009              1590.8250              2933.3385
 Red. masses --      4.5945                 6.7701                 1.0978
 Frc consts  --      6.6844                10.0947                 5.5655
 IR Inten    --      5.3192                30.1865              1473.9306

                     58                     59                     60
                      A                      A                      A
 Frequencies --   2945.6176              2950.6657              3016.0132
 Red. masses --      1.0356                 1.0561                 1.0986
 Frc consts  --      5.2942                 5.4177                 5.8880
 IR Inten    --    483.1525               161.2346                49.9607

                     61                     62                     63
                      A                      A                      A
 Frequencies --   3067.5450              3070.0614              3073.5887
 Red. masses --      1.0763                 1.0859                 1.0824
 Frc consts  --      5.9670                 6.0305                 6.0244
 IR Inten    --     20.4087               152.2216                42.2689

                     64                     65                     66
                      A                      A                      A
 Frequencies --   3081.8276              3099.7847              3150.8014
 Red. masses --      1.0985                 1.0909                 1.0906
 Frc consts  --      6.1473                 6.1757                 6.3792
 IR Inten    --     22.9476               150.4510                41.4583

 - Thermochemistry -
 -------------------
 Temperature   298.150 Kelvin.  Pressure   1.00000 Atm.
 Atom     1 has atomic number  6 and mass  12.00000

 Molecular mass:   186.06808 amu.
 Principal axes and moments of inertia in atomic units:
                           1         2         3
     Eigenvalues --  1966.396292408.811754353.47638
           X            0.83386  -0.04723   0.54996
           Y           -0.33334   0.75106   0.56991
           Z           -0.43996  -0.65854   0.61053
 This molecule is an asymmetric top.
 Rotational symmetry number  1.
 Warning -- assumption of classical behavior for rotation
           may cause significant error
 Rotational temperatures (Kelvin)      0.04405     0.03596     0.01990
 Rotational constants (GHZ):           0.91779     0.74922     0.41455
 Zero-point vibrational energy     474787.6 (Joules/Mol)
                                  113.47697 (Kcal/Mol)
 Warning -- explicit consideration of  18 degrees of freedom as
           vibrations may cause significant error
 Vibrational temperatures:     81.81   104.23   127.95   217.12   243.37
          (Kelvin)            309.68   353.38   373.16   440.89   491.87
                              514.51   521.80   599.26   673.05   682.06
                              739.93   756.69   807.53   936.95   949.84
                              975.31  1009.72  1045.75  1118.27  1150.97
                             1160.28  1183.26  1276.93  1364.93  1380.04
                             1443.47  1460.20  1482.84  1502.06  1548.02
                             1620.67  1647.29  1690.87  1726.90  1764.51
                             1830.44  1878.15  1949.10  1982.40  2003.91
                             2010.05  2015.80  2051.38  2069.24  2080.27
                             2114.55  2119.37  2161.31  2191.25  2260.90
                             2288.84  4220.42  4238.09  4245.35  4339.37
                             4413.51  4417.13  4422.21  4434.06  4459.90
                             4533.30

 Zero-point correction=                           0.180837 (Hartree/Particle)
 Thermal correction to Energy=                    0.193085
 Thermal correction to Enthalpy=                  0.194029
 Thermal correction to Gibbs Free Energy=         0.142467
 Sum of electronic and zero-point Energies=           -613.697094
 Sum of electronic and thermal Energies=              -613.684846
 Sum of electronic and thermal Enthalpies=            -613.683902
 Sum of electronic and thermal Free Energies=         -613.735465

                     E (Thermal)             CV                S
                      KCal/Mol        Cal/Mol-Kelvin    Cal/Mol-Kelvin
 Total                  121.163             47.610            108.523
 Electronic               0.000              0.000              0.000
 Translational            0.889              2.981             41.569
 Rotational               0.889              2.981             31.401
 Vibrational            119.385             41.648             35.553
 Vibration     1          0.596              1.975              4.563
 Vibration     2          0.599              1.967              4.086
 Vibration     3          0.602              1.957              3.684
 Vibration     4          0.618              1.902              2.661
 Vibration     5          0.625              1.880              2.445
 Vibration     6          0.645              1.818              1.999
 Vibration     7          0.660              1.770              1.762
 Vibration     8          0.668              1.747              1.666
 Vibration     9          0.697              1.661              1.381
 Vibration    10          0.721              1.592              1.203
 Vibration    11          0.733              1.560              1.132
 Vibration    12          0.737              1.549              1.111
 Vibration    13          0.780              1.434              0.904
 Vibration    14          0.825              1.322              0.744
 Vibration    15          0.831              1.308              0.726
 Vibration    16          0.869              1.218              0.623
 Vibration    17          0.881              1.193              0.596
 Vibration    18          0.917              1.115              0.521

                           ! Non-Optimized Parameters !
 Normal termination of Gaussian 16 at Sun Jan  7 21:52:28 2024.
