 Q-Chem 5.4, Q-Chem, Inc., Pleasanton, CA (2021)
 Q-Chem 5.4.0 for Intel X86 EM64T Linux

User input:
--------------------------------------------------------------
$molecule
-2 1
C                  5.7051420000     -5.3442820000      1.2083130000
C                  6.6563850000     -5.1900880000      0.2082670000
C                  6.5888210000     -4.1242060000     -0.7255060000
C                  4.6119060000     -4.4178610000      1.3284790000
C                  4.5519530000     -3.3241670000      0.3615690000
C                  5.5517970000     -3.2215940000     -0.6343910000
C                  3.5939540000     -4.5464520000      2.3657580000
C                  2.5802630000     -3.5460450000      2.3445400000
C                  2.5447670000     -2.5012980000      1.4009120000
C                  3.4966070000     -2.3160260000      0.3707990000
O                  3.5829390000     -5.4939300000      3.2611760000
O                  3.4510610000     -1.3474710000     -0.4926210000
C                  5.8744420000     -6.5206730000      2.1520610000
H                  7.4724540000     -5.9103060000      0.1452650000
C                  1.5099450000     -3.6448970000      3.4013990000
H                  1.7335580000     -1.7717820000      1.4503140000
H                  5.4514290000     -2.3873240000     -1.3226580000
H                  7.3489910000     -4.0271160000     -1.5003570000
H                  6.7750410000     -7.0895280000      1.8728530000
H                  5.0031210000     -7.1787350000      2.1342310000
H                  5.9519590000     -6.1945640000      3.1913160000
H                  1.9393230000     -3.6112550000      4.4143920000
H                  0.9785210000     -4.6074110000      3.3483920000
H                  0.7792610000     -2.8315790000      3.2998990000
$end
$rem
MAX_SCF_CYCLES=200
BASIS  =  6-311++G(d,p)
GUI  =  2
JOB_TYPE  =  SP
METHOD  =  B3LYP
SOLVENT_METHOD = COSMO
$end
$solvent
dielectric 37.219
opticaldielectric 1.43
$end

--------------------------------------------------------------

             Standard Nuclear Orientation (Angstroms)
    I     Atom           X                Y                Z
 ----------------------------------------------------------------
    1      C       1.6526194072    -1.0477774718    -0.0000341840
    2      C       2.8335487512    -0.3169308954     0.0004163328
    3      C       2.8310728715     1.1017287503     0.0005814764
    4      C       0.3785535902    -0.3809814190     0.0000473658
    5      C       0.3876827843     1.0800430616     0.0000163890
    6      C       1.6245992675     1.7671988769     0.0002722471
    7      C      -0.8829145905    -1.1140623409     0.0002325048
    8      C      -2.0532798489    -0.3022256171    -0.0000965430
    9      C      -2.0176218935     1.1055806569    -0.0003566293
   10      C      -0.8333764079     1.8795448063    -0.0002240594
   11      O      -0.9686943828    -2.4149276883     0.0009112386
   12      O      -0.8158610733     3.1777591488    -0.0004616098
   13      C       1.7724874349    -2.5606717196    -0.0011356682
   14      H       3.7824588428    -0.8537935039     0.0003164739
   15      C      -3.3769553569    -1.0234650722     0.0001915045
   16      H      -2.9596137429     1.6581614161    -0.0005885340
   17      H       1.5643528844     2.8517089066     0.0002958919
   18      H       3.7728458260     1.6501287609     0.0008973395
   19      H       2.8362553998    -2.8453276132    -0.0004905197
   20      H       1.2736579558    -3.0026307993    -0.8662397731
   21      H       1.2716988144    -3.0043682158     0.8618539592
   22      H      -3.4750409428    -1.6856709493     0.8739847656
   23      H      -3.4751375506    -1.6865019080    -0.8729618734
   24      H      -4.2135298922    -0.3122474748    -0.0001291783
 ----------------------------------------------------------------

   11    -613.8780013866      9.49e-06  Convergence criterion met
 Total energy in the final basis set =     -613.8780013866
    6    -614.1647803336      2.70e-06  Convergence criterion met
 Total energy in the final basis set =     -614.1647803336

                    Orbital Energies (a.u.)
 --------------------------------------------------------------

 Alpha MOs
 -- Occupied --
-19.0210 -19.0118 -10.1699 -10.1672 -10.1585 -10.1460 -10.1423 -10.1422
-10.1403 -10.1381 -10.1372 -10.1367 -10.1260 -10.1182  -0.9331  -0.9250
 -0.8243  -0.7714  -0.7435  -0.7188  -0.6664  -0.6618  -0.6216  -0.5751
 -0.5584  -0.5060  -0.4732  -0.4601  -0.4363  -0.4153  -0.3987  -0.3977
 -0.3857  -0.3787  -0.3717  -0.3556  -0.3535  -0.3533  -0.3477  -0.3308
 -0.3109  -0.3108  -0.3077  -0.3016  -0.2253  -0.2209  -0.2088  -0.2017
 -0.1886  -0.1128

          Ground-State Mulliken Net Atomic Charges

     Atom                 Charge (a.u.)
  ----------------------------------------
      1 C                     0.544185
      2 C                    -0.542132
      3 C                    -0.511333
      4 C                     0.470512
      5 C                     0.471720
      6 C                    -0.142655
      7 C                    -0.826129
      8 C                     0.499389
      9 C                    -0.407694
     10 C                    -0.704653
     11 O                    -0.697367
     12 O                    -0.765680
     13 C                    -0.473528
     14 H                     0.122282
     15 C                    -0.354650
     16 H                     0.107939
     17 H                     0.153306
     18 H                     0.183519
     19 H                     0.136167
     20 H                     0.150768
     21 H                     0.150611
     22 H                     0.146539
     23 H                     0.146773
     24 H                     0.142110
  ----------------------------------------
  Sum of atomic charges =    -2.000000

                    Cartesian Multipole Moments
 -----------------------------------------------------------------
    Charge (ESU x 10^10)
                -9.6064
    Dipole Moment (Debye)
         X       6.0250      Y      -4.7607      Z      -0.0046
       Tot       7.6789
    Quadrupole Moments (Debye-Ang)
        XX    -105.0826     XY       0.9764     YY    -154.3799
        XZ      -0.0040     YZ       0.0213     ZZ     -94.1058

 Total job time:  43.19s(wall), 311.26s(cpu)
        *  Thank you very much for using Q-Chem.  Have a nice day.  *
