 Gaussian 16, Revision A.03,
 Gaussian 16:  ES64L-G16RevA.03 25-Dec-2016

 ----------------------------------------------------------------------
 #P UB3LYP/6-311++G(d,p) nosym opt freq SCRF=(PCM,Solvent=n,n-DiMethylF
 ormamide)
 ----------------------------------------------------------------------

 --------
 Oxidized
 --------
 Symbolic Z-matrix:
 Charge =  0 Multiplicity = 1

 SCF Done:  E(UB3LYP) =  -1029.32538071     A.U. after   14 cycles
 SCF Done:  E(UB3LYP) =  -1029.32546773     A.U. after   11 cycles
 SCF Done:  E(UB3LYP) =  -1029.32548162     A.U. after   11 cycles
 SCF Done:  E(UB3LYP) =  -1029.32548345     A.U. after   10 cycles
 SCF Done:  E(UB3LYP) =  -1029.32548456     A.U. after   10 cycles
 Optimization completed.
    -- Stationary point found.
 Normal termination of Gaussian 16 at Sat Feb 10 22:23:59 2024.

 ----------------------------------------------------------------------
 #P Geom=AllCheck Guess=TCheck SCRF=Check GenChk UB3LYP/6-311++G(d,p) F
 req
 ----------------------------------------------------------------------

 Structure from the checkpoint file:  "206.chk"
 --------
 Oxidized
 --------
 Charge =  0 Multiplicity = 1

                          Input orientation:
 ---------------------------------------------------------------------
 Center     Atomic      Atomic             Coordinates (Angstroms)
 Number     Number       Type             X           Y           Z
 ---------------------------------------------------------------------
      1          6           0       -4.562387    0.888004    0.344249
      2          6           0       -3.216411    0.243596    0.178493
      3          6           0       -3.077286   -1.106983   -0.057131
      4          6           0       -1.814548   -1.713937   -0.213210
      5          8           0       -1.792040   -3.037658   -0.439450
      6          6           0       -0.649958   -0.933189   -0.129614
      7          6           0        0.656046   -1.544722   -0.289601
      8          8           0        0.759406   -2.788743   -0.504820
      9          6           0        1.850067   -0.714793   -0.200642
     10          6           0        3.122660   -1.291114   -0.353359
     11          8           0        3.311970   -2.601096   -0.584378
     12          6           0        4.270727   -0.475655   -0.263649
     13          6           0        4.159278    0.873068   -0.029408
     14          6           0        2.894091    1.477727    0.127337
     15          8           0        2.867664    2.801518    0.353829
     16          6           0        1.733304    0.688416    0.042816
     17          6           0        0.420941    1.299441    0.203358
     18          8           0        0.321199    2.542920    0.419230
     19          6           0       -0.771286    0.469812    0.113982
     20          6           0       -2.042782    1.045749    0.265905
     21          8           0       -2.221625    2.355891    0.496549
     22          1           0       -4.713676    1.668671   -0.406530
     23          1           0       -4.643001    1.371610    1.321826
     24          1           0       -5.360233    0.151631    0.250304
     25          1           0       -3.953722   -1.740704   -0.128478
     26          1           0       -0.842417   -3.298595   -0.524236
     27          1           0        2.416937   -3.019383   -0.616900
     28          1           0        5.241947   -0.939930   -0.383790
     29          1           0        5.040201    1.499462    0.039902
     30          1           0        1.917923    3.060316    0.438828
     31          1           0       -1.322988    2.768664    0.528586
 ---------------------------------------------------------------------

 SCF Done:  E(UB3LYP) =  -1029.32548456     A.U. after    1 cycles

 Alpha  occ. eigenvalues --  -19.16765 -19.16734 -19.16721 -19.16666 -19.14761
 Alpha  occ. eigenvalues --  -19.14568 -10.29488 -10.29319 -10.27150 -10.27094
 Alpha  occ. eigenvalues --  -10.27071 -10.27012 -10.21766 -10.21603 -10.21542
 Alpha  occ. eigenvalues --  -10.21472 -10.21225 -10.20732 -10.20665 -10.20202
 Alpha  occ. eigenvalues --  -10.17856  -1.10072  -1.09829  -1.08820  -1.08662
 Alpha  occ. eigenvalues --   -1.05876  -1.05687  -0.90018  -0.88168  -0.83336
 Alpha  occ. eigenvalues --   -0.79632  -0.78084  -0.76627  -0.73200  -0.70341
 Alpha  occ. eigenvalues --   -0.68433  -0.66116  -0.63979  -0.62943  -0.58935
 Alpha  occ. eigenvalues --   -0.56501  -0.55886  -0.55284  -0.54937  -0.54623
 Alpha  occ. eigenvalues --   -0.50482  -0.48984  -0.48189  -0.47831  -0.47448
 Alpha  occ. eigenvalues --   -0.46724  -0.45551  -0.44587  -0.44284  -0.44077
 Alpha  occ. eigenvalues --   -0.43809  -0.42952  -0.42926  -0.41884  -0.40396
 Alpha  occ. eigenvalues --   -0.39916  -0.39711  -0.39654  -0.39369  -0.38233
 Alpha  occ. eigenvalues --   -0.38066  -0.34188  -0.33220  -0.30950  -0.29803
 Alpha  occ. eigenvalues --   -0.29079  -0.28165  -0.24948  -0.22889
 Alpha virt. eigenvalues --   -0.12944  -0.06999  -0.04613  -0.00840  -0.00733
 Alpha virt. eigenvalues --    0.00098   0.00477   0.01276   0.01964   0.02416
 Alpha virt. eigenvalues --    0.03175   0.03446   0.03533   0.03721   0.03939

  Beta  occ. eigenvalues --  -19.16765 -19.16734 -19.16721 -19.16666 -19.14761
  Beta  occ. eigenvalues --  -19.14568 -10.29488 -10.29319 -10.27150 -10.27094
  Beta  occ. eigenvalues --  -10.27071 -10.27012 -10.21766 -10.21603 -10.21542
  Beta  occ. eigenvalues --  -10.21472 -10.21225 -10.20732 -10.20665 -10.20202
  Beta  occ. eigenvalues --  -10.17856  -1.10072  -1.09829  -1.08820  -1.08662
  Beta  occ. eigenvalues --   -1.05876  -1.05687  -0.90018  -0.88168  -0.83336
  Beta  occ. eigenvalues --   -0.79632  -0.78084  -0.76627  -0.73200  -0.70341
  Beta  occ. eigenvalues --   -0.68433  -0.66116  -0.63979  -0.62943  -0.58935
  Beta  occ. eigenvalues --   -0.56501  -0.55886  -0.55284  -0.54937  -0.54623
  Beta  occ. eigenvalues --   -0.50482  -0.48984  -0.48189  -0.47831  -0.47448
  Beta  occ. eigenvalues --   -0.46724  -0.45551  -0.44587  -0.44284  -0.44077
  Beta  occ. eigenvalues --   -0.43809  -0.42952  -0.42926  -0.41884  -0.40396
  Beta  occ. eigenvalues --   -0.39916  -0.39711  -0.39654  -0.39369  -0.38233
  Beta  occ. eigenvalues --   -0.38066  -0.34188  -0.33220  -0.30950  -0.29803
  Beta  occ. eigenvalues --   -0.29079  -0.28165  -0.24948  -0.22889
  Beta virt. eigenvalues --   -0.12944  -0.06999  -0.04613  -0.00840  -0.00733
  Beta virt. eigenvalues --    0.00098   0.00477   0.01276   0.01964   0.02416
  Beta virt. eigenvalues --    0.03175   0.03446   0.03533   0.03721   0.03939

 Mulliken charges and spin densities:
               1          2
     1  C   -0.099860   0.000000
     2  C    1.024244   0.000000
     3  C   -0.823296  -0.000000
     4  C   -0.364580   0.000000
     5  O   -0.332286  -0.000000
     6  C    0.626999  -0.000000
     7  C   -0.539498  -0.000000
     8  O   -0.416656   0.000000
     9  C    0.413616   0.000000
    10  C   -0.327798   0.000000
    11  O   -0.337502   0.000000
    12  C   -0.056880  -0.000000
    13  C   -0.087481  -0.000000
    14  C   -0.291675   0.000000
    15  O   -0.338819  -0.000000
    16  C    0.462433   0.000000
    17  C   -0.438456  -0.000000
    18  O   -0.421118   0.000000
    19  C    0.169286  -0.000000
    20  C   -0.248687  -0.000000
    21  O   -0.337672   0.000000
    22  H    0.194087  -0.000000
    23  H    0.194232  -0.000000
    24  H    0.183075   0.000000
    25  H    0.193577  -0.000000
    26  H    0.378673  -0.000000
    27  H    0.378933  -0.000000
    28  H    0.232040  -0.000000
    29  H    0.231243   0.000000
    30  H    0.378854   0.000000
    31  H    0.400974  -0.000000
 Sum of Mulliken charges =  -0.00000  -0.00000

 Dipole moment (field-independent basis, Debye):
    X=             -1.1787    Y=              0.5905    Z=              0.1484  Tot=              1.3266
 Quadrupole moment (field-independent basis, Debye-Ang):
   XX=           -103.8151   YY=           -138.1873   ZZ=           -122.0250
   XY=              0.7758   XZ=             -0.6128   YZ=             -2.8447

  Exact polarizability: 545.285   4.994 331.129 -16.933  34.088 136.166
 Approx polarizability: 615.797   4.573 424.358 -18.964  45.759 162.643

                      1                      2                      3
                      A                      A                      A
 Frequencies --     45.8562                66.1465               113.5843
 Red. masses --      5.5334                 8.1510                 5.7327
 Frc consts  --      0.0069                 0.0210                 0.0436
 IR Inten    --      1.7510                 0.0215                 0.0929

                      4                      5                      6
                      A                      A                      A
 Frequencies --    129.2396               142.4654               152.4760
 Red. masses --      3.3970                 1.4147                 6.6679
 Frc consts  --      0.0334                 0.0169                 0.0913
 IR Inten    --      0.0096                 0.0774                 2.4731

                      7                      8                      9
                      A                      A                      A
 Frequencies --    170.5072               188.2906               218.6321
 Red. masses --      6.2430                 5.2615                 6.2979
 Frc consts  --      0.1069                 0.1099                 0.1774
 IR Inten    --      0.1120                 1.8644                 0.2347

                     10                     11                     12
                      A                      A                      A
 Frequencies --    263.1090               275.0156               300.2018
 Red. masses --      5.2866                 4.4537                 6.3489
 Frc consts  --      0.2156                 0.1985                 0.3371
 IR Inten    --      0.9384                 5.7886                 1.2094

                     13                     14                     15
                      A                      A                      A
 Frequencies --    319.4957               364.9375               390.5255
 Red. masses --      4.7244                 5.4636                 6.5738
 Frc consts  --      0.2841                 0.4287                 0.5907
 IR Inten    --      4.5543                 0.0010                 2.0076

                     16                     17                     18
                      A                      A                      A
 Frequencies --    398.7244               414.2868               430.0115
 Red. masses --      5.2652                 7.8463                 8.0114
 Frc consts  --      0.4932                 0.7934                 0.8728
 IR Inten    --      2.3393                 9.6817                 3.7073

                     19                     20                     21
                      A                      A                      A
 Frequencies --    437.0606               459.1980               467.0836
 Red. masses --      6.2870                10.7273                 9.9729
 Frc consts  --      0.7076                 1.3327                 1.2819
 IR Inten    --      1.9460                26.2260                31.1192

                     22                     23                     24
                      A                      A                      A
 Frequencies --    476.5922               496.7454               498.2618
 Red. masses --     10.9959                 7.9509                 5.4939
 Frc consts  --      1.4716                 1.1559                 0.8036
 IR Inten    --     43.2984                29.5052                 3.4956

                     25                     26                     27
                      A                      A                      A
 Frequencies --    535.2883               543.0399               568.8433
 Red. masses --      5.3898                 9.3289                 3.7869
 Frc consts  --      0.9099                 1.6208                 0.7220
 IR Inten    --      2.3065                 3.9004                13.0763

                     28                     29                     30
                      A                      A                      A
 Frequencies --    616.8209               638.5298               674.3610
 Red. masses --      4.9665                 4.4240                 4.6828
 Frc consts  --      1.1133                 1.0627                 1.2547
 IR Inten    --     23.0372                 1.0079                42.1034

                     31                     32                     33
                      A                      A                      A
 Frequencies --    679.7088               702.6780               728.8276
 Red. masses --      6.3966                 7.4519                 7.2811
 Frc consts  --      1.7412                 2.1679                 2.2787
 IR Inten    --      1.2841                 1.8026                17.8759

                     34                     35                     36
                      A                      A                      A
 Frequencies --    737.0535               740.3473               744.1726
 Red. masses --      7.3793                 1.2153                 1.1007
 Frc consts  --      2.3619                 0.3925                 0.3592
 IR Inten    --     28.2781               378.3878                72.4699

                     37                     38                     39
                      A                      A                      A
 Frequencies --    760.1146               766.9672               774.6281
 Red. masses --      1.0786                 1.1560                 3.6101
 Frc consts  --      0.3672                 0.4007                 1.2763
 IR Inten    --      0.0793                 4.8574               165.0183

                     40                     41                     42
                      A                      A                      A
 Frequencies --    805.1051               855.0126               864.6427
 Red. masses --      7.7904                 1.6164                 8.6556
 Frc consts  --      2.9752                 0.6962                 3.8126
 IR Inten    --     50.9188                40.7123                19.8882

                     43                     44                     45
                      A                      A                      A
 Frequencies --    902.9445               934.1471               982.4118
 Red. masses --      1.3935                 5.6430                 1.2997
 Frc consts  --      0.6694                 2.9013                 0.7391
 IR Inten    --     19.4299                58.8614                 0.0078

                     46                     47                     48
                      A                      A                      A
 Frequencies --    988.9570               996.3493              1042.8516
 Red. masses --      7.9865                 2.7716                 2.1308
 Frc consts  --      4.6022                 1.6211                 1.3654
 IR Inten    --    173.5953                 2.7365               109.8715

                     49                     50                     51
                      A                      A                      A
 Frequencies --   1055.5964              1096.0536              1159.0705
 Red. masses --      1.5255                 3.3113                 1.6653
 Frc consts  --      1.0015                 2.3438                 1.3181
 IR Inten    --      4.9330               283.1068                 0.1654

                     52                     53                     54
                      A                      A                      A
 Frequencies --   1192.4198              1206.3475              1236.1528
 Red. masses --      2.5867                 1.9342                 1.9238
 Frc consts  --      2.1670                 1.6584                 1.7321
 IR Inten    --   1825.8242               509.8465               253.6797

                     55                     56                     57
                      A                      A                      A
 Frequencies --   1273.5364              1285.7489              1306.5671
 Red. masses --      4.5078                 4.8971                 5.0295
 Frc consts  --      4.3076                 4.7698                 5.0587
 IR Inten    --    288.8319               223.4806               398.2842

                     58                     59                     60
                      A                      A                      A
 Frequencies --   1320.7203              1343.9966              1355.7776
 Red. masses --      2.5957                 2.4233                 2.3171
 Frc consts  --      2.6677                 2.5790                 2.5095
 IR Inten    --     35.6880              1069.5215               104.7596

                     61                     62                     63
                      A                      A                      A
 Frequencies --   1383.8997              1410.5000              1413.9042
 Red. masses --      2.9635                 1.2717                 3.9771
 Frc consts  --      3.3440                 1.4907                 4.6844
 IR Inten    --    712.4396                18.4882               210.4351

                     64                     65                     66
                      A                      A                      A
 Frequencies --   1420.2090              1435.4564              1444.0923
 Red. masses --      6.9418                 3.4061                 6.0080
 Frc consts  --      8.2495                 4.1351                 7.3819
 IR Inten    --    212.4434                77.9359               123.9013

                     67                     68                     69
                      A                      A                      A
 Frequencies --   1462.1803              1464.9793              1471.0897
 Red. masses --      4.0844                 1.0424                 2.3460
 Frc consts  --      5.1449                 1.3181                 2.9912
 IR Inten    --    153.8973                13.8561               464.1401

                     70                     71                     72
                      A                      A                      A
 Frequencies --   1483.9828              1512.1994              1588.3584
 Red. masses --      1.2211                 2.3865                 4.4288
 Frc consts  --      1.5843                 3.2154                 6.5831
 IR Inten    --     84.9319               264.3815               879.2003

                     73                     74                     75
                      A                      A                      A
 Frequencies --   1595.0796              1604.1807              1622.6959
 Red. masses --      2.5825                 4.0139                 4.9239
 Frc consts  --      3.8713                 6.0859                 7.6389
 IR Inten    --    179.1295               173.6239               225.5114

                     76                     77                     78
                      A                      A                      A
 Frequencies --   1639.6696              1668.3724              3034.8818
 Red. masses --      3.8636                 7.6422                 1.0370
 Frc consts  --      6.1200                12.5331                 5.6272
 IR Inten    --     23.6102                20.5716                24.4202

                     79                     80                     81
                      A                      A                      A
 Frequencies --   3084.2744              3125.3565              3187.0253
 Red. masses --      1.0995                 1.1021                 1.0916
 Frc consts  --      6.1627                 6.3429                 6.5325
 IR Inten    --     13.1473                28.4989                11.5912

                     82                     83                     84
                      A                      A                      A
 Frequencies --   3192.1275              3204.6748              3286.8950
 Red. masses --      1.0886                 1.0962                 1.0674
 Frc consts  --      6.5353                 6.6330                 6.7946
 IR Inten    --      3.7047                 8.7587               471.8071

                     85                     86                     87
                      A                      A                      A
 Frequencies --   3300.7521              3331.1764              3335.1168
 Red. masses --      1.0669                 1.0690                 1.0683
 Frc consts  --      6.8486                 6.9893                 7.0014
 IR Inten    --    639.1205                59.0070               193.2318

 - Thermochemistry -
 -------------------
 Temperature   298.150 Kelvin.  Pressure   1.00000 Atm.
 Atom     1 has atomic number  6 and mass  12.00000

 Molecular mass:   286.04774 amu.
 Principal axes and moments of inertia in atomic units:
                           1         2         3
     Eigenvalues --  3493.491256795.47405**********
           X            0.99857   0.03292   0.04210
           Y           -0.02543   0.98556  -0.16743
           Z           -0.04700   0.16612   0.98499
 This molecule is an asymmetric top.
 Rotational symmetry number  1.
 Warning -- assumption of classical behavior for rotation
           may cause significant error
 Rotational temperatures (Kelvin)      0.02479     0.01275     0.00843
 Rotational constants (GHZ):           0.51660     0.26558     0.17559
 Zero-point vibrational energy     588188.1 (Joules/Mol)
                                  140.58032 (Kcal/Mol)
 Warning -- explicit consideration of  28 degrees of freedom as
           vibrations may cause significant error
 Vibrational temperatures:     65.98    95.17   163.42   185.95   204.98
          (Kelvin)            219.38   245.32   270.91   314.56   378.56
                              395.69   431.92   459.68   525.06   561.88
                              573.68   596.07   618.69   628.83   660.68
                              672.03   685.71   714.71   716.89   770.16
                              781.31   818.44   887.47   918.70   970.26
                              977.95  1011.00  1048.62  1060.46  1065.19
                             1070.70  1093.64  1103.49  1114.52  1158.37
                             1230.17  1244.03  1299.14  1344.03  1413.47
                             1422.89  1433.52  1500.43  1518.77  1576.98
                             1667.64  1715.63  1735.66  1778.55  1832.33
                             1849.91  1879.86  1900.22  1933.71  1950.66
                             1991.12  2029.39  2034.29  2043.36  2065.30
                             2077.73  2103.75  2107.78  2116.57  2135.12
                             2175.72  2285.29  2294.96  2308.06  2334.70
                             2359.12  2400.42  4366.52  4437.58  4496.69
                             4585.42  4592.76  4610.81  4729.11  4749.05
                             4792.82  4798.49

 Zero-point correction=                           0.224029 (Hartree/Particle)
 Thermal correction to Energy=                    0.240274
 Thermal correction to Enthalpy=                  0.241219
 Thermal correction to Gibbs Free Energy=         0.181177
 Sum of electronic and zero-point Energies=          -1029.101456
 Sum of electronic and thermal Energies=             -1029.085210
 Sum of electronic and thermal Enthalpies=           -1029.084266
 Sum of electronic and thermal Free Energies=        -1029.144308

                     E (Thermal)             CV                S
                      KCal/Mol        Cal/Mol-Kelvin    Cal/Mol-Kelvin
 Total                  150.774             66.006            126.368
 Electronic               0.000              0.000              0.000
 Translational            0.889              2.981             42.851
 Rotational               0.889              2.981             33.856
 Vibrational            148.997             60.044             49.662
 Vibration     1          0.595              1.979              4.989
 Vibration     2          0.598              1.970              4.265
 Vibration     3          0.607              1.938              3.207
 Vibration     4          0.612              1.924              2.957
 Vibration     5          0.616              1.911              2.770
 Vibration     6          0.619              1.900              2.641
 Vibration     7          0.626              1.879              2.430
 Vibration     8          0.633              1.856              2.245
 Vibration     9          0.646              1.813              1.970
 Vibration    10          0.670              1.740              1.641
 Vibration    11          0.677              1.720              1.564
 Vibration    12          0.693              1.673              1.416
 Vibration    13          0.705              1.636              1.313
 Vibration    14          0.738              1.544              1.101
 Vibration    15          0.758              1.490              0.998
 Vibration    16          0.765              1.473              0.967
 Vibration    17          0.778              1.439              0.912
 Vibration    18          0.791              1.405              0.859
 Vibration    19          0.797              1.389              0.836
 Vibration    20          0.817              1.341              0.768
 Vibration    21          0.824              1.323              0.746
 Vibration    22          0.833              1.302              0.719
 Vibration    23          0.852              1.257              0.666
 Vibration    24          0.854              1.254              0.662
 Vibration    25          0.890              1.172              0.576
 Vibration    26          0.898              1.155              0.559
 Vibration    27          0.925              1.099              0.506
 Vibration    28          0.977              0.996              0.422

                           ! Non-Optimized Parameters !
 Normal termination of Gaussian 16 at Sat Feb 10 23:20:41 2024.
