 Gaussian 16, Revision A.03,
 Gaussian 16:  ES64L-G16RevA.03 25-Dec-2016

 --------------------------------------
 #P UB3LYP/6-311++G(d,p) nosym opt freq
 --------------------------------------

 --------
 Oxidized
 --------
 Symbolic Z-matrix:
 Charge =  0 Multiplicity = 1

 SCF Done:  E(UB3LYP) =  -764.184432947     A.U. after   16 cycles
 SCF Done:  E(UB3LYP) =  -764.196948879     A.U. after   14 cycles
 SCF Done:  E(UB3LYP) =  -764.197970884     A.U. after   13 cycles
 SCF Done:  E(UB3LYP) =  -764.198035735     A.U. after   11 cycles
 SCF Done:  E(UB3LYP) =  -764.198041078     A.U. after   11 cycles
 SCF Done:  E(UB3LYP) =  -764.198042141     A.U. after    9 cycles
 Optimization completed.
    -- Stationary point found.
 Normal termination of Gaussian 16 at Sat Jan  6 01:51:31 2024.

 ----------------------------------------------------------------------
 #P Geom=AllCheck Guess=TCheck SCRF=Check GenChk UB3LYP/6-311++G(d,p) F
 req
 ----------------------------------------------------------------------

 Structure from the checkpoint file:  "329.chk"
 --------
 Oxidized
 --------
 Charge =  0 Multiplicity = 1

                          Input orientation:
 ---------------------------------------------------------------------
 Center     Atomic      Atomic             Coordinates (Angstroms)
 Number     Number       Type             X           Y           Z
 ---------------------------------------------------------------------
      1          6           0       -0.642832    2.681775   -0.963376
      2          6           0       -1.718214    2.063521   -0.370078
      3          6           0       -1.590418    0.756814    0.155803
      4          6           0        0.608566    2.019698   -1.056776
      5          6           0        0.738278    0.695896   -0.524037
      6          6           0       -0.390341    0.087993    0.080903
      7          6           0        1.736168    2.625032   -1.660298
      8          6           0        2.941299    1.958817   -1.737815
      9          6           0        3.073299    0.639147   -1.207599
     10          6           0        1.989778    0.034587   -0.617766
     11          6           0        4.100179    2.608846   -2.369952
     12          6           0        5.384851    1.841009   -2.427768
     13          6           0        5.506693    0.593899   -1.925944
     14          6           0        4.380923   -0.092187   -1.288137
     15          8           0        4.093022    3.734699   -2.854374
     16          8           0        4.502566   -1.222888   -0.836589
     17          8           0        6.390656    2.496266   -3.015674
     18          1           0       -0.737393    3.683756   -1.367636
     19          1           0       -2.670690    2.576412   -0.302818
     20          1           0       -2.447002    0.282210    0.620623
     21          1           0       -0.292480   -0.913930    0.484154
     22          1           0        1.660745    3.626093   -2.069984
     23          1           0        2.107062   -0.967369   -0.220356
     24          1           0        6.446333    0.057452   -1.979097
     25          1           0        6.031253    3.364723   -3.281670
 ---------------------------------------------------------------------

 SCF Done:  E(UB3LYP) =  -764.198042141     A.U. after    3 cycles

 Alpha  occ. eigenvalues --  -19.18348 -19.15118 -19.12024 -10.29600 -10.27610
 Alpha  occ. eigenvalues --  -10.27538 -10.21670 -10.21630 -10.21624 -10.21342
 Alpha  occ. eigenvalues --  -10.21119 -10.20587 -10.20527 -10.20496 -10.20393
 Alpha  occ. eigenvalues --  -10.20362 -10.19896  -1.11380  -1.07044  -1.05291
 Alpha  occ. eigenvalues --   -0.91134  -0.86939  -0.82764  -0.80913  -0.77571
 Alpha  occ. eigenvalues --   -0.76037  -0.70165  -0.67915  -0.64959  -0.63164
 Alpha  occ. eigenvalues --   -0.61434  -0.57529  -0.56930  -0.53785  -0.52920
 Alpha  occ. eigenvalues --   -0.50107  -0.49214  -0.47434  -0.47363  -0.46466
 Alpha  occ. eigenvalues --   -0.45958  -0.44797  -0.44385  -0.43464  -0.42858
 Alpha  occ. eigenvalues --   -0.41455  -0.40845  -0.40124  -0.39772  -0.37891
 Alpha  occ. eigenvalues --   -0.36403  -0.35208  -0.31841  -0.30494  -0.28629
 Alpha  occ. eigenvalues --   -0.27313  -0.26858  -0.25148
 Alpha virt. eigenvalues --   -0.12538  -0.08714  -0.03985  -0.02290  -0.01512
 Alpha virt. eigenvalues --   -0.00471   0.00084   0.01317   0.02025   0.02191
 Alpha virt. eigenvalues --    0.03029   0.03148   0.03336   0.04593   0.04627

  Beta  occ. eigenvalues --  -19.18348 -19.15118 -19.12024 -10.29600 -10.27610
  Beta  occ. eigenvalues --  -10.27538 -10.21670 -10.21630 -10.21624 -10.21342
  Beta  occ. eigenvalues --  -10.21119 -10.20587 -10.20527 -10.20496 -10.20393
  Beta  occ. eigenvalues --  -10.20362 -10.19896  -1.11380  -1.07044  -1.05291
  Beta  occ. eigenvalues --   -0.91134  -0.86939  -0.82764  -0.80913  -0.77571
  Beta  occ. eigenvalues --   -0.76037  -0.70165  -0.67915  -0.64959  -0.63164
  Beta  occ. eigenvalues --   -0.61434  -0.57529  -0.56930  -0.53785  -0.52920
  Beta  occ. eigenvalues --   -0.50107  -0.49214  -0.47434  -0.47363  -0.46466
  Beta  occ. eigenvalues --   -0.45958  -0.44797  -0.44385  -0.43464  -0.42858
  Beta  occ. eigenvalues --   -0.41455  -0.40845  -0.40124  -0.39772  -0.37891
  Beta  occ. eigenvalues --   -0.36403  -0.35208  -0.31841  -0.30494  -0.28629
  Beta  occ. eigenvalues --   -0.27313  -0.26858  -0.25148
  Beta virt. eigenvalues --   -0.12538  -0.08714  -0.03985  -0.02290  -0.01512
  Beta virt. eigenvalues --   -0.00471   0.00084   0.01317   0.02025   0.02191
  Beta virt. eigenvalues --    0.03029   0.03148   0.03336   0.04593   0.04627

 Mulliken charges and spin densities:
               1          2
     1  C   -0.146757   0.000000
     2  C   -0.294953  -0.000000
     3  C   -0.290047  -0.000000
     4  C    0.235169   0.000000
     5  C    0.222219   0.000000
     6  C   -0.133369  -0.000000
     7  C    0.177345  -0.000000
     8  C    0.365703  -0.000000
     9  C    0.360732   0.000000
    10  C    0.188378   0.000000
    11  C   -0.797337   0.000000
    12  C   -0.468813  -0.000000
    13  C    0.554805   0.000000
    14  C   -0.735459  -0.000000
    15  O   -0.271991   0.000000
    16  O   -0.242203   0.000000
    17  O   -0.200825   0.000000
    18  H    0.148924   0.000000
    19  H    0.175157   0.000000
    20  H    0.175683  -0.000000
    21  H    0.151680   0.000000
    22  H    0.153437  -0.000000
    23  H    0.151874   0.000000
    24  H    0.234246  -0.000000
    25  H    0.286403  -0.000000
 Sum of Mulliken charges =  -0.00000   0.00000

 Dipole moment (field-independent basis, Debye):
    X=             -4.0159    Y=              1.5508    Z=              0.5486  Tot=              4.3398
 Quadrupole moment (field-independent basis, Debye-Ang):
   XX=           -108.6895   YY=            -98.8970   ZZ=            -99.8932
   XY=              2.2206   XZ=              1.7285   YZ=             -1.0747

  Exact polarizability: 271.046  -6.305 179.592 -54.699 -40.396 115.709
 Approx polarizability: 422.778 -13.195 356.600 -82.623 -93.260 196.849

                      1                      2                      3
                      A                      A                      A
 Frequencies --     57.4196                80.7431               105.5750
 Red. masses --      7.8254                 5.1415                 8.1764
 Frc consts  --      0.0152                 0.0197                 0.0537
 IR Inten    --      1.8640                 0.0008                 1.6770

                      4                      5                      6
                      A                      A                      A
 Frequencies --    169.5012               170.9986               233.9599
 Red. masses --      6.5167                 6.9543                 4.4382
 Frc consts  --      0.1103                 0.1198                 0.1431
 IR Inten    --      1.7227                 0.5085                 0.1539

                      7                      8                      9
                      A                      A                      A
 Frequencies --    249.9049               302.2087               330.9632
 Red. masses --      5.4924                 7.1869                 6.3974
 Frc consts  --      0.2021                 0.3867                 0.4129
 IR Inten    --      0.8844                 0.2976                12.4189

                     10                     11                     12
                      A                      A                      A
 Frequencies --    352.4258               389.7986               415.4117
 Red. masses --      6.8010                 3.6046                10.6995
 Frc consts  --      0.4977                 0.3227                 1.0879
 IR Inten    --      9.5012                 0.0355                22.8419

                     13                     14                     15
                      A                      A                      A
 Frequencies --    443.3174               485.5728               488.2736
 Red. masses --      5.2499                 9.6163                 2.6565
 Frc consts  --      0.6079                 1.3359                 0.3732
 IR Inten    --      1.5256                 2.2561                17.2118

                     16                     17                     18
                      A                      A                      A
 Frequencies --    490.8603               512.5241               597.2056
 Red. masses --      7.4860                 4.2121                 7.2936
 Frc consts  --      1.0627                 0.6519                 1.5326
 IR Inten    --     17.0910                 0.0483                 3.5403

                     19                     20                     21
                      A                      A                      A
 Frequencies --    620.7262               627.1379               642.6595
 Red. masses --      6.8490                 3.8640                 1.2104
 Frc consts  --      1.5548                 0.8954                 0.2945
 IR Inten    --      3.5042                 4.8520                87.5135

                     22                     23                     24
                      A                      A                      A
 Frequencies --    667.1631               708.0154               737.8239
 Red. masses --      6.8103                 5.1723                 3.9778
 Frc consts  --      1.7860                 1.5276                 1.2758
 IR Inten    --      3.8616                13.6437                 1.5374

                     25                     26                     27
                      A                      A                      A
 Frequencies --    743.0603               760.9820               770.7515
 Red. masses --      4.9124                 5.7133                 1.4815
 Frc consts  --      1.5981                 1.9493                 0.5185
 IR Inten    --      2.3223                 4.0094                61.6372

                     28                     29                     30
                      A                      A                      A
 Frequencies --    773.8547               791.9144               872.6530
 Red. masses --      3.4589                 4.5451                 1.3601
 Frc consts  --      1.2204                 1.6794                 0.6103
 IR Inten    --      4.6580                 0.8359                 0.6732

                     31                     32                     33
                      A                      A                      A
 Frequencies --    877.9936               902.7156               938.8263
 Red. masses --      1.4039                 5.1608                 1.4651
 Frc consts  --      0.6376                 2.4778                 0.7608
 IR Inten    --     44.8025                14.3203                 3.7153

                     34                     35                     36
                      A                      A                      A
 Frequencies --    950.9687               985.5322               992.8055
 Red. masses --      1.4116                 1.4121                 4.0844
 Frc consts  --      0.7521                 0.8081                 2.3719
 IR Inten    --     11.2653                 8.3091                37.1503

                     37                     38                     39
                      A                      A                      A
 Frequencies --   1003.7322              1041.3907              1083.0810
 Red. masses --      1.3084                 2.3474                 3.0404
 Frc consts  --      0.7766                 1.4999                 2.1014
 IR Inten    --      0.0429                 2.4256                22.8022

                     40                     41                     42
                      A                      A                      A
 Frequencies --   1157.4175              1178.9310              1195.5375
 Red. masses --      1.5861                 1.2298                 1.7811
 Frc consts  --      1.2519                 1.0070                 1.4999
 IR Inten    --      2.8501                 2.8457                55.7763

                     43                     44                     45
                      A                      A                      A
 Frequencies --   1222.9141              1238.0502              1252.9669
 Red. masses --      1.7367                 1.5905                 2.8972
 Frc consts  --      1.5302                 1.4363                 2.6798
 IR Inten    --     88.7540               116.9548                72.3129

                     46                     47                     48
                      A                      A                      A
 Frequencies --   1271.3056              1285.6492              1318.1313
 Red. masses --      2.2500                 2.1692                 4.5151
 Frc consts  --      2.1425                 2.1125                 4.6220
 IR Inten    --     82.4256                 4.4413               329.8619

                     49                     50                     51
                      A                      A                      A
 Frequencies --   1360.1049              1392.3905              1423.8670
 Red. masses --      2.3551                 6.5131                 3.5744
 Frc consts  --      2.5668                 7.4398                 4.2696
 IR Inten    --     24.4820                 0.4888               197.0625

                     52                     53                     54
                      A                      A                      A
 Frequencies --   1433.1626              1482.1038              1483.3425
 Red. masses --      2.3290                 2.8865                 2.8565
 Frc consts  --      2.8184                 3.7358                 3.7031
 IR Inten    --    241.3276                 1.8014                41.5758

                     55                     56                     57
                      A                      A                      A
 Frequencies --   1535.4072              1602.9814              1624.3558
 Red. masses --      3.5059                 7.0489                 6.4628
 Frc consts  --      4.8696                10.6716                10.0470
 IR Inten    --     13.7212                14.3830                57.1229

                     58                     59                     60
                      A                      A                      A
 Frequencies --   1652.6047              1693.6277              1701.2279
 Red. masses --      5.8878                 6.8448                11.5174
 Frc consts  --      9.4742                11.5677                19.6395
 IR Inten    --     64.5828               192.8252                57.1859

                     61                     62                     63
                      A                      A                      A
 Frequencies --   1713.4019              3165.5820              3171.2228
 Red. masses --     11.2634                 1.0861                 1.0886
 Frc consts  --     19.4821                 6.4123                 6.4502
 IR Inten    --    390.3410                 0.4183                 0.3756

                     64                     65                     66
                      A                      A                      A
 Frequencies --   3181.5555              3184.5469              3185.8968
 Red. masses --      1.0936                 1.0912                 1.0908
 Frc consts  --      6.5219                 6.5201                 6.5231
 IR Inten    --     12.1420                 2.6838                 0.3176

                     67                     68                     69
                      A                      A                      A
 Frequencies --   3192.5544              3197.9082              3609.3257
 Red. masses --      1.0975                 1.0922                 1.0642
 Frc consts  --      6.5908                 6.5808                 8.1680
 IR Inten    --     18.0039                 1.2882               133.1973

 - Thermochemistry -
 -------------------
 Temperature   298.150 Kelvin.  Pressure   1.00000 Atm.
 Atom     1 has atomic number  6 and mass  12.00000

 Molecular mass:   224.04734 amu.
 Principal axes and moments of inertia in atomic units:
                           1         2         3
     Eigenvalues --  1711.735745728.204997439.94071
           X            0.94870  -0.16751   0.26816
           Y            0.05488   0.92249   0.38210
           Z           -0.31138  -0.34778   0.88436
 This molecule is an asymmetric top.
 Rotational symmetry number  1.
 Warning -- assumption of classical behavior for rotation
           may cause significant error
 Rotational temperatures (Kelvin)      0.05060     0.01512     0.01164
 Rotational constants (GHZ):           1.05433     0.31506     0.24257
 Zero-point vibrational energy     481368.5 (Joules/Mol)
                                  115.04983 (Kcal/Mol)
 Warning -- explicit consideration of  19 degrees of freedom as
           vibrations may cause significant error
 Vibrational temperatures:     82.61   116.17   151.90   243.87   246.03
          (Kelvin)            336.62   359.56   434.81   476.18   507.06
                              560.83   597.68   637.83   698.63   702.52
                              706.24   737.41   859.25   893.09   902.31
                              924.64   959.90  1018.68  1061.56  1069.10
                             1094.88  1108.94  1113.40  1139.39  1255.55
                             1263.24  1298.81  1350.76  1368.23  1417.96
                             1428.43  1444.15  1498.33  1558.31  1665.27
                             1696.22  1720.11  1759.50  1781.28  1802.74
                             1829.13  1849.76  1896.50  1956.89  2003.34
                             2048.63  2062.00  2132.42  2134.20  2209.11
                             2306.33  2337.09  2377.73  2436.75  2447.69
                             2465.20  4554.57  4562.68  4577.55  4581.85
                             4583.79  4593.37  4601.08  5193.01

 Zero-point correction=                           0.183344 (Hartree/Particle)
 Thermal correction to Energy=                    0.195658
 Thermal correction to Enthalpy=                  0.196602
 Thermal correction to Gibbs Free Energy=         0.144553
 Sum of electronic and zero-point Energies=           -764.014699
 Sum of electronic and thermal Energies=              -764.002384
 Sum of electronic and thermal Enthalpies=            -764.001440
 Sum of electronic and thermal Free Energies=         -764.053489

                     E (Thermal)             CV                S
                      KCal/Mol        Cal/Mol-Kelvin    Cal/Mol-Kelvin
 Total                  122.777             50.089            109.547
 Electronic               0.000              0.000              0.000
 Translational            0.889              2.981             42.123
 Rotational               0.889              2.981             32.656
 Vibrational            121.000             44.127             34.768
 Vibration     1          0.596              1.975              4.544
 Vibration     2          0.600              1.962              3.873
 Vibration     3          0.605              1.945              3.349
 Vibration     4          0.625              1.880              2.441
 Vibration     5          0.626              1.878              2.424
 Vibration     6          0.654              1.789              1.848
 Vibration     7          0.663              1.763              1.731
 Vibration     8          0.694              1.670              1.405
 Vibration     9          0.713              1.614              1.255
 Vibration    10          0.729              1.570              1.155
 Vibration    11          0.758              1.492              1.001
 Vibration    12          0.779              1.437              0.908
 Vibration    13          0.803              1.376              0.816
 Vibration    14          0.842              1.282              0.695
 Vibration    15          0.844              1.276              0.688
 Vibration    16          0.847              1.270              0.681
 Vibration    17          0.868              1.222              0.628
 Vibration    18          0.955              1.038              0.454
 Vibration    19          0.981              0.988              0.415

 Optimization completed.
    -- Stationary point found.
 Normal termination of Gaussian 16 at Sat Jan  6 02:16:57 2024.
