 Q-Chem 5.4, Q-Chem, Inc., Pleasanton, CA (2021)
 Q-Chem 5.4.0 for Intel X86 EM64T Linux

User input:
--------------------------------------------------------------
$molecule
-2 1
C                 -4.8343240000      1.1252120000     -1.5815710000
C                 -3.5990510000      0.6094170000     -0.8837880000
C                 -3.7257950000     -0.2325300000      0.2559280000
C                 -2.6282210000     -0.7233780000      0.9432870000
C                 -2.8979050000     -1.6096240000      2.1425260000
C                 -1.2967360000     -0.3978800000      0.5073360000
C                 -0.1166000000     -0.9058830000      1.1833790000
O                 -0.1685850000     -1.6857960000      2.2001830000
C                  1.1629770000     -0.4744840000      0.6401560000
C                  2.3303720000     -0.9508530000      1.2907760000
C                  3.5992640000     -0.6296650000      0.8686130000
C                  4.8344620000     -1.1376220000      1.5722460000
C                  3.7258170000      0.2295130000     -0.2581980000
C                  2.6280730000      0.7369640000     -0.9331080000
C                  2.8975600000      1.6428170000     -2.1176500000
C                  1.2967770000      0.3923870000     -0.5114480000
C                  0.1168240000      0.8834820000     -1.2001450000
O                  0.1689870000      1.6416560000     -2.2332560000
C                 -1.1628960000      0.4661570000     -0.6463710000
C                 -2.3302670000      0.9414330000     -1.2978280000
H                 -5.4661460000      0.3097110000     -1.9561310000
H                 -5.4739590000      1.7249810000     -0.9096710000
H                 -4.5702530000      1.7582670000     -2.4344390000
H                 -4.7227700000     -0.5068250000      0.5997440000
H                 -2.4642750000     -2.6036560000      2.0124860000
H                 -2.4282840000     -1.2159100000      3.0459240000
H                 -3.9821020000     -1.6963880000      2.2989290000
H                  2.1673450000     -1.5921440000      2.1513290000
H                  5.4820870000     -1.7158870000      0.9008870000
H                  4.5705590000     -1.7833890000      2.4155800000
H                  5.4579940000     -0.3157080000      1.9672030000
H                  4.7228750000      0.4956680000     -0.6081220000
H                  3.9812170000      1.7827880000     -2.2341310000
H                  2.4138810000      2.6141040000     -1.9980330000
H                  2.4784010000      1.2333760000     -3.0394640000
H                 -2.1673030000      1.5896910000     -2.1531580000
$end
$rem
MAX_SCF_CYCLES=200
BASIS  =  6-311++G(d,p)
GUI  =  2
JOB_TYPE  =  SP
METHOD  =  B3LYP
SOLVENT_METHOD = PCM
$end
$pcm
theory = CPCM
$end
$solvent
dielectric 37.219
opticaldielectric 1.43
$end

--------------------------------------------------------------

             Standard Nuclear Orientation (Angstroms)
    I     Atom           X                Y                Z
 ----------------------------------------------------------------
    1      C      -4.8343240000     1.1252120000    -1.5815710000
    2      C      -3.5990510000     0.6094170000    -0.8837880000
    3      C      -3.7257950000    -0.2325300000     0.2559280000
    4      C      -2.6282210000    -0.7233780000     0.9432870000
    5      C      -2.8979050000    -1.6096240000     2.1425260000
    6      C      -1.2967360000    -0.3978800000     0.5073360000
    7      C      -0.1166000000    -0.9058830000     1.1833790000
    8      O      -0.1685850000    -1.6857960000     2.2001830000
    9      C       1.1629770000    -0.4744840000     0.6401560000
   10      C       2.3303720000    -0.9508530000     1.2907760000
   11      C       3.5992640000    -0.6296650000     0.8686130000
   12      C       4.8344620000    -1.1376220000     1.5722460000
   13      C       3.7258170000     0.2295130000    -0.2581980000
   14      C       2.6280730000     0.7369640000    -0.9331080000
   15      C       2.8975600000     1.6428170000    -2.1176500000
   16      C       1.2967770000     0.3923870000    -0.5114480000
   17      C       0.1168240000     0.8834820000    -1.2001450000
   18      O       0.1689870000     1.6416560000    -2.2332560000
   19      C      -1.1628960000     0.4661570000    -0.6463710000
   20      C      -2.3302670000     0.9414330000    -1.2978280000
   21      H      -5.4661460000     0.3097110000    -1.9561310000
   22      H      -5.4739590000     1.7249810000    -0.9096710000
   23      H      -4.5702530000     1.7582670000    -2.4344390000
   24      H      -4.7227700000    -0.5068250000     0.5997440000
   25      H      -2.4642750000    -2.6036560000     2.0124860000
   26      H      -2.4282840000    -1.2159100000     3.0459240000
   27      H      -3.9821020000    -1.6963880000     2.2989290000
   28      H       2.1673450000    -1.5921440000     2.1513290000
   29      H       5.4820870000    -1.7158870000     0.9008870000
   30      H       4.5705590000    -1.7833890000     2.4155800000
   31      H       5.4579940000    -0.3157080000     1.9672030000
   32      H       4.7228750000     0.4956680000    -0.6081220000
   33      H       3.9812170000     1.7827880000    -2.2341310000
   34      H       2.4138810000     2.6141040000    -1.9980330000
   35      H       2.4784010000     1.2333760000    -3.0394640000
   36      H      -2.1673030000     1.5896910000    -2.1531580000
 ----------------------------------------------------------------

    9    -846.4821693402      4.95e-06  Convergence criterion met
 Total energy in the final basis set =     -846.4821693402

                    Orbital Energies (a.u.)
 --------------------------------------------------------------

 Alpha MOs
 -- Occupied --
-19.0124 -19.0124 -10.1698 -10.1698 -10.1565 -10.1565 -10.1500 -10.1500
-10.1494 -10.1494 -10.1381 -10.1381 -10.1359 -10.1359 -10.1342 -10.1342
-10.1323 -10.1323 -10.1282 -10.1282  -0.9377  -0.9345  -0.8271  -0.8237
 -0.7610  -0.7527  -0.7489  -0.7196  -0.6767  -0.6636  -0.6610  -0.6560
 -0.6101  -0.5886  -0.5611  -0.5327  -0.5054  -0.5002  -0.4673  -0.4463
 -0.4301  -0.4282  -0.4080  -0.4056  -0.4019  -0.3918  -0.3898  -0.3887
 -0.3838  -0.3781  -0.3740  -0.3724  -0.3680  -0.3588  -0.3570  -0.3426
 -0.3380  -0.3334  -0.3227  -0.3092  -0.3082  -0.3082  -0.2941  -0.2883
 -0.2198  -0.2161  -0.2155  -0.2047  -0.1938  -0.1866  -0.0977

          Ground-State Mulliken Net Atomic Charges

     Atom                 Charge (a.u.)
  ----------------------------------------
      1 C                    -0.414497
      2 C                     0.441576
      3 C                    -0.508138
      4 C                     0.364755
      5 C                    -0.534174
      6 C                     0.197355
      7 C                    -0.797442
      8 O                    -0.645609
      9 C                     0.104639
     10 C                    -0.338141
     11 C                     0.442011
     12 C                    -0.413713
     13 C                    -0.507224
     14 C                     0.362036
     15 C                    -0.534035
     16 C                     0.198177
     17 C                    -0.795864
     18 O                    -0.645602
     19 C                     0.103937
     20 C                    -0.339439
     21 H                     0.155747
     22 H                     0.155171
     23 H                     0.154721
     24 H                     0.112373
     25 H                     0.150180
     26 H                     0.149454
     27 H                     0.138894
     28 H                     0.113109
     29 H                     0.156035
     30 H                     0.154714
     31 H                     0.154961
     32 H                     0.112338
     33 H                     0.138815
     34 H                     0.149497
     35 H                     0.150148
     36 H                     0.113229
  ----------------------------------------
  Sum of atomic charges =    -2.000005

                    Cartesian Multipole Moments
 -----------------------------------------------------------------
    Charge (ESU x 10^10)
                -9.6064
    Dipole Moment (Debye)
         X      -0.0030      Y       0.1538      Z       0.1157
       Tot       0.1925
    Quadrupole Moments (Debye-Ang)
        XX    -145.8904     XY      -0.6464     YY    -149.5779
        XZ       0.6292     YZ      23.9520     ZZ    -163.5404

 Total job time:  118.65s(wall), 602.10s(cpu)
        *  Thank you very much for using Q-Chem.  Have a nice day.  *
