 Q-Chem 5.4, Q-Chem, Inc., Pleasanton, CA (2021)
 Q-Chem 5.4.0 for Intel X86 EM64T Linux

User input:
--------------------------------------------------------------
$molecule
-2 1
O                 -2.2685100000     -2.7182020000     -0.4062250000
C                 -2.3103970000     -1.3455610000     -0.1897610000
C                 -3.5421980000     -0.7373270000     -0.0782770000
C                 -3.6515660000      0.6664310000      0.1473470000
C                 -2.5004680000      1.4071530000      0.2622760000
C                 -1.2119930000      0.8259310000      0.1570330000
C                 -0.0660840000      1.6982540000      0.2919690000
O                 -0.1876460000      2.9540010000      0.5052000000
C                  1.2360810000      1.0608160000      0.1694010000
C                  2.4025510000      1.8634790000      0.2943220000
C                  3.6544920000      1.2943560000      0.1827370000
C                  3.8123570000     -0.0865900000     -0.0564430000
C                  2.7054930000     -0.9473390000     -0.1923880000
O                  2.8505650000     -2.2236750000     -0.4125260000
C                  1.3628940000     -0.3489590000     -0.0748970000
C                  0.2096200000     -1.1765000000     -0.2034670000
O                  0.3738670000     -2.5152960000     -0.4415460000
C                 -1.0755040000     -0.6121840000     -0.0860800000
H                 -3.1840630000     -2.9912740000     -0.5248240000
H                 -4.4407130000     -1.3520000000     -0.1587530000
H                 -4.6328920000      1.1278960000      0.2302880000
H                 -2.5236690000      2.4773260000      0.4382660000
H                  2.2594340000      2.9217010000      0.4777040000
H                  4.5433700000      1.9197710000      0.2805440000
H                  4.8006950000     -0.5325680000     -0.1434320000
H                  1.3842850000     -2.6296370000     -0.4684670000
$end
$rem
MAX_SCF_CYCLES=200
BASIS  =  6-311++G(d,p)
GUI  =  2
JOB_TYPE  =  SP
METHOD  =  B3LYP
SOLVENT_METHOD = COSMO
$end
$solvent
dielectric 37.219
opticaldielectric 1.43
$end

--------------------------------------------------------------

             Standard Nuclear Orientation (Angstroms)
    I     Atom           X                Y                Z
 ----------------------------------------------------------------
    1      O       2.6160499835    -2.3757417339    -0.0242517752
    2      C       2.5124268378    -0.9894662807    -0.0082171098
    3      C       3.6729424501    -0.2459074959    -0.0023152683
    4      C       3.6331079774     1.1794516820     0.0106654961
    5      C       2.4099952335     1.8046632470     0.0074911337
    6      C       1.1902485177     1.0827120893    -0.0007188094
    7      C      -0.0416279339     1.8408296244    -0.0016063559
    8      O      -0.0537361847     3.1202819571    -0.0009538260
    9      C      -1.2689884048     1.0594400691    -0.0022718965
   10      C      -2.5139451561     1.7454428700    -0.0051447445
   11      C      -3.6985912150     1.0381084746    -0.0046579027
   12      C      -3.7092970045    -0.3722150829    -0.0010337429
   13      C      -2.5174574570    -1.1232310728     0.0023240159
   14      O      -2.5265280606    -2.4264777634     0.0047728294
   15      C      -1.2457594137    -0.3767601879     0.0019513960
   16      C      -0.0112942181    -1.0891408841     0.0041182702
   17      O      -0.0327745710    -2.4586232151     0.0136133430
   18      C       1.2068206696    -0.3820848620    -0.0025038751
   19      H       3.5558895631    -2.5676797973     0.0578011367
   20      H       4.6314420350    -0.7681578427    -0.0150278533
   21      H       4.5601010172     1.7481956242     0.0173067626
   22      H       2.3197590172     2.8856862303     0.0127590904
   23      H      -2.4837197362     2.8285055727    -0.0077602434
   24      H      -4.6487376874     1.5747925617    -0.0071281550
   25      H      -4.6448634937    -0.9271842596    -0.0011824431
   26      H      -1.0254453514    -2.6807251876     0.0093034953
 ----------------------------------------------------------------

   11    -839.4426025313      8.79e-06  Convergence criterion met
 Total energy in the final basis set =     -839.4426025313
    6    -839.7190964447      3.42e-06  Convergence criterion met
 Total energy in the final basis set =     -839.7190964447

                    Orbital Energies (a.u.)
 --------------------------------------------------------------

 Alpha MOs
 -- Occupied --
-19.1390 -19.0975 -19.0563 -19.0354 -10.2240 -10.2038 -10.1987 -10.1904
-10.1625 -10.1550 -10.1537 -10.1525 -10.1488 -10.1478 -10.1464 -10.1445
-10.1328 -10.1304  -1.0476  -1.0178  -0.9645  -0.9563  -0.8360  -0.8138
 -0.7663  -0.7289  -0.7153  -0.7015  -0.6532  -0.6182  -0.6051  -0.5661
 -0.5519  -0.5300  -0.4992  -0.4896  -0.4726  -0.4512  -0.4437  -0.4325
 -0.4271  -0.4117  -0.3955  -0.3924  -0.3876  -0.3839  -0.3734  -0.3626
 -0.3569  -0.3496  -0.3441  -0.3312  -0.3255  -0.3143  -0.3125  -0.2907
 -0.2561  -0.2318  -0.2247  -0.2196  -0.2094  -0.1879  -0.1255

          Ground-State Mulliken Net Atomic Charges

     Atom                 Charge (a.u.)
  ----------------------------------------
      1 O                    -0.310364
      2 C                    -0.058065
      3 C                    -0.263319
      4 C                    -0.431917
      5 C                    -0.087264
      6 C                     0.124112
      7 C                    -0.294634
      8 O                    -0.654104
      9 C                     0.275615
     10 C                    -0.188453
     11 C                    -0.433310
     12 C                    -0.370211
     13 C                    -0.246154
     14 O                    -0.685793
     15 C                     0.467007
     16 C                    -0.053319
     17 O                    -0.579450
     18 C                     0.002033
     19 H                     0.311567
     20 H                     0.162532
     21 H                     0.194470
     22 H                     0.148508
     23 H                     0.146401
     24 H                     0.179346
     25 H                     0.160196
     26 H                     0.484568
  ----------------------------------------
  Sum of atomic charges =    -2.000000

                    Cartesian Multipole Moments
 -----------------------------------------------------------------
    Charge (ESU x 10^10)
                -9.6064
    Dipole Moment (Debye)
         X       8.9741      Y      -1.8009      Z       0.1316
       Tot       9.1540
    Quadrupole Moments (Debye-Ang)
        XX    -132.3994     XY     -17.3541     YY    -170.9372
        XZ       0.5773     YZ      -0.3372     ZZ    -116.1752

 Total job time:  176.97s(wall), 523.22s(cpu)
        *  Thank you very much for using Q-Chem.  Have a nice day.  *
