 Gaussian 16, Revision A.03,
 Gaussian 16:  ES64L-G16RevA.03 25-Dec-2016

 ----------------------------------------------------------------------
 #P UB3LYP/6-311++G(d,p) nosym opt freq SCRF=(PCM,Solvent=n,n-DiMethylF
 ormamide)
 ----------------------------------------------------------------------

 -------
 Reduced
 -------
 Symbolic Z-matrix:
 Charge = -2 Multiplicity = 1

 SCF Done:  E(UB3LYP) =  -1389.54500711     A.U. after   18 cycles
 SCF Done:  E(UB3LYP) =  -1389.54494856     A.U. after   18 cycles
 SCF Done:  E(UB3LYP) =  -1389.54656744     A.U. after   15 cycles
 SCF Done:  E(UB3LYP) =  -1389.54750071     A.U. after   18 cycles
 SCF Done:  E(UB3LYP) =  -1389.54742016     A.U. after   16 cycles
 SCF Done:  E(UB3LYP) =  -1389.54756400     A.U. after   14 cycles
 SCF Done:  E(UB3LYP) =  -1389.54772926     A.U. after   15 cycles
 SCF Done:  E(UB3LYP) =  -1389.54773576     A.U. after   14 cycles
 SCF Done:  E(UB3LYP) =  -1389.54774190     A.U. after   14 cycles
 SCF Done:  E(UB3LYP) =  -1389.54774224     A.U. after   11 cycles
 SCF Done:  E(UB3LYP) =  -1389.54774275     A.U. after   12 cycles
 SCF Done:  E(UB3LYP) =  -1389.54774299     A.U. after   12 cycles
 SCF Done:  E(UB3LYP) =  -1389.54774314     A.U. after   12 cycles
 SCF Done:  E(UB3LYP) =  -1389.54774333     A.U. after   11 cycles
 SCF Done:  E(UB3LYP) =  -1389.54774338     A.U. after   11 cycles
 Optimization completed.
    -- Stationary point found.
 Normal termination of Gaussian 16 at Sat Feb 10 14:28:08 2024.

 ----------------------------------------------------------------------
 #P Geom=AllCheck Guess=TCheck SCRF=Check GenChk UB3LYP/6-311++G(d,p) F
 req
 ----------------------------------------------------------------------

 Structure from the checkpoint file:  "097-an.chk"
 -------
 Reduced
 -------
 Charge = -2 Multiplicity = 1

                          Input orientation:
 ---------------------------------------------------------------------
 Center     Atomic      Atomic             Coordinates (Angstroms)
 Number     Number       Type             X           Y           Z
 ---------------------------------------------------------------------
      1          6           0        1.082571    4.313773    5.372895
      2          6           0        1.297011    4.072810    3.972017
      3          6           0        0.865477    2.943216    3.317639
      4          6           0        0.141620    1.884165    3.966711
      5          6           0       -0.101121    2.126873    5.357098
      6          6           0        0.347501    3.301074    6.043488
      7          8           0        1.565551    5.367681    5.968081
      8          8           0       -0.264574    0.840748    3.330044
      9          1           0        1.845611    4.835524    3.423519
     10          1           0        1.062062    2.818992    2.255385
     11         16           0       -1.126145    0.936348    6.178457
     12          6           0        0.247184    3.496479    7.522980
     13          8           0        1.015199    3.029852    8.343728
     14          8           0       -0.739465    4.348903    7.869333
     15          6           0       -0.854100    4.661949    9.269681
     16          1           0       -1.680825    5.365103    9.346660
     17          1           0        0.065944    5.117856    9.638248
     18          1           0       -1.069034    3.760698    9.845738
     19          6           0       -2.699919    0.865786    5.282364
     20          6           0       -2.932240   -0.134868    4.342145
     21          6           0       -3.671308    1.823824    5.575483
     22          6           0       -4.165596   -0.179875    3.691801
     23          6           0       -4.896869    1.775074    4.914019
     24          6           0       -5.145014    0.772628    3.974109
     25          8           0       -0.546745   -0.429275    6.155782
     26          8           0       -1.469139    1.464143    7.525170
     27          1           0       -2.156805   -0.854681    4.126198
     28          1           0       -3.474241    2.588275    6.316427
     29          1           0       -4.358483   -0.958055    2.962016
     30          1           0       -5.658075    2.513505    5.138186
     31          1           0       -6.100611    0.734707    3.463357
 ---------------------------------------------------------------------

 SCF Done:  E(UB3LYP) =  -1389.54774338     A.U. after    2 cycles

 Alpha  occ. eigenvalues --  -89.03413 -19.15587 -19.10032 -19.09969 -19.09790
 Alpha  occ. eigenvalues --  -19.03206 -19.02325 -10.29336 -10.21303 -10.20280
 Alpha  occ. eigenvalues --  -10.19813 -10.18770 -10.18693 -10.18368 -10.18280
 Alpha  occ. eigenvalues --  -10.18144 -10.18062 -10.17161 -10.15541 -10.14586
 Alpha  occ. eigenvalues --  -10.14288  -8.09767  -6.06075  -6.05950  -6.05831
 Alpha  occ. eigenvalues --   -1.09608  -1.08790  -1.00664  -0.98242  -0.95102
 Alpha  occ. eigenvalues --   -0.93566  -0.86879  -0.80871  -0.77249  -0.75680
 Alpha  occ. eigenvalues --   -0.74859  -0.72603  -0.68573  -0.65196  -0.61544
 Alpha  occ. eigenvalues --   -0.61203  -0.59199  -0.55964  -0.54731  -0.52464
 Alpha  occ. eigenvalues --   -0.49215  -0.48041  -0.47368  -0.47118  -0.46865
 Alpha  occ. eigenvalues --   -0.46723  -0.45070  -0.44738  -0.43306  -0.43120
 Alpha  occ. eigenvalues --   -0.42817  -0.40928  -0.38442  -0.38170  -0.37721
 Alpha  occ. eigenvalues --   -0.37217  -0.36727  -0.35839  -0.35477  -0.34902
 Alpha  occ. eigenvalues --   -0.34178  -0.32833  -0.32340  -0.30999  -0.30038
 Alpha  occ. eigenvalues --   -0.28940  -0.28510  -0.27815  -0.26754  -0.26429
 Alpha  occ. eigenvalues --   -0.23902  -0.23556  -0.20910  -0.20493  -0.13802
 Alpha virt. eigenvalues --   -0.03908  -0.01898  -0.00810  -0.00188   0.00713
 Alpha virt. eigenvalues --    0.01138   0.01816   0.01840   0.02547   0.03113
 Alpha virt. eigenvalues --    0.03240   0.03728   0.04180   0.04760   0.04865

  Beta  occ. eigenvalues --  -89.03413 -19.15587 -19.10032 -19.09969 -19.09790
  Beta  occ. eigenvalues --  -19.03206 -19.02325 -10.29336 -10.21303 -10.20280
  Beta  occ. eigenvalues --  -10.19813 -10.18770 -10.18693 -10.18368 -10.18280
  Beta  occ. eigenvalues --  -10.18144 -10.18062 -10.17161 -10.15541 -10.14586
  Beta  occ. eigenvalues --  -10.14288  -8.09767  -6.06075  -6.05950  -6.05831
  Beta  occ. eigenvalues --   -1.09608  -1.08790  -1.00664  -0.98242  -0.95102
  Beta  occ. eigenvalues --   -0.93566  -0.86879  -0.80871  -0.77249  -0.75680
  Beta  occ. eigenvalues --   -0.74859  -0.72603  -0.68573  -0.65196  -0.61544
  Beta  occ. eigenvalues --   -0.61203  -0.59199  -0.55964  -0.54731  -0.52464
  Beta  occ. eigenvalues --   -0.49215  -0.48041  -0.47368  -0.47118  -0.46865
  Beta  occ. eigenvalues --   -0.46723  -0.45070  -0.44738  -0.43306  -0.43120
  Beta  occ. eigenvalues --   -0.42817  -0.40928  -0.38442  -0.38170  -0.37721
  Beta  occ. eigenvalues --   -0.37217  -0.36727  -0.35839  -0.35477  -0.34902
  Beta  occ. eigenvalues --   -0.34178  -0.32833  -0.32340  -0.30999  -0.30038
  Beta  occ. eigenvalues --   -0.28940  -0.28510  -0.27815  -0.26754  -0.26429
  Beta  occ. eigenvalues --   -0.23902  -0.23556  -0.20910  -0.20493  -0.13802
  Beta virt. eigenvalues --   -0.03908  -0.01898  -0.00810  -0.00188   0.00713
  Beta virt. eigenvalues --    0.01138   0.01816   0.01840   0.02547   0.03113
  Beta virt. eigenvalues --    0.03240   0.03728   0.04180   0.04760   0.04865

 Mulliken charges and spin densities:
               1          2
     1  C   -0.412904   0.000000
     2  C   -0.111063   0.000000
     3  C   -0.001811  -0.000000
     4  C   -0.332338   0.000000
     5  C    0.221042  -0.000000
     6  C    0.514034   0.000000
     7  O   -0.673815  -0.000000
     8  O   -0.562417  -0.000000
     9  H    0.164647  -0.000000
    10  H    0.168611  -0.000000
    11  S    0.087864  -0.000000
    12  C   -0.602615  -0.000000
    13  O   -0.250441   0.000000
    14  O    0.025247  -0.000000
    15  C   -0.227888   0.000000
    16  H    0.155223  -0.000000
    17  H    0.171717   0.000000
    18  H    0.171136  -0.000000
    19  C    0.456603   0.000000
    20  C   -0.034601  -0.000000
    21  C   -0.221292   0.000000
    22  C   -0.453067  -0.000000
    23  C   -0.487018  -0.000000
    24  C   -0.330299  -0.000000
    25  O   -0.239530  -0.000000
    26  O   -0.253229   0.000000
    27  H    0.261447  -0.000000
    28  H    0.194543  -0.000000
    29  H    0.204521  -0.000000
    30  H    0.212637  -0.000000
    31  H    0.185054   0.000000
 Sum of Mulliken charges =  -2.00000  -0.00000

 Dipole moment (field-independent basis, Debye):
    X=             -6.9681    Y=            -23.6217    Z=            -54.8916  Tot=             60.1633
 Quadrupole moment (field-independent basis, Debye-Ang):
   XX=           -137.1492   YY=           -243.8159   ZZ=           -473.1264
   XY=            -36.7227   XZ=            -41.2083   YZ=           -135.5905

  Exact polarizability: 330.362  53.631 323.810  -0.274  39.494 327.613
 Approx polarizability: 349.060  39.994 373.379  -0.089  48.706 373.176

                      1                      2                      3
                      A                      A                      A
 Frequencies --     21.6962                34.5893                55.8668
 Red. masses --      5.4042                 7.7097                 4.0166
 Frc consts  --      0.0015                 0.0054                 0.0074
 IR Inten    --      4.9842                 4.9358                 3.0639

                      4                      5                      6
                      A                      A                      A
 Frequencies --     72.2842                74.8950               116.1440
 Red. masses --      4.2891                 6.1011                 4.7666
 Frc consts  --      0.0132                 0.0202                 0.0379
 IR Inten    --      8.9870                 0.5660                 4.2766

                      7                      8                      9
                      A                      A                      A
 Frequencies --    129.9873               158.5816               166.2595
 Red. masses --      4.9968                 7.7937                 3.6571
 Frc consts  --      0.0497                 0.1155                 0.0596
 IR Inten    --     13.6733                11.9274                 1.0514

                     10                     11                     12
                      A                      A                      A
 Frequencies --    170.6689               182.4761               213.0312
 Red. masses --      1.9447                 3.5437                 5.5738
 Frc consts  --      0.0334                 0.0695                 0.1490
 IR Inten    --      2.9935                 1.4466                11.6431

                     13                     14                     15
                      A                      A                      A
 Frequencies --    238.2529               252.5919               273.6801
 Red. masses --      8.9177                10.2660                 9.5750
 Frc consts  --      0.2982                 0.3859                 0.4225
 IR Inten    --      7.8413                 2.9836                 2.1345

                     16                     17                     18
                      A                      A                      A
 Frequencies --    298.9224               305.9552               318.0414
 Red. masses --     11.0840                 7.4829                 5.2395
 Frc consts  --      0.5835                 0.4127                 0.3123
 IR Inten    --      9.6635                 1.8225                14.9079

                     19                     20                     21
                      A                      A                      A
 Frequencies --    321.0988               383.1967               413.2672
 Red. masses --      7.0393                 6.0785                 7.6009
 Frc consts  --      0.4276                 0.5259                 0.7648
 IR Inten    --      6.1887                 5.6723                11.7603

                     22                     23                     24
                      A                      A                      A
 Frequencies --    416.3405               442.7109               465.3363
 Red. masses --      2.9435                 9.0341                 5.7669
 Frc consts  --      0.3006                 1.0432                 0.7357
 IR Inten    --      0.6299                33.2790                 3.0524

                     25                     26                     27
                      A                      A                      A
 Frequencies --    486.9072               518.1372               535.0955
 Red. masses --      7.1936                 8.0119                 5.6966
 Frc consts  --      1.0048                 1.2673                 0.9610
 IR Inten    --      7.9648                86.3510                92.2547

                     28                     29                     30
                      A                      A                      A
 Frequencies --    568.9003               587.5099               626.1739
 Red. masses --      7.0107                 7.6287                 6.4428
 Frc consts  --      1.3368                 1.5514                 1.4884
 IR Inten    --     66.5611               286.4056                 0.2590

                     31                     32                     33
                      A                      A                      A
 Frequencies --    648.0143               700.5829               704.3762
 Red. masses --      3.1374                 5.5567                 2.1445
 Frc consts  --      0.7762                 1.6069                 0.6269
 IR Inten    --      3.4392                 7.5346                71.6523

                     34                     35                     36
                      A                      A                      A
 Frequencies --    723.9881               733.6433               754.8262
 Red. masses --      7.2761                 7.0646                 7.3537
 Frc consts  --      2.2470                 2.2403                 2.4686
 IR Inten    --     81.9677                98.5763                10.3728

                     37                     38                     39
                      A                      A                      A
 Frequencies --    761.7953               804.8225               833.0943
 Red. masses --      1.7317                 6.0444                 1.9592
 Frc consts  --      0.5921                 2.3068                 0.8011
 IR Inten    --     17.5166                54.8774                64.3700

                     40                     41                     42
                      A                      A                      A
 Frequencies --    852.1345               887.2186               923.3636
 Red. masses --      1.2415                10.5245                 6.8416
 Frc consts  --      0.5312                 4.8810                 3.4368
 IR Inten    --      1.4345               183.8829                36.8017

                     43                     44                     45
                      A                      A                      A
 Frequencies --    938.4010               955.0515               990.4068
 Red. masses --      1.3488                 1.3194                 1.3734
 Frc consts  --      0.6998                 0.7091                 0.7938
 IR Inten    --      1.7558                 0.9829                 0.6762

                     46                     47                     48
                      A                      A                      A
 Frequencies --   1008.5792              1010.0270              1010.8223
 Red. masses --      1.4652                 5.2546                 5.2489
 Frc consts  --      0.8782                 3.1583                 3.1599
 IR Inten    --     10.1181                89.4640                27.4140

                     49                     50                     51
                      A                      A                      A
 Frequencies --   1024.7228              1044.2171              1086.9847
 Red. masses --      9.1130                 2.7653                 3.5855
 Frc consts  --      5.6380                 1.7765                 2.4960
 IR Inten    --    310.7709                87.6482               332.2415

                     52                     53                     54
                      A                      A                      A
 Frequencies --   1092.8727              1094.0883              1124.1005
 Red. masses --      1.6166                 3.2164                 1.6395
 Frc consts  --      1.1376                 2.2684                 1.2206
 IR Inten    --     16.8825               161.2123                83.0716

                     55                     56                     57
                      A                      A                      A
 Frequencies --   1160.2218              1170.2717              1176.7718
 Red. masses --      1.2924                12.4755                 1.1330
 Frc consts  --      1.0250                10.0666                 0.9244
 IR Inten    --      3.0221               337.4954                12.6534

                     58                     59                     60
                      A                      A                      A
 Frequencies --   1184.7146              1190.5893              1203.5698
 Red. masses --      3.0295                 1.1541                 1.5874
 Frc consts  --      2.5052                 0.9639                 1.3548
 IR Inten    --    534.0509                 2.0335                77.6991

                     61                     62                     63
                      A                      A                      A
 Frequencies --   1235.7292              1295.2237              1327.7121
 Red. masses --      9.0222                 3.2299                 2.5998
 Frc consts  --      8.1172                 3.1925                 2.7002
 IR Inten    --     80.8454               480.6978                 6.0477

                     64                     65                     66
                      A                      A                      A
 Frequencies --   1338.3720              1352.6772              1393.2236
 Red. masses --      2.0305                 4.1328                 6.6216
 Frc consts  --      2.1429                 4.4553                 7.5728
 IR Inten    --     37.7970               377.1848               750.6817

                     67                     68                     69
                      A                      A                      A
 Frequencies --   1433.7647              1459.3460              1470.2861
 Red. masses --      8.1590                 1.2323                 2.1065
 Frc consts  --      9.8820                 1.5463                 2.6829
 IR Inten    --    634.6014                28.5041                32.2229

                     70                     71                     72
                      A                      A                      A
 Frequencies --   1473.7610              1485.7649              1486.8044
 Red. masses --      1.0463                 3.0119                 1.1501
 Frc consts  --      1.3389                 3.9173                 1.4979
 IR Inten    --     11.1854               423.9742                43.3026

                     73                     74                     75
                      A                      A                      A
 Frequencies --   1502.7252              1608.1303              1616.3044
 Red. masses --      2.0367                 6.8591                 5.6205
 Frc consts  --      2.7098                10.4511                 8.6511
 IR Inten    --     12.5729               103.3932                 6.9826

                     76                     77                     78
                      A                      A                      A
 Frequencies --   1618.4049              1708.3963              3045.6578
 Red. masses --      5.8090                11.6439                 1.0296
 Frc consts  --      8.9645                20.0229                 5.6273
 IR Inten    --      3.4658               654.7350                56.5905

                     79                     80                     81
                      A                      A                      A
 Frequencies --   3117.5344              3120.9350              3142.1592
 Red. masses --      1.1068                 1.0850                 1.0941
 Frc consts  --      6.3379                 6.2263                 6.3643
 IR Inten    --     35.2066                43.7250                87.5640

                     82                     83                     84
                      A                      A                      A
 Frequencies --   3149.5391              3167.0519              3177.0266
 Red. masses --      1.1056                 1.0862                 1.0901
 Frc consts  --      6.4615                 6.4193                 6.4826
 IR Inten    --     25.7760                 0.5124                22.8294

                     85                     86                     87
                      A                      A                      A
 Frequencies --   3187.7248              3199.8235              3230.8461
 Red. masses --      1.0949                 1.0942                 1.0923
 Frc consts  --      6.5552                 6.6010                 6.7177
 IR Inten    --     26.8835                10.1370                 2.3718

 - Thermochemistry -
 -------------------
 Temperature   298.150 Kelvin.  Pressure   1.00000 Atm.
 Atom     1 has atomic number  6 and mass  12.00000

 Molecular mass:   306.01981 amu.
 Principal axes and moments of inertia in atomic units:
                           1         2         3
     Eigenvalues --  3962.361767760.416949195.11842
           X            0.69115  -0.52637  -0.49523
           Y            0.60422   0.04489   0.79555
           Z            0.39652   0.84907  -0.34907
 This molecule is an asymmetric top.
 Rotational symmetry number  1.
 Warning -- assumption of classical behavior for rotation
           may cause significant error
 Rotational temperatures (Kelvin)      0.02186     0.01116     0.00942
 Rotational constants (GHZ):           0.45547     0.23256     0.19627
 Zero-point vibrational energy     562171.9 (Joules/Mol)
                                  134.36230 (Kcal/Mol)
 Warning -- explicit consideration of  29 degrees of freedom as
           vibrations may cause significant error
 Vibrational temperatures:     31.22    49.77    80.38   104.00   107.76
          (Kelvin)            167.11   187.02   228.16   239.21   245.55
                              262.54   306.50   342.79   363.42   393.76
                              430.08   440.20   457.59   461.99   551.33
                              594.60   599.02   636.96   669.52   700.55
                              745.48   769.88   818.52   845.30   900.92
                              932.35  1007.98  1013.44  1041.66  1055.55
                             1086.03  1096.05  1157.96  1198.64  1226.03
                             1276.51  1328.51  1350.15  1374.11  1424.97
                             1451.12  1453.20  1454.35  1474.35  1502.40
                             1563.93  1572.40  1574.15  1617.33  1669.30
                             1683.76  1693.11  1704.54  1712.99  1731.67
                             1777.94  1863.54  1910.28  1925.62  1946.20
                             2004.54  2062.87  2099.67  2115.41  2120.41
                             2137.68  2139.18  2162.09  2313.74  2325.50
                             2328.52  2458.00  4382.02  4485.44  4490.33
                             4520.87  4531.48  4556.68  4571.03  4586.43
                             4603.83  4648.47

 Zero-point correction=                           0.214120 (Hartree/Particle)
 Thermal correction to Energy=                    0.232798
 Thermal correction to Enthalpy=                  0.233742
 Thermal correction to Gibbs Free Energy=         0.166133
 Sum of electronic and zero-point Energies=          -1389.333623
 Sum of electronic and thermal Energies=             -1389.314946
 Sum of electronic and thermal Enthalpies=           -1389.314001
 Sum of electronic and thermal Free Energies=        -1389.381610

                     E (Thermal)             CV                S
                      KCal/Mol        Cal/Mol-Kelvin    Cal/Mol-Kelvin
 Total                  146.083             70.234            142.295
 Electronic               0.000              0.000              0.000
 Translational            0.889              2.981             43.052
 Rotational               0.889              2.981             34.002
 Vibrational            144.305             64.272             65.241
 Vibration     1          0.593              1.985              6.473
 Vibration     2          0.594              1.983              5.547
 Vibration     3          0.596              1.975              4.598
 Vibration     4          0.598              1.967              4.090
 Vibration     5          0.599              1.966              4.020
 Vibration     6          0.608              1.936              3.164
 Vibration     7          0.612              1.923              2.946
 Vibration     8          0.621              1.893              2.567
 Vibration     9          0.624              1.884              2.477
 Vibration    10          0.626              1.879              2.428
 Vibration    11          0.630              1.864              2.303
 Vibration    12          0.644              1.821              2.018
 Vibration    13          0.656              1.782              1.816
 Vibration    14          0.664              1.758              1.712
 Vibration    15          0.676              1.722              1.573
 Vibration    16          0.692              1.676              1.423
 Vibration    17          0.696              1.662              1.384
 Vibration    18          0.704              1.639              1.320
 Vibration    19          0.707              1.633              1.305
 Vibration    20          0.752              1.506              1.027
 Vibration    21          0.777              1.441              0.915
 Vibration    22          0.780              1.435              0.904
 Vibration    23          0.802              1.377              0.818
 Vibration    24          0.823              1.327              0.751
 Vibration    25          0.843              1.279              0.692
 Vibration    26          0.873              1.210              0.614
 Vibration    27          0.890              1.172              0.576
 Vibration    28          0.925              1.099              0.506
 Vibration    29          0.945              1.058              0.472

                           ! Non-Optimized Parameters !
 Normal termination of Gaussian 16 at Sat Feb 10 16:02:11 2024.
