 Q-Chem 5.4, Q-Chem, Inc., Pleasanton, CA (2021)
 Q-Chem 5.4.0 for Intel X86 EM64T Linux

User input:
--------------------------------------------------------------
$molecule
0 1
C                  4.7184490000      0.1112400000      1.0138670000
C                  3.9615600000     -0.6112410000     -0.1157340000
C                  4.6135960000     -0.3414800000     -1.4842090000
C                  2.4816980000     -0.2631250000     -0.1173710000
C                  2.0302730000      1.0469540000     -0.3384560000
C                  0.6779860000      1.3630420000     -0.3441760000
C                 -0.3045310000      0.3849640000     -0.1232430000
C                  0.1486080000     -0.9249330000      0.1241890000
C                  1.5139790000     -1.2346900000      0.1131170000
C                 -0.8195660000     -1.9989260000      0.4283840000
O                 -0.5312040000     -3.1755540000      0.4599260000
C                 -2.2685650000     -1.5648710000      0.7698390000
O                 -2.9553420000     -2.3342140000      1.4090570000
C                 -2.7258440000     -0.2414460000      0.2795290000
C                 -4.1086460000      0.0722660000      0.2476640000
C                 -5.1887360000     -0.8713940000      0.7141050000
C                 -4.4937850000      1.3173490000     -0.2558810000
C                 -3.5524530000      2.2341490000     -0.7069470000
C                 -2.1984460000      1.9286060000     -0.6637970000
C                 -1.7568560000      0.6961420000     -0.1705320000
H                  4.2775310000     -0.1075990000      1.9895720000
H                  4.7026980000      1.1964390000      0.8742980000
H                  5.7653550000     -0.2047050000      1.0351620000
H                  4.0316030000     -1.6873350000      0.0763390000
H                  4.0980570000     -0.8815790000     -2.2822060000
H                  5.6597610000     -0.6605160000     -1.4782950000
H                  4.5937440000      0.7239910000     -1.7328050000
H                  2.7476030000      1.8430280000     -0.5074370000
H                  0.3966800000      2.3939850000     -0.5121390000
H                  1.7972080000     -2.2643620000      0.3020150000
H                 -5.1335270000     -1.0378410000      1.7917930000
H                 -6.1699520000     -0.4591240000      0.4707110000
H                 -5.0952920000     -1.8578390000      0.2557590000
H                 -5.5487990000      1.5638320000     -0.2982240000
H                 -3.8747120000      3.1917650000     -1.1006620000
H                 -1.4899340000      2.6554230000     -1.0358670000
$end

$rem
BASIS  =  6-311++G(d,p)
GUI  =  2
JOB_TYPE  =  SP
METHOD  =  B3LYP
SCF_CONVERGENCE  = 8
SOLVENT_METHOD = sm12
$end

$smx
solvent dimethylformamide
charges CM5
$end

--------------------------------------------------------------

             Standard Nuclear Orientation (Angstroms)
    I     Atom           X                Y                Z
 ----------------------------------------------------------------
    1      C       4.7184490000     0.1112400000     1.0138670000
    2      C       3.9615600000    -0.6112410000    -0.1157340000
    3      C       4.6135960000    -0.3414800000    -1.4842090000
    4      C       2.4816980000    -0.2631250000    -0.1173710000
    5      C       2.0302730000     1.0469540000    -0.3384560000
    6      C       0.6779860000     1.3630420000    -0.3441760000
    7      C      -0.3045310000     0.3849640000    -0.1232430000
    8      C       0.1486080000    -0.9249330000     0.1241890000
    9      C       1.5139790000    -1.2346900000     0.1131170000
   10      C      -0.8195660000    -1.9989260000     0.4283840000
   11      O      -0.5312040000    -3.1755540000     0.4599260000
   12      C      -2.2685650000    -1.5648710000     0.7698390000
   13      O      -2.9553420000    -2.3342140000     1.4090570000
   14      C      -2.7258440000    -0.2414460000     0.2795290000
   15      C      -4.1086460000     0.0722660000     0.2476640000
   16      C      -5.1887360000    -0.8713940000     0.7141050000
   17      C      -4.4937850000     1.3173490000    -0.2558810000
   18      C      -3.5524530000     2.2341490000    -0.7069470000
   19      C      -2.1984460000     1.9286060000    -0.6637970000
   20      C      -1.7568560000     0.6961420000    -0.1705320000
   21      H       4.2775310000    -0.1075990000     1.9895720000
   22      H       4.7026980000     1.1964390000     0.8742980000
   23      H       5.7653550000    -0.2047050000     1.0351620000
   24      H       4.0316030000    -1.6873350000     0.0763390000
   25      H       4.0980570000    -0.8815790000    -2.2822060000
   26      H       5.6597610000    -0.6605160000    -1.4782950000
   27      H       4.5937440000     0.7239910000    -1.7328050000
   28      H       2.7476030000     1.8430280000    -0.5074370000
   29      H       0.3966800000     2.3939850000    -0.5121390000
   30      H       1.7972080000    -2.2643620000     0.3020150000
   31      H      -5.1335270000    -1.0378410000     1.7917930000
   32      H      -6.1699520000    -0.4591240000     0.4707110000
   33      H      -5.0952920000    -1.8578390000     0.2557590000
   34      H      -5.5487990000     1.5638320000    -0.2982240000
   35      H      -3.8747120000     3.1917650000    -1.1006620000
   36      H      -1.4899340000     2.6554230000    -1.0358670000
 ----------------------------------------------------------------

   15    -846.2328938932      3.01e-09  Convergence criterion met
 Total energy in the final basis set =     -846.2565566613

                    Orbital Energies (a.u.)
 --------------------------------------------------------------

 Alpha MOs
 -- Occupied --
-19.1346 -19.1336 -10.2773 -10.2764 -10.2161 -10.2133 -10.2106 -10.2045
-10.2008 -10.1964 -10.1950 -10.1942 -10.1935 -10.1922 -10.1908 -10.1868
-10.1862 -10.1677 -10.1612 -10.1611  -1.0801  -1.0533  -0.9002  -0.8760
 -0.8277  -0.7972  -0.7906  -0.7758  -0.7417  -0.7177  -0.6874  -0.6846
 -0.6521  -0.6336  -0.6157  -0.5961  -0.5830  -0.5481  -0.5251  -0.5083
 -0.4947  -0.4825  -0.4769  -0.4660  -0.4587  -0.4529  -0.4467  -0.4424
 -0.4341  -0.4269  -0.4250  -0.4186  -0.4080  -0.3992  -0.3924  -0.3877
 -0.3872  -0.3776  -0.3681  -0.3633  -0.3606  -0.3465  -0.3408  -0.3347
 -0.3080  -0.2985  -0.2771  -0.2699  -0.2556  -0.2421

          Ground-State Mulliken Net Atomic Charges

     Atom                 Charge (a.u.)
  ----------------------------------------
      1 C                    -0.572242
      2 C                     0.646787
      3 C                    -0.551403
      4 C                     1.071934
      5 C                    -0.090288
      6 C                     0.607765
      7 C                    -0.335655
      8 C                    -0.013825
      9 C                    -0.759447
     10 C                    -1.390049
     11 O                    -0.286068
     12 C                    -1.441780
     13 O                    -0.246833
     14 C                     0.394084
     15 C                    -0.015112
     16 C                    -0.109863
     17 C                    -0.224809
     18 C                     0.279671
     19 C                    -0.040856
     20 C                    -0.203989
     21 H                     0.132258
     22 H                     0.155660
     23 H                     0.182083
     24 H                     0.212060
     25 H                     0.133939
     26 H                     0.184804
     27 H                     0.158379
     28 H                     0.334788
     29 H                     0.297812
     30 H                     0.159684
     31 H                     0.161250
     32 H                     0.213029
     33 H                     0.122967
     34 H                     0.236008
     35 H                     0.350640
     36 H                     0.246617
  ----------------------------------------
  Sum of atomic charges =     0.000000

                    Cartesian Multipole Moments
 -----------------------------------------------------------------
    Charge (ESU x 10^10)
                 0.0000
    Dipole Moment (Debye)
         X       1.8623      Y       6.9904      Z      -2.2977
       Tot       7.5903
    Quadrupole Moments (Debye-Ang)
        XX     -96.7575     XY     -13.1061     YY    -128.0491
        XZ       5.0285     YZ       1.9270     ZZ    -122.3905

 Total job time:  1157.06s(wall), 8799.87s(cpu)
        *  Thank you very much for using Q-Chem.  Have a nice day.  *
