 Gaussian 16, Revision A.03,
 Gaussian 16:  ES64L-G16RevA.03 25-Dec-2016

 ----------------------------------------------------------------------
 #P UB3LYP/6-311++G(d,p) nosym opt freq SCRF=(PCM,Solvent=n,n-DiMethylF
 ormamide)
 ----------------------------------------------------------------------

 -------
 Radical
 -------
 Symbolic Z-matrix:
 Charge = -1 Multiplicity = 2

 SCF Done:  E(UB3LYP) =  -5639.58441519     A.U. after   18 cycles
 SCF Done:  E(UB3LYP) =  -5639.58482330     A.U. after   14 cycles
 SCF Done:  E(UB3LYP) =  -5639.58489338     A.U. after   13 cycles
 SCF Done:  E(UB3LYP) =  -5639.58490512     A.U. after   13 cycles
 SCF Done:  E(UB3LYP) =  -5639.58491421     A.U. after   12 cycles
 SCF Done:  E(UB3LYP) =  -5639.58491940     A.U. after   13 cycles
 SCF Done:  E(UB3LYP) =  -5639.58491971     A.U. after   11 cycles
 Optimization completed.
    -- Stationary point found.
 Normal termination of Gaussian 16 at Sat Feb 10 10:19:16 2024.

 ----------------------------------------------------------------------
 #P Geom=AllCheck Guess=TCheck SCRF=Check GenChk UB3LYP/6-311++G(d,p) F
 req
 ----------------------------------------------------------------------

 Structure from the checkpoint file:  "024-rad.chk"
 -------
 Radical
 -------
 Charge = -1 Multiplicity = 2

                          Input orientation:
 ---------------------------------------------------------------------
 Center     Atomic      Atomic             Coordinates (Angstroms)
 Number     Number       Type             X           Y           Z
 ---------------------------------------------------------------------
      1          6           0       -1.668525    0.816813    1.629423
      2          6           0       -2.861908    1.108071    0.814981
      3          6           0       -2.810254    1.003641   -0.563268
      4          6           0       -1.641453    0.631934   -1.294263
      5          6           0       -0.448196    0.340231   -0.479795
      6          6           0       -0.499845    0.444670    0.898457
      7          8           0       -1.560560    0.546277   -2.554328
      8          8           0       -1.749666    0.901593    2.889532
      9         35           0        1.088087    0.061023    1.926931
     10         35           0       -4.398377    1.386610   -1.591701
     11          7           0        0.652217   -0.070707   -1.191982
     12          7           0       -3.962454    1.518660    1.527187
     13          1           0        0.588806    0.124830   -2.182865
     14          1           0        1.560988    0.044112   -0.768429
     15          1           0       -3.898941    1.323155    2.518071
     16          1           0       -4.871188    1.403377    1.103674
 ---------------------------------------------------------------------

 SCF Done:  E(UB3LYP) =  -5639.58491971     A.U. after    1 cycles

 Alpha  occ. eigenvalues -- -482.82608-482.82608 -62.47885 -62.47885 -56.29903
 Alpha  occ. eigenvalues --  -56.29903 -56.29545 -56.29545 -56.29530 -56.29530
 Alpha  occ. eigenvalues --  -19.08123 -19.08122 -14.32362 -14.32362 -10.23466
 Alpha  occ. eigenvalues --  -10.23465 -10.22208 -10.22206 -10.20725 -10.20723
 Alpha  occ. eigenvalues --   -8.68849  -8.68849  -6.51928  -6.51928  -6.50735
 Alpha  occ. eigenvalues --   -6.50735  -6.50700  -6.50700  -2.63032  -2.63032
 Alpha  occ. eigenvalues --   -2.62692  -2.62692  -2.62668  -2.62667  -2.61720
 Alpha  occ. eigenvalues --   -2.61719  -2.61718  -2.61718  -1.01112  -1.00685
 Alpha  occ. eigenvalues --   -0.92369  -0.92252  -0.83115  -0.80647  -0.77029
 Alpha  occ. eigenvalues --   -0.70303  -0.68164  -0.60045  -0.58711  -0.55691
 Alpha  occ. eigenvalues --   -0.49839  -0.49349  -0.48894  -0.44754  -0.43688
 Alpha  occ. eigenvalues --   -0.41751  -0.41277  -0.40315  -0.39132  -0.36845
 Alpha  occ. eigenvalues --   -0.36215  -0.32873  -0.30787  -0.30031  -0.29244
 Alpha  occ. eigenvalues --   -0.29237  -0.25789  -0.25068  -0.24908  -0.20871
 Alpha  occ. eigenvalues --   -0.15524
 Alpha virt. eigenvalues --   -0.01794  -0.00862   0.00468   0.00622   0.01047
 Alpha virt. eigenvalues --    0.02160   0.02813   0.03216   0.04005   0.04077
 Alpha virt. eigenvalues --    0.05063   0.05217   0.06182   0.07274   0.07431

  Beta  occ. eigenvalues -- -482.82609-482.82609 -62.47886 -62.47885 -56.29903
  Beta  occ. eigenvalues --  -56.29903 -56.29546 -56.29546 -56.29531 -56.29530
  Beta  occ. eigenvalues --  -19.07584 -19.07584 -14.32209 -14.32209 -10.23260
  Beta  occ. eigenvalues --  -10.23259 -10.21956 -10.21954 -10.20812 -10.20811
  Beta  occ. eigenvalues --   -8.68850  -8.68850  -6.51928  -6.51928  -6.50738
  Beta  occ. eigenvalues --   -6.50738  -6.50701  -6.50701  -2.63033  -2.63033
  Beta  occ. eigenvalues --   -2.62694  -2.62694  -2.62668  -2.62668  -2.61721
  Beta  occ. eigenvalues --   -2.61721  -2.61720  -2.61720  -1.00204  -0.99737
  Beta  occ. eigenvalues --   -0.91906  -0.91875  -0.82852  -0.80615  -0.76761
  Beta  occ. eigenvalues --   -0.69950  -0.67291  -0.59686  -0.58341  -0.55527
  Beta  occ. eigenvalues --   -0.49565  -0.49142  -0.48618  -0.44523  -0.42248
  Beta  occ. eigenvalues --   -0.41201  -0.40886  -0.40196  -0.36993  -0.36349
  Beta  occ. eigenvalues --   -0.35698  -0.30855  -0.30544  -0.29429  -0.29224
  Beta  occ. eigenvalues --   -0.29045  -0.25277  -0.24569  -0.23098  -0.20280
  Beta virt. eigenvalues --   -0.08688  -0.01769  -0.00886   0.00630   0.01025
  Beta virt. eigenvalues --    0.01894   0.02188   0.03238   0.03970   0.04102
  Beta virt. eigenvalues --    0.05102   0.05236   0.05568   0.06187   0.07289

 Mulliken charges and spin densities:
               1          2
     1  C   -0.617316   0.134645
     2  C   -0.971962   0.157109
     3  C    1.466841  -0.058266
     4  C   -0.617512   0.134677
     5  C   -0.971485   0.157095
     6  C    1.466902  -0.058294
     7  O   -0.488100   0.195764
     8  O   -0.488110   0.195760
     9  Br  -0.151378  -0.001593
    10  Br  -0.151393  -0.001590
    11  N   -0.283879   0.075251
    12  N   -0.283811   0.075252
    13  H    0.285254  -0.002359
    14  H    0.260358  -0.000546
    15  H    0.285200  -0.002358
    16  H    0.260391  -0.000546
 Sum of Mulliken charges =  -1.00000   1.00000

 Dipole moment (field-independent basis, Debye):
    X=              7.9505    Y=             -3.4774    Z=             -0.8051  Tot=              8.7150
 Quadrupole moment (field-independent basis, Debye-Ang):
   XX=           -106.3708   YY=           -105.9283   ZZ=           -135.0133
   XY=              8.9788   XZ=            -11.4860   YZ=             -2.1295

  Exact polarizability: 249.281 -39.920 126.925   7.096  10.526 290.513
 Approx polarizability: 256.862 -39.174 140.866  -8.245  17.821 342.167

                      1                      2                      3
                      A                      A                      A
 Frequencies --     59.7046               108.1853               129.9129
 Red. masses --     16.1110                 6.8026                 7.8261
 Frc consts  --      0.0338                 0.0469                 0.0778
 IR Inten    --      1.8368                24.7265                 0.0000

                      4                      5                      6
                      A                      A                      A
 Frequencies --    154.3023               187.1597               194.3148
 Red. masses --     16.3339                 6.9720                12.6839
 Frc consts  --      0.2291                 0.1439                 0.2822
 IR Inten    --      2.5362                 6.8841                 0.0000

                      7                      8                      9
                      A                      A                      A
 Frequencies --    200.2568               273.8852               286.8337
 Red. masses --     17.2845                 6.2619                 8.7628
 Frc consts  --      0.4084                 0.2768                 0.4248
 IR Inten    --      0.0000                 9.6523                 0.0000

                     10                     11                     12
                      A                      A                      A
 Frequencies --    350.9261               355.4629               378.9336
 Red. masses --      3.3292                 3.2757                 1.9162
 Frc consts  --      0.2416                 0.2439                 0.1621
 IR Inten    --      0.0000                68.2826                 0.0012

                     13                     14                     15
                      A                      A                      A
 Frequencies --    401.6585               423.3725               466.4997
 Red. masses --      1.3567                 6.6866                 2.4065
 Frc consts  --      0.1290                 0.7062                 0.3086
 IR Inten    --    445.4753                 0.0001                 0.0006

                     16                     17                     18
                      A                      A                      A
 Frequencies --    475.5455               520.4776               530.8534
 Red. masses --      5.8062                 1.2138                 7.0995
 Frc consts  --      0.7736                 0.1937                 1.1788
 IR Inten    --    120.1882               565.6369                 0.0005

                     19                     20                     21
                      A                      A                      A
 Frequencies --    534.6634               560.1344               717.0757
 Red. masses --      1.3282                10.5234                 4.2929
 Frc consts  --      0.2237                 1.9453                 1.3006
 IR Inten    --      0.0106               112.3258                 0.0000

                     22                     23                     24
                      A                      A                      A
 Frequencies --    721.7600               725.9716               758.8110
 Red. masses --     11.8080                11.8727                 6.2879
 Frc consts  --      3.6242                 3.6867                 2.1332
 IR Inten    --      7.2585                 0.0000               292.1118

                     25                     26                     27
                      A                      A                      A
 Frequencies --    837.8330               956.2977              1114.1181
 Red. masses --     10.2723                 3.3129                 2.7502
 Frc consts  --      4.2485                 1.7850                 2.0113
 IR Inten    --      0.0000                57.3636               182.2861

                     28                     29                     30
                      A                      A                      A
 Frequencies --   1134.0369              1206.0229              1243.5943
 Red. masses --      1.6369                11.5347                 6.4799
 Frc consts  --      1.2403                 9.8848                 5.9044
 IR Inten    --      0.0000                44.9877                 0.0000

                     31                     32                     33
                      A                      A                      A
 Frequencies --   1320.5743              1407.8267              1491.2470
 Red. masses --      2.8801                 4.9779                 7.7672
 Frc consts  --      2.9593                 5.8129                10.1768
 IR Inten    --    163.0286                 0.0000              2452.5340

                     34                     35                     36
                      A                      A                      A
 Frequencies --   1512.9982              1524.3167              1560.8447
 Red. masses --      4.1995                12.0497                 1.8896
 Frc consts  --      5.6640                16.4959                 2.7123
 IR Inten    --    249.4626                 0.0000                 0.0000

                     37                     38                     39
                      A                      A                      A
 Frequencies --   1594.5407              1608.0267              3539.7031
 Red. masses --      1.4307                 2.3871                 1.0466
 Frc consts  --      2.1432                 3.6368                 7.7259
 IR Inten    --    276.3944                 0.0000               147.8066

                     40                     41                     42
                      A                      A                      A
 Frequencies --   3539.8110              3658.9529              3659.0942
 Red. masses --      1.0468                 1.1006                 1.1006
 Frc consts  --      7.7281                 8.6818                 8.6821
 IR Inten    --      2.4257               179.3814                 3.3270

 - Thermochemistry -
 -------------------
 Temperature   298.150 Kelvin.  Pressure   1.00000 Atm.
 Atom     1 has atomic number  6 and mass  12.00000

 Molecular mass:   293.86395 amu.
 Principal axes and moments of inertia in atomic units:
                           1         2         3
     Eigenvalues --  1635.404946917.801058550.96734
           X            0.82679  -0.49274   0.27134
           Y           -0.20088   0.19194   0.96063
           Z            0.52542   0.84874  -0.05971
 This molecule is an asymmetric top.
 Rotational symmetry number  1.
 Warning -- assumption of classical behavior for rotation
           may cause significant error
 Rotational temperatures (Kelvin)      0.05296     0.01252     0.01013
 Rotational constants (GHZ):           1.10354     0.26088     0.21106
 Zero-point vibrational energy     253767.1 (Joules/Mol)
                                   60.65178 (Kcal/Mol)
 Warning -- explicit consideration of  20 degrees of freedom as
           vibrations may cause significant error
 Vibrational temperatures:     85.90   155.65   186.92   222.01   269.28
          (Kelvin)            279.58   288.12   394.06   412.69   504.90
                              511.43   545.20   577.90   609.14   671.19
                              684.20   748.85   763.78   769.26   805.91
                             1031.71  1038.45  1044.51  1091.76  1205.45
                             1375.90  1602.97  1631.63  1735.20  1789.25
                             1900.01  2025.55  2145.57  2176.87  2193.15
                             2245.71  2294.19  2313.59  5092.84  5093.00
                             5264.42  5264.62

 Zero-point correction=                           0.096655 (Hartree/Particle)
 Thermal correction to Energy=                    0.108500
 Thermal correction to Enthalpy=                  0.109444
 Thermal correction to Gibbs Free Energy=         0.056784
 Sum of electronic and zero-point Energies=          -5639.488265
 Sum of electronic and thermal Energies=             -5639.476420
 Sum of electronic and thermal Enthalpies=           -5639.475476
 Sum of electronic and thermal Free Energies=        -5639.528135

                     E (Thermal)             CV                S
                      KCal/Mol        Cal/Mol-Kelvin    Cal/Mol-Kelvin
 Total                   68.085             43.136            110.832
 Electronic               0.000              0.000              1.377
 Translational            0.889              2.981             42.931
 Rotational               0.889              2.981             32.936
 Vibrational             66.307             37.174             33.587
 Vibration     1          0.597              1.974              4.467
 Vibration     2          0.606              1.943              3.301
 Vibration     3          0.612              1.923              2.947
 Vibration     4          0.620              1.898              2.618
 Vibration     5          0.632              1.857              2.256
 Vibration     6          0.635              1.848              2.186
 Vibration     7          0.638              1.840              2.131
 Vibration     8          0.676              1.722              1.572
 Vibration     9          0.684              1.698              1.493
 Vibration    10          0.728              1.573              1.162
 Vibration    11          0.731              1.564              1.142
 Vibration    12          0.749              1.515              1.043
 Vibration    13          0.767              1.467              0.957
 Vibration    14          0.786              1.419              0.881
 Vibration    15          0.824              1.324              0.747
 Vibration    16          0.832              1.304              0.722
 Vibration    17          0.875              1.205              0.609
 Vibration    18          0.886              1.182              0.585
 Vibration    19          0.890              1.173              0.577
 Vibration    20          0.916              1.118              0.524

 Optimization completed.
    -- Stationary point found.
 Normal termination of Gaussian 16 at Sat Feb 10 10:34:17 2024.
