 Gaussian 16, Revision A.03,
 Gaussian 16:  ES64L-G16RevA.03 25-Dec-2016

 ----------------------------------------------------------------
 #P UB3LYP/6-311++G(d,p) SCRF=(PCM,Solvent=n,n-DiMethylFormamide)
 ----------------------------------------------------------------

 ------------------
 Radical PCM in DMF
 ------------------
 Symbolic Z-matrix:
 Charge = -1 Multiplicity = 2

                         Standard orientation:
 ---------------------------------------------------------------------
 Center     Atomic      Atomic             Coordinates (Angstroms)
 Number     Number       Type             X           Y           Z
 ---------------------------------------------------------------------
      1          6           0        0.474742   -0.604147   -0.137737
      2          6           0        1.705142    0.154575   -0.029236
      3          6           0        1.643778    1.531527    0.023614
      4          6           0        0.409559    2.289273   -0.027444
      5          6           0       -0.805712    1.525987   -0.156448
      6          6           0       -0.792067    0.151813   -0.216440
      7          8           0        0.417663   -1.878601   -0.160724
      8          8           0        0.410295    3.553478    0.032027
      9          7           0       -1.889635   -0.687854   -0.377752
     10          6           0       -3.272850   -0.445349    0.045347
     11          6           0       -3.982317   -1.810213   -0.015017
     12          6           0       -3.987219    0.512644   -0.932351
     13          6           0       -3.358573    0.099437    1.488647
     14          1           0       -1.721278    2.100641   -0.216300
     15          1           0       -1.562305   -1.646232   -0.270964
     16          1           0       -3.516082   -2.520149    0.675354
     17          1           0       -3.924374   -2.227067   -1.024857
     18          1           0       -5.036551   -1.710031    0.258738
     19          1           0       -3.925617    0.117532   -1.949824
     20          1           0       -3.535782    1.504696   -0.931822
     21          1           0       -5.043250    0.620630   -0.660685
     22          1           0       -2.912855   -0.614745    2.187058
     23          1           0       -4.401911    0.264389    1.779669
     24          1           0       -2.819536    1.042524    1.588118
     25          6           0        3.043755   -0.606542    0.036495
     26          6           0        3.223440   -1.464239   -1.239525
     27          6           0        4.253587    0.342132    0.136506
     28          6           0        3.064305   -1.527686    1.280586
     29          1           0        2.538746    2.135505    0.109750
     30          1           0        2.400193   -2.170902   -1.341813
     31          1           0        4.169078   -2.019898   -1.195078
     32          1           0        3.247908   -0.824551   -2.127978
     33          1           0        4.319623    1.009591   -0.727573
     34          1           0        5.175463   -0.248878    0.175772
     35          1           0        4.213472    0.959994    1.038200
     36          1           0        2.237139   -2.236153    1.242042
     37          1           0        2.974216   -0.933200    2.195853
     38          1           0        4.010052   -2.083014    1.328200
 ---------------------------------------------------------------------

 SCF Done:  E(UB3LYP) =  -751.687103859     A.U. after   20 cycles

 The electronic state is 2-A.
 Alpha  occ. eigenvalues --  -19.07143 -19.06358 -14.30571 -10.21415 -10.21198
 Alpha  occ. eigenvalues --  -10.20920 -10.19862 -10.17880 -10.16369 -10.15729
 Alpha  occ. eigenvalues --  -10.15329 -10.15245 -10.14865 -10.14755 -10.14371
 Alpha  occ. eigenvalues --  -10.14367 -10.13888  -0.99631  -0.98457  -0.91898
 Alpha  occ. eigenvalues --   -0.82566  -0.80141  -0.77199  -0.71590  -0.68617
 Alpha  occ. eigenvalues --   -0.68527  -0.67920  -0.67310  -0.66318  -0.60743
 Alpha  occ. eigenvalues --   -0.57278  -0.55143  -0.51757  -0.49156  -0.47563
 Alpha  occ. eigenvalues --   -0.45764  -0.45402  -0.44615  -0.43964  -0.42954
 Alpha  occ. eigenvalues --   -0.42352  -0.41540  -0.41215  -0.39927  -0.39249
 Alpha  occ. eigenvalues --   -0.38657  -0.38148  -0.37655  -0.36699  -0.36544
 Alpha  occ. eigenvalues --   -0.36405  -0.36363  -0.35490  -0.35307  -0.34074
 Alpha  occ. eigenvalues --   -0.32678  -0.32539  -0.32334  -0.31571  -0.29573
 Alpha  occ. eigenvalues --   -0.26076  -0.23779  -0.22792  -0.20430  -0.14830
 Alpha virt. eigenvalues --   -0.00607   0.00219   0.00719   0.01254   0.01897
 Alpha virt. eigenvalues --    0.02132   0.02363   0.02653   0.03467   0.03578
 Alpha virt. eigenvalues --    0.03794   0.04017   0.04240   0.04800   0.05088

  Beta  occ. eigenvalues --  -19.06475 -19.05800 -14.30482 -10.21415 -10.20925
  Beta  occ. eigenvalues --  -10.20804 -10.19759 -10.17884 -10.16312 -10.15729
  Beta  occ. eigenvalues --  -10.15325 -10.15240 -10.14865 -10.14532 -10.14367
  Beta  occ. eigenvalues --  -10.14363 -10.13901  -0.98502  -0.97467  -0.91635
  Beta  occ. eigenvalues --   -0.82250  -0.79995  -0.76933  -0.71412  -0.68595
  Beta  occ. eigenvalues --   -0.68514  -0.67752  -0.67293  -0.65426  -0.60485
  Beta  occ. eigenvalues --   -0.56979  -0.54946  -0.51617  -0.48914  -0.47450
  Beta  occ. eigenvalues --   -0.45444  -0.45279  -0.44528  -0.43833  -0.42854
  Beta  occ. eigenvalues --   -0.42296  -0.41452  -0.40286  -0.39373  -0.38941
  Beta  occ. eigenvalues --   -0.38543  -0.38081  -0.36926  -0.36554  -0.36477
  Beta  occ. eigenvalues --   -0.36113  -0.35636  -0.35359  -0.34429  -0.33255
  Beta  occ. eigenvalues --   -0.32624  -0.32414  -0.32170  -0.31510  -0.28307
  Beta  occ. eigenvalues --   -0.23619  -0.23208  -0.22265  -0.19665
  Beta virt. eigenvalues --   -0.07744  -0.00592   0.00221   0.01274   0.01322
  Beta virt. eigenvalues --    0.02076   0.02360   0.02418   0.02850   0.03508
  Beta virt. eigenvalues --    0.03755   0.03808   0.04224   0.04818   0.05115

 Mulliken charges and spin densities:
               1          2
     1  C   -0.611579   0.204740
     2  C    0.807572  -0.000507
     3  C   -0.364192   0.175790
     4  C   -0.573355   0.081596
     5  C    0.010744  -0.016907
     6  C   -0.066756   0.089159
     7  O   -0.452045   0.249744
     8  O   -0.534758   0.192653
     9  N    0.071770   0.042070
    10  C   -0.068309   0.002050
    11  C   -0.496853   0.000033
    12  C   -0.449685  -0.002722
    13  C   -0.464579   0.003539
    14  H    0.202173  -0.002242
    15  H    0.309446  -0.002055
    16  H    0.151148   0.000013
    17  H    0.156004   0.000448
    18  H    0.151103  -0.000088
    19  H    0.154975   0.000558
    20  H    0.119150  -0.000017
    21  H    0.152228   0.000191
    22  H    0.156897   0.000382
    23  H    0.154082   0.000356
    24  H    0.148452  -0.001306
    25  C    0.657425  -0.019979
    26  C   -0.681506   0.006833
    27  C   -0.465344   0.001363
    28  C   -0.691287   0.007539
    29  H    0.181500  -0.011938
    30  H    0.173061  -0.001159
    31  H    0.144603   0.000151
    32  H    0.132973   0.000818
    33  H    0.131445  -0.000723
    34  H    0.170443   0.000184
    35  H    0.131066  -0.000670
    36  H    0.176396  -0.001161
    37  H    0.131612   0.001014
    38  H    0.143980   0.000252
 Sum of Mulliken charges =  -1.00000   1.00000

 Dipole moment (field-independent basis, Debye):
    X=             -3.4943    Y=             -6.5750    Z=              0.9731  Tot=              7.5092
 Quadrupole moment (field-independent basis, Debye-Ang):
   XX=           -105.6393   YY=           -156.0563   ZZ=           -113.2276
   XY=             -0.6027   XZ=             -1.3085   YZ=             -1.4555

 Normal termination of Gaussian 16 at Wed Jan 24 22:57:45 2024.
