 Q-Chem 5.4, Q-Chem, Inc., Pleasanton, CA (2021)
 Q-Chem 5.4.0 for Intel X86 EM64T Linux

User input:
--------------------------------------------------------------
$molecule
-1 2
O                 -2.7379070000      2.5093970000     -0.4540640000
C                 -2.6604000000      1.1802000000     -0.2206510000
C                 -3.8349910000      0.4503250000     -0.0988750000
C                 -3.7833140000     -0.9313060000      0.1435360000
C                 -2.5695940000     -1.5848170000      0.2644710000
C                 -1.3631960000     -0.8717880000      0.1458620000
C                 -0.0904020000     -1.6099090000      0.2819490000
O                 -0.1055760000     -2.8361240000      0.4966770000
C                  1.1496270000     -0.8287620000      0.1513730000
C                  2.4290540000     -1.4327790000      0.2638970000
O                  2.5397930000     -2.7832160000      0.5013000000
C                  3.5830800000     -0.6708850000      0.1362170000
C                  3.5283070000      0.7065770000     -0.1056460000
C                  2.3046390000      1.3423970000     -0.2234610000
O                  2.2912790000      2.6762790000     -0.4575600000
C                  1.0933320000      0.5898070000     -0.0976630000
C                 -0.1687310000      1.2739680000     -0.2240830000
O                 -0.2110580000      2.5597610000     -0.4497380000
C                 -1.3919970000      0.5268380000     -0.0994620000
H                 -1.7897700000      2.8239650000     -0.5042480000
H                 -4.7798500000      0.9735020000     -0.1955280000
H                 -4.7108580000     -1.4886040000      0.2363200000
H                 -2.5093550000     -2.6492850000      0.4513030000
H                  3.4806090000     -2.9851710000      0.5414970000
H                  4.5509010000     -1.1600810000      0.2269690000
H                  4.4336280000      1.2942460000     -0.2040830000
H                  1.3227500000      2.9254630000     -0.5063100000
$end

$rem
BASIS  =  6-311++G(d,p)
GUI  =  2
JOB_TYPE  =  SP
METHOD  =  B3LYP
SCF_CONVERGENCE  = 8
SOLVENT_METHOD = sm12
$end

$smx
solvent dimethylformamide
charges CM5
$end

--------------------------------------------------------------

             Standard Nuclear Orientation (Angstroms)
    I     Atom           X                Y                Z
 ----------------------------------------------------------------
    1      O      -2.7379070000     2.5093970000    -0.4540640000
    2      C      -2.6604000000     1.1802000000    -0.2206510000
    3      C      -3.8349910000     0.4503250000    -0.0988750000
    4      C      -3.7833140000    -0.9313060000     0.1435360000
    5      C      -2.5695940000    -1.5848170000     0.2644710000
    6      C      -1.3631960000    -0.8717880000     0.1458620000
    7      C      -0.0904020000    -1.6099090000     0.2819490000
    8      O      -0.1055760000    -2.8361240000     0.4966770000
    9      C       1.1496270000    -0.8287620000     0.1513730000
   10      C       2.4290540000    -1.4327790000     0.2638970000
   11      O       2.5397930000    -2.7832160000     0.5013000000
   12      C       3.5830800000    -0.6708850000     0.1362170000
   13      C       3.5283070000     0.7065770000    -0.1056460000
   14      C       2.3046390000     1.3423970000    -0.2234610000
   15      O       2.2912790000     2.6762790000    -0.4575600000
   16      C       1.0933320000     0.5898070000    -0.0976630000
   17      C      -0.1687310000     1.2739680000    -0.2240830000
   18      O      -0.2110580000     2.5597610000    -0.4497380000
   19      C      -1.3919970000     0.5268380000    -0.0994620000
   20      H      -1.7897700000     2.8239650000    -0.5042480000
   21      H      -4.7798500000     0.9735020000    -0.1955280000
   22      H      -4.7108580000    -1.4886040000     0.2363200000
   23      H      -2.5093550000    -2.6492850000     0.4513030000
   24      H       3.4806090000    -2.9851710000     0.5414970000
   25      H       4.5509010000    -1.1600810000     0.2269690000
   26      H       4.4336280000     1.2942460000    -0.2040830000
   27      H       1.3227500000     2.9254630000    -0.5063100000
 ----------------------------------------------------------------

   18    -914.7792163530      9.41e-09  Convergence criterion met
 Total energy in the final basis set =     -914.8717175103

                    Orbital Energies (a.u.)
 --------------------------------------------------------------

 Alpha MOs
 -- Occupied --
-19.1514 -19.1374 -19.1313 -19.1041 -19.0771 -10.2439 -10.2426 -10.2405
-10.2374 -10.2353 -10.1885 -10.1871 -10.1855 -10.1844 -10.1829 -10.1826
-10.1769 -10.1748 -10.1710  -1.0636  -1.0628  -1.0526  -1.0092  -1.0078
 -0.8674  -0.8528  -0.7978  -0.7550  -0.7521  -0.7406  -0.6810  -0.6529
 -0.6464  -0.5984  -0.5927  -0.5636  -0.5434  -0.5330  -0.5148  -0.4930
 -0.4821  -0.4769  -0.4560  -0.4474  -0.4465  -0.4308  -0.4287  -0.4192
 -0.4112  -0.4039  -0.4011  -0.3896  -0.3847  -0.3735  -0.3728  -0.3698
 -0.3611  -0.3498  -0.3353  -0.3129  -0.2797  -0.2690  -0.2614  -0.2375
 -0.2363  -0.2194  -0.1482

 Beta MOs
 -- Occupied --
-19.1512 -19.1371 -19.1307 -19.0995 -19.0719 -10.2435 -10.2406 -10.2395
-10.2367 -10.2347 -10.1888 -10.1862 -10.1858 -10.1835 -10.1815 -10.1813
-10.1762 -10.1743 -10.1712  -1.0625  -1.0614  -1.0514  -1.0016  -0.9994
 -0.8649  -0.8512  -0.7938  -0.7532  -0.7491  -0.7388  -0.6744  -0.6508
 -0.6445  -0.5972  -0.5909  -0.5623  -0.5415  -0.5318  -0.5137  -0.4907
 -0.4804  -0.4757  -0.4550  -0.4453  -0.4390  -0.4282  -0.4272  -0.4157
 -0.4074  -0.3997  -0.3966  -0.3886  -0.3749  -0.3717  -0.3690  -0.3599
 -0.3567  -0.3484  -0.3279  -0.3060  -0.2656  -0.2623  -0.2567  -0.2315
 -0.2289  -0.2108

          Ground-State Mulliken Net Atomic Charges

     Atom                 Charge (a.u.)    Spin (a.u.)
  --------------------------------------------------------
      1 O                    -0.314346       0.010554
      2 C                    -0.161003       0.051229
      3 C                     0.753412       0.024949
      4 C                     0.757668       0.068998
      5 C                    -0.348539       0.016025
      6 C                    -0.571823       0.090238
      7 C                    -1.444235       0.016844
      8 O                    -0.297049       0.195572
      9 C                    -0.670738       0.048607
     10 C                     0.344629       0.013031
     11 O                    -0.149316       0.005793
     12 C                     1.746779       0.102773
     13 C                     1.024425       0.044897
     14 C                    -0.246990       0.066682
     15 O                    -0.356103       0.018283
     16 C                    -0.916706      -0.048459
     17 C                    -1.392123       0.182333
     18 O                    -0.430954       0.160675
     19 C                    -0.861854      -0.042052
     20 H                     0.387994      -0.002426
     21 H                     0.272430      -0.002781
     22 H                     0.357429      -0.004788
     23 H                     0.133233      -0.001098
     24 H                     0.356209      -0.000542
     25 H                     0.364916      -0.008306
     26 H                     0.279085      -0.004281
     27 H                     0.383572      -0.002748
  --------------------------------------------------------
  Sum of atomic charges =    -1.000000

                    Cartesian Multipole Moments
 -----------------------------------------------------------------
    Charge (ESU x 10^10)
                -4.8032
    Dipole Moment (Debye)
         X       2.8191      Y      -1.1069      Z       0.2091
       Tot       3.0359
    Quadrupole Moments (Debye-Ang)
        XX    -116.3149     XY      -4.3222     YY    -146.9188
        XZ       0.7563     YZ       5.4044     ZZ    -116.8994

 Total job time:  847.76s(wall), 6546.47s(cpu)
        *  Thank you very much for using Q-Chem.  Have a nice day.  *
