 Q-Chem 5.4, Q-Chem, Inc., Pleasanton, CA (2021)
 Q-Chem 5.4.0 for Intel X86 EM64T Linux

User input:
--------------------------------------------------------------
$molecule
-1 2
C                 -3.4256490000      3.5983460000      0.0758580000
C                 -4.6007520000      2.8592040000      0.1079210000
C                 -4.6002720000      1.4517700000      0.1248000000
C                 -2.1676900000      2.9088510000      0.0592150000
C                 -2.1793490000      1.4792230000      0.0764310000
C                 -3.4025600000      0.7759650000      0.1091380000
C                 -0.8917270000      3.6423760000      0.0254180000
C                  0.3544980000      2.8588130000      0.0087120000
C                  0.3100830000      1.4298310000      0.0266820000
C                 -0.9496000000      0.6903660000      0.0612890000
C                  1.6385020000      3.4977920000     -0.0256570000
C                  2.7836780000      2.7125570000     -0.0399170000
C                  2.7280080000      1.3062440000     -0.0217100000
C                  1.5047450000      0.6785430000      0.0111130000
O                 -0.8670940000      4.9006110000      0.0113370000
O                 -0.9742300000     -0.5678480000      0.0770990000
C                 -3.5589380000      5.1058900000      0.0603860000
H                 -5.5486610000      3.3902960000      0.1202190000
H                 -5.5414540000      0.9100260000      0.1499210000
H                 -3.3511530000     -0.3060410000      0.1210280000
C                  1.8309060000      4.9988590000     -0.0481320000
H                  1.4109170000     -0.4005740000      0.0260320000
H                  3.7516510000      3.2056020000     -0.0660760000
H                  3.6471950000      0.7275470000     -0.0337220000
H                 -4.6202760000      5.3777850000      0.0771110000
H                 -3.0895540000      5.5447990000     -0.8217470000
H                 -3.0569620000      5.5654260000      0.9136120000
H                  1.3444340000      5.4564710000     -0.9113040000
H                  2.9020400000      5.2282730000     -0.0742250000
H                  1.3821740000      5.4776870000      0.8239390000
$end

$rem
BASIS  =  6-311++G(d,p)
GUI  =  2
JOB_TYPE  =  SP
METHOD  =  B3LYP
SCF_CONVERGENCE  = 8
SOLVENT_METHOD = sm12
$end

$smx
solvent dimethylformamide
charges CM5
$end

--------------------------------------------------------------

             Standard Nuclear Orientation (Angstroms)
    I     Atom           X                Y                Z
 ----------------------------------------------------------------
    1      C      -3.4256490000     3.5983460000     0.0758580000
    2      C      -4.6007520000     2.8592040000     0.1079210000
    3      C      -4.6002720000     1.4517700000     0.1248000000
    4      C      -2.1676900000     2.9088510000     0.0592150000
    5      C      -2.1793490000     1.4792230000     0.0764310000
    6      C      -3.4025600000     0.7759650000     0.1091380000
    7      C      -0.8917270000     3.6423760000     0.0254180000
    8      C       0.3544980000     2.8588130000     0.0087120000
    9      C       0.3100830000     1.4298310000     0.0266820000
   10      C      -0.9496000000     0.6903660000     0.0612890000
   11      C       1.6385020000     3.4977920000    -0.0256570000
   12      C       2.7836780000     2.7125570000    -0.0399170000
   13      C       2.7280080000     1.3062440000    -0.0217100000
   14      C       1.5047450000     0.6785430000     0.0111130000
   15      O      -0.8670940000     4.9006110000     0.0113370000
   16      O      -0.9742300000    -0.5678480000     0.0770990000
   17      C      -3.5589380000     5.1058900000     0.0603860000
   18      H      -5.5486610000     3.3902960000     0.1202190000
   19      H      -5.5414540000     0.9100260000     0.1499210000
   20      H      -3.3511530000    -0.3060410000     0.1210280000
   21      C       1.8309060000     4.9988590000    -0.0481320000
   22      H       1.4109170000    -0.4005740000     0.0260320000
   23      H       3.7516510000     3.2056020000    -0.0660760000
   24      H       3.6471950000     0.7275470000    -0.0337220000
   25      H      -4.6202760000     5.3777850000     0.0771110000
   26      H      -3.0895540000     5.5447990000    -0.8217470000
   27      H      -3.0569620000     5.5654260000     0.9136120000
   28      H       1.3444340000     5.4564710000    -0.9113040000
   29      H       2.9020400000     5.2282730000    -0.0742250000
   30      H       1.3821740000     5.4776870000     0.8239390000
 ----------------------------------------------------------------

   16    -767.6573532478      9.47e-09  Convergence criterion met
 Total energy in the final basis set =     -767.7434147955

                    Orbital Energies (a.u.)
 --------------------------------------------------------------

 Alpha MOs
 -- Occupied --
-19.0736 -19.0735 -10.2302 -10.2226 -10.1920 -10.1920 -10.1821 -10.1821
-10.1793 -10.1793 -10.1773 -10.1772 -10.1755 -10.1755 -10.1730 -10.1730
-10.1626 -10.1626  -1.0044  -0.9997  -0.8661  -0.8595  -0.7927  -0.7778
 -0.7744  -0.7438  -0.6994  -0.6859  -0.6629  -0.6308  -0.6241  -0.5735
 -0.5510  -0.5325  -0.5236  -0.4762  -0.4707  -0.4690  -0.4645  -0.4362
 -0.4266  -0.4180  -0.4160  -0.4109  -0.4087  -0.4054  -0.4018  -0.3839
 -0.3817  -0.3727  -0.3643  -0.3596  -0.3529  -0.3484  -0.3401  -0.3384
 -0.2708  -0.2558  -0.2543  -0.2542  -0.2423  -0.2320  -0.1426

 Beta MOs
 -- Occupied --
-19.0677 -19.0676 -10.2290 -10.2210 -10.1921 -10.1921 -10.1812 -10.1812
-10.1789 -10.1789 -10.1765 -10.1764 -10.1748 -10.1748 -10.1729 -10.1729
-10.1626 -10.1626  -0.9941  -0.9894  -0.8635  -0.8583  -0.7887  -0.7770
 -0.7726  -0.7419  -0.6962  -0.6852  -0.6574  -0.6291  -0.6215  -0.5727
 -0.5487  -0.5300  -0.5225  -0.4738  -0.4701  -0.4678  -0.4628  -0.4293
 -0.4246  -0.4170  -0.4154  -0.4103  -0.4044  -0.4033  -0.3927  -0.3836
 -0.3798  -0.3631  -0.3566  -0.3523  -0.3517  -0.3473  -0.3368  -0.3283
 -0.2506  -0.2502  -0.2502  -0.2425  -0.2369  -0.2267

          Ground-State Mulliken Net Atomic Charges

     Atom                 Charge (a.u.)    Spin (a.u.)
  --------------------------------------------------------
      1 C                    -0.099274      -0.002979
      2 C                     1.085355       0.055757
      3 C                     0.845092       0.027844
      4 C                    -0.807621       0.057702
      5 C                    -0.810154       0.038172
      6 C                     0.056713       0.040038
      7 C                    -2.325353       0.056239
      8 C                    -0.806909       0.057719
      9 C                    -0.809796       0.038048
     10 C                    -2.738124       0.071320
     11 C                    -0.095934      -0.002904
     12 C                     1.090809       0.055663
     13 C                     0.846738       0.027822
     14 C                     0.062747       0.040079
     15 O                    -0.187188       0.218843
     16 O                    -0.298961       0.223523
     17 C                     0.700946       0.009140
     18 H                     0.252749      -0.004692
     19 H                     0.370627      -0.002357
     20 H                     0.140391      -0.002241
     21 C                     0.702075       0.009146
     22 H                     0.140479      -0.002242
     23 H                     0.252973      -0.004686
     24 H                     0.370765      -0.002354
     25 H                     0.258441      -0.000316
     26 H                     0.135880      -0.000494
     27 H                     0.135934      -0.000496
     28 H                     0.136010      -0.000492
     29 H                     0.258582      -0.000314
     30 H                     0.136007      -0.000491
  --------------------------------------------------------
  Sum of atomic charges =    -1.000000

                    Cartesian Multipole Moments
 -----------------------------------------------------------------
    Charge (ESU x 10^10)
                -4.8032
    Dipole Moment (Debye)
         X       4.4495      Y      -9.2142      Z      -0.2251
       Tot      10.2348
    Quadrupole Moments (Debye-Ang)
        XX    -118.0786     XY       8.0699     YY    -155.5559
        XZ       0.2268     YZ      -0.1427     ZZ    -113.3786

 Total job time:  855.60s(wall), 6425.40s(cpu)
        *  Thank you very much for using Q-Chem.  Have a nice day.  *
