 Gaussian 16, Revision A.03,
 Gaussian 16:  ES64L-G16RevA.03 25-Dec-2016

 --------------------------------------
 #P UB3LYP/6-311++G(d,p) nosym opt freq
 --------------------------------------

 -------
 Radical
 -------
 Symbolic Z-matrix:
 Charge = -1 Multiplicity = 2

 SCF Done:  E(UB3LYP) =  -3184.11637642     A.U. after   23 cycles
 SCF Done:  E(UB3LYP) =  -3184.11637573     A.U. after   11 cycles
 SCF Done:  E(UB3LYP) =  -3184.11637688     A.U. after   11 cycles
 Optimization completed.
    -- Stationary point found.
 Normal termination of Gaussian 16 at Mon Jan  8 21:30:23 2024.

 ----------------------------------------------------------------------
 #P Geom=AllCheck Guess=TCheck SCRF=Check GenChk UB3LYP/6-311++G(d,p) F
 req
 ----------------------------------------------------------------------

 Structure from the checkpoint file:  "306-rad.chk"
 -------
 Radical
 -------
 Charge = -1 Multiplicity = 2

                          Input orientation:
 ---------------------------------------------------------------------
 Center     Atomic      Atomic             Coordinates (Angstroms)
 Number     Number       Type             X           Y           Z
 ---------------------------------------------------------------------
      1          6           0       -4.121574    3.636252    1.517026
      2          6           0       -4.607839    3.860672    0.246105
      3          6           0       -4.014557    3.213496   -0.846124
      4          6           0       -2.940915    2.346876   -0.666842
      5          6           0       -2.413296    2.091775    0.629684
      6          6           0       -3.036520    2.764246    1.724965
      7          6           0       -2.571982    2.574484    3.113585
      8          6           0       -1.464988    1.679747    3.290562
      9          6           0       -0.876009    1.040864    2.231136
     10          6           0       -1.267674    1.169886    0.840104
     11          8           0       -3.118267    3.164920    4.082480
     12          8           0       -0.691642    0.561078   -0.081784
     13          1           0       -4.548652    4.114309    2.389738
     14          1           0       -4.390452    3.383400   -1.853374
     15          8           0       -2.390372    1.734572   -1.762773
     16         35           0        0.612666   -0.145420    2.587270
     17          1           0       -5.444715    4.532796    0.082877
     18          1           0       -1.112069    1.529543    4.303404
     19          1           0       -2.883014    2.034566   -2.534243
 ---------------------------------------------------------------------

 SCF Done:  E(UB3LYP) =  -3184.11637688     A.U. after    2 cycles

 Alpha  occ. eigenvalues -- -482.69573 -62.34851 -56.16866 -56.16521 -56.16491
 Alpha  occ. eigenvalues --  -19.04188 -18.94651 -18.94581 -10.12816 -10.10566
 Alpha  occ. eigenvalues --  -10.09654 -10.09094 -10.06656 -10.06428 -10.06343
 Alpha  occ. eigenvalues --  -10.05794 -10.04905 -10.04417  -8.55810  -6.38885
 Alpha  occ. eigenvalues --   -6.37724  -6.37639  -2.49992  -2.49673  -2.49609
 Alpha  occ. eigenvalues --   -2.48683  -2.48682  -0.95505  -0.87694  -0.87038
 Alpha  occ. eigenvalues --   -0.74200  -0.70493  -0.65681  -0.63044  -0.61169
 Alpha  occ. eigenvalues --   -0.55163  -0.51827  -0.48990  -0.45966  -0.41024
 Alpha  occ. eigenvalues --   -0.39503  -0.36464  -0.35305  -0.33734  -0.31574
 Alpha  occ. eigenvalues --   -0.31080  -0.28913  -0.27901  -0.27608  -0.27192
 Alpha  occ. eigenvalues --   -0.25397  -0.25142  -0.23821  -0.23445  -0.21921
 Alpha  occ. eigenvalues --   -0.19055  -0.15908  -0.14750  -0.12722  -0.11789
 Alpha  occ. eigenvalues --   -0.11323  -0.10632  -0.02656
 Alpha virt. eigenvalues --    0.07097   0.08960   0.09127   0.09390   0.10049
 Alpha virt. eigenvalues --    0.11285   0.11642   0.13444   0.14314   0.14742
 Alpha virt. eigenvalues --    0.15529   0.15697   0.16147   0.17174   0.17311

  Beta  occ. eigenvalues -- -482.69573 -62.34851 -56.16868 -56.16516 -56.16491
  Beta  occ. eigenvalues --  -19.04184 -18.93968 -18.93909 -10.12831 -10.10491
  Beta  occ. eigenvalues --  -10.09541 -10.08888 -10.06616 -10.06371 -10.06299
  Beta  occ. eigenvalues --  -10.05718 -10.04904 -10.04284  -8.55809  -6.38891
  Beta  occ. eigenvalues --   -6.37716  -6.37639  -2.49994  -2.49670  -2.49612
  Beta  occ. eigenvalues --   -2.48678  -2.48678  -0.95495  -0.86563  -0.85858
  Beta  occ. eigenvalues --   -0.73995  -0.70072  -0.65471  -0.62874  -0.60943
  Beta  occ. eigenvalues --   -0.54374  -0.51640  -0.48711  -0.45774  -0.40775
  Beta  occ. eigenvalues --   -0.39308  -0.36292  -0.35157  -0.33546  -0.31353
  Beta  occ. eigenvalues --   -0.30616  -0.28568  -0.27772  -0.26647  -0.26382
  Beta  occ. eigenvalues --   -0.25260  -0.23534  -0.23278  -0.23103  -0.20931
  Beta  occ. eigenvalues --   -0.18113  -0.15877  -0.12810  -0.11623  -0.10963
  Beta  occ. eigenvalues --   -0.10685  -0.10013
  Beta virt. eigenvalues --    0.03976   0.07097   0.08955   0.09902   0.10143
  Beta virt. eigenvalues --    0.10516   0.11308   0.11647   0.13453   0.14333
  Beta virt. eigenvalues --    0.14817   0.15584   0.15758   0.16158   0.17177

 Mulliken charges and spin densities:
               1          2
     1  C    0.183373   0.027794
     2  C   -0.348192   0.033377
     3  C   -0.146223   0.048168
     4  C    0.060240   0.021669
     5  C    0.116711   0.011112
     6  C    0.368380   0.063372
     7  C   -0.834449   0.045052
     8  C    0.149631   0.115435
     9  C    0.510035   0.122252
    10  C   -0.776573   0.023364
    11  O   -0.387636   0.248866
    12  O   -0.298506   0.255189
    13  H    0.151041  -0.002902
    14  H    0.072502  -0.004180
    15  O   -0.160726  -0.000994
    16  Br  -0.231510   0.004880
    17  H    0.137186  -0.002412
    18  H    0.197875  -0.009605
    19  H    0.236840  -0.000438
 Sum of Mulliken charges =  -1.00000   1.00000

 Dipole moment (field-independent basis, Debye):
    X=              7.2140    Y=             -7.4362    Z=            -10.2841  Tot=             14.5979
 Quadrupole moment (field-independent basis, Debye-Ang):
   XX=           -119.4468   YY=           -120.1964   ZZ=           -131.7921
   XY=             21.3394   XZ=             28.1201   YZ=            -28.0356

  Exact polarizability: 180.415 -76.752 147.768  22.086  -1.833 201.182
 Approx polarizability: 277.802-121.406 236.130   2.104  28.165 343.087

                      1                      2                      3
                      A                      A                      A
 Frequencies --     50.6887                67.5544               148.5748
 Red. masses --     10.7225                 7.0512                12.3376
 Frc consts  --      0.0162                 0.0190                 0.1605
 IR Inten    --      9.2027                 0.0214                 4.0652

                      4                      5                      6
                      A                      A                      A
 Frequencies --    149.8920               194.7238               239.5603
 Red. masses --      9.5860                 4.6427                18.1756
 Frc consts  --      0.1269                 0.1037                 0.6146
 IR Inten    --      1.7984                 0.2455                 0.1673

                      7                      8                      9
                      A                      A                      A
 Frequencies --    246.1227               276.2657               311.1817
 Red. masses --      2.4166                 9.0725                 1.5838
 Frc consts  --      0.0862                 0.4080                 0.0904
 IR Inten    --     23.1465                 2.8541                48.8722

                     10                     11                     12
                      A                      A                      A
 Frequencies --    359.2842               362.9595               382.1265
 Red. masses --      4.9387                 9.6273                10.4697
 Frc consts  --      0.3756                 0.7473                 0.9007
 IR Inten    --      8.8687                 3.0632                 5.0611

                     13                     14                     15
                      A                      A                      A
 Frequencies --    469.9969               475.4737               506.8657
 Red. masses --     10.4498                 4.5829                 5.5447
 Frc consts  --      1.3600                 0.6104                 0.8393
 IR Inten    --      4.8401                 0.3536                14.4670

                     16                     17                     18
                      A                      A                      A
 Frequencies --    538.0737               538.7196               659.7284
 Red. masses --      7.6547                 4.5703                 5.7101
 Frc consts  --      1.3058                 0.7815                 1.4643
 IR Inten    --      2.9271                 0.6822                 6.9346

                     19                     20                     21
                      A                      A                      A
 Frequencies --    661.2738               678.1105               698.0294
 Red. masses --      3.7073                 7.7965                 3.3780
 Frc consts  --      0.9551                 2.1123                 0.9698
 IR Inten    --     11.6513                 9.9056                 9.3772

                     22                     23                     24
                      A                      A                      A
 Frequencies --    747.7690               784.7545               786.5095
 Red. masses --      1.7024                 8.1244                 6.1866
 Frc consts  --      0.5608                 2.9479                 2.2548
 IR Inten    --     42.6791                99.8146                10.1905

                     25                     26                     27
                      A                      A                      A
 Frequencies --    809.8039               844.0916               858.2516
 Red. masses --      5.5211                 1.3644                 1.5622
 Frc consts  --      2.1332                 0.5728                 0.6780
 IR Inten    --      7.0322                 6.6542                17.2695

                     28                     29                     30
                      A                      A                      A
 Frequencies --    953.5127               961.3085              1054.2237
 Red. masses --      7.0410                 1.2677                 4.3317
 Frc consts  --      3.7717                 0.6902                 2.8365
 IR Inten    --     94.0499                 1.1165                 8.4805

                     31                     32                     33
                      A                      A                      A
 Frequencies --   1098.1473              1149.3126              1158.2767
 Red. masses --      1.9618                 1.9330                 2.3751
 Frc consts  --      1.3939                 1.5044                 1.8774
 IR Inten    --     64.7558                40.4053                72.5528

                     34                     35                     36
                      A                      A                      A
 Frequencies --   1189.4869              1220.4114              1277.7758
 Red. masses --      1.6736                 1.8077                 1.7904
 Frc consts  --      1.3951                 1.5863                 1.7223
 IR Inten    --     10.6233                 3.3346                37.7051

                     37                     38                     39
                      A                      A                      A
 Frequencies --   1279.3236              1350.7947              1371.6435
 Red. masses --      3.1709                 5.1346                 4.5065
 Frc consts  --      3.0577                 5.5199                 4.9954
 IR Inten    --     73.9355                 5.0845                27.6868

                     40                     41                     42
                      A                      A                      A
 Frequencies --   1447.7468              1469.6521              1504.8025
 Red. masses --      3.0073                 2.8841                 7.6081
 Frc consts  --      3.7137                 3.6703                10.1504
 IR Inten    --     33.1923               122.2284                72.4711

                     43                     44                     45
                      A                      A                      A
 Frequencies --   1548.1389              1555.0047              1616.1863
 Red. masses --      6.3200                 6.3138                 8.2045
 Frc consts  --      8.9246                 8.9951                12.6266
 IR Inten    --    579.1392                27.4905                20.7184

                     46                     47                     48
                      A                      A                      A
 Frequencies --   1627.1439              3114.7691              3151.9456
 Red. masses --      6.1537                 1.0870                 1.0908
 Frc consts  --      9.5994                 6.2132                 6.3847
 IR Inten    --     19.1252                37.8509                39.3197

                     49                     50                     51
                      A                      A                      A
 Frequencies --   3186.8861              3193.8928              3809.1919
 Red. masses --      1.0904                 1.0920                 1.0654
 Frc consts  --      6.5249                 6.5634                 9.1082
 IR Inten    --      5.0883                13.1938                16.6148

 - Thermochemistry -
 -------------------
 Temperature   298.150 Kelvin.  Pressure   1.00000 Atm.
 Atom     1 has atomic number  6 and mass  12.00000

 Molecular mass:   251.94221 amu.
 Principal axes and moments of inertia in atomic units:
                           1         2         3
     Eigenvalues --  1929.287855171.665307100.95314
           X            0.73142  -0.24794   0.63525
           Y           -0.55081   0.33440   0.76471
           Z            0.40204   0.90923  -0.10802
 This molecule is an asymmetric top.
 Rotational symmetry number  1.
 Warning -- assumption of classical behavior for rotation
           may cause significant error
 Rotational temperatures (Kelvin)      0.04489     0.01675     0.01220
 Rotational constants (GHZ):           0.93544     0.34897     0.25415
 Zero-point vibrational energy     323805.0 (Joules/Mol)
                                   77.39125 (Kcal/Mol)
 Warning -- explicit consideration of  17 degrees of freedom as
           vibrations may cause significant error
 Vibrational temperatures:     72.93    97.20   213.77   215.66   280.16
          (Kelvin)            344.67   354.12   397.48   447.72   516.93
                              522.22   549.79   676.22   684.10   729.27
                              774.17   775.10   949.20   951.43   975.65
                             1004.31  1075.87  1129.09  1131.61  1165.13
                             1214.46  1234.83  1371.89  1383.11  1516.79
                             1579.99  1653.60  1666.50  1711.41  1755.90
                             1838.43  1840.66  1943.49  1973.49  2082.98
                             2114.50  2165.08  2227.43  2237.30  2325.33
                             2341.10  4481.46  4534.95  4585.22  4595.30
                             5480.58

 Zero-point correction=                           0.123331 (Hartree/Particle)
 Thermal correction to Energy=                    0.134880
 Thermal correction to Enthalpy=                  0.135825
 Thermal correction to Gibbs Free Energy=         0.083883
 Sum of electronic and zero-point Energies=          -3183.993046
 Sum of electronic and thermal Energies=             -3183.981497
 Sum of electronic and thermal Enthalpies=           -3183.980552
 Sum of electronic and thermal Free Energies=        -3184.032494

                     E (Thermal)             CV                S
                      KCal/Mol        Cal/Mol-Kelvin    Cal/Mol-Kelvin
 Total                   84.639             44.026            109.320
 Electronic               0.000              0.000              1.377
 Translational            0.889              2.981             42.472
 Rotational               0.889              2.981             32.627
 Vibrational             82.861             38.065             32.843
 Vibration     1          0.595              1.977              4.790
 Vibration     2          0.598              1.970              4.223
 Vibration     3          0.618              1.904              2.690
 Vibration     4          0.618              1.903              2.674
 Vibration     5          0.635              1.847              2.182
 Vibration     6          0.657              1.780              1.806
 Vibration     7          0.661              1.769              1.758
 Vibration     8          0.678              1.717              1.557
 Vibration     9          0.700              1.652              1.356
 Vibration    10          0.734              1.556              1.125
 Vibration    11          0.737              1.549              1.109
 Vibration    12          0.752              1.508              1.031
 Vibration    13          0.827              1.317              0.738
 Vibration    14          0.832              1.304              0.722
 Vibration    15          0.862              1.235              0.641
 Vibration    16          0.893              1.166              0.569
 Vibration    17          0.894              1.164              0.568

 Optimization completed.
    -- Stationary point found.
 Normal termination of Gaussian 16 at Mon Jan  8 21:53:55 2024.
