 Q-Chem 5.4, Q-Chem, Inc., Pleasanton, CA (2021)
 Q-Chem 5.4.0 for Intel X86 EM64T Linux

User input:
--------------------------------------------------------------
$molecule
-1 2
C                 -4.1215740000      3.6362520000      1.5170260000
C                 -4.6078390000      3.8606720000      0.2461050000
C                 -4.0145570000      3.2134960000     -0.8461240000
C                 -2.9409150000      2.3468760000     -0.6668420000
C                 -2.4132960000      2.0917750000      0.6296840000
C                 -3.0365200000      2.7642460000      1.7249650000
C                 -2.5719820000      2.5744840000      3.1135850000
C                 -1.4649880000      1.6797470000      3.2905620000
C                 -0.8760090000      1.0408640000      2.2311360000
C                 -1.2676740000      1.1698860000      0.8401040000
O                 -3.1182670000      3.1649200000      4.0824800000
O                 -0.6916420000      0.5610780000     -0.0817840000
H                 -4.5486520000      4.1143090000      2.3897380000
H                 -4.3904520000      3.3834000000     -1.8533740000
O                 -2.3903720000      1.7345720000     -1.7627730000
Br                 0.6126660000     -0.1454200000      2.5872700000
H                 -5.4447150000      4.5327960000      0.0828770000
H                 -1.1120690000      1.5295430000      4.3034040000
H                 -2.8830140000      2.0345660000     -2.5342430000
$end
$rem
MAX_SCF_CYCLES=200
BASIS  =  6-311++G(d,p)
GUI  =  2
JOB_TYPE  =  SP
METHOD  =  B3LYP
SOLVENT_METHOD = PCM
$end
$pcm
theory = CPCM
$end
$solvent
dielectric 37.219
opticaldielectric 1.43
$end

--------------------------------------------------------------

             Standard Nuclear Orientation (Angstroms)
    I     Atom           X                Y                Z
 ----------------------------------------------------------------
    1      C      -4.1215740000     3.6362520000     1.5170260000
    2      C      -4.6078390000     3.8606720000     0.2461050000
    3      C      -4.0145570000     3.2134960000    -0.8461240000
    4      C      -2.9409150000     2.3468760000    -0.6668420000
    5      C      -2.4132960000     2.0917750000     0.6296840000
    6      C      -3.0365200000     2.7642460000     1.7249650000
    7      C      -2.5719820000     2.5744840000     3.1135850000
    8      C      -1.4649880000     1.6797470000     3.2905620000
    9      C      -0.8760090000     1.0408640000     2.2311360000
   10      C      -1.2676740000     1.1698860000     0.8401040000
   11      O      -3.1182670000     3.1649200000     4.0824800000
   12      O      -0.6916420000     0.5610780000    -0.0817840000
   13      H      -4.5486520000     4.1143090000     2.3897380000
   14      H      -4.3904520000     3.3834000000    -1.8533740000
   15      O      -2.3903720000     1.7345720000    -1.7627730000
   16      Br      0.6126660000    -0.1454200000     2.5872700000
   17      H      -5.4447150000     4.5327960000     0.0828770000
   18      H      -1.1120690000     1.5295430000     4.3034040000
   19      H      -2.8830140000     2.0345660000    -2.5342430000
 ----------------------------------------------------------------

    9   -3184.2036820907      6.17e-06  Convergence criterion met
 Total energy in the final basis set =    -3184.2036820907

                    Orbital Energies (a.u.)
 --------------------------------------------------------------

 Alpha MOs
 -- Occupied --
******** -62.4772 -56.2975 -56.2940 -56.2937 -19.1532 -19.0835 -19.0832
-10.2441 -10.2408 -10.2305 -10.2207 -10.1867 -10.1818 -10.1780 -10.1738
-10.1727 -10.1667  -8.6858  -6.5167  -6.5049  -6.5041  -2.6277  -2.6245
 -2.6238  -2.6145  -2.6144  -1.0664  -1.0154  -1.0075  -0.8626  -0.8322
 -0.7800  -0.7493  -0.7353  -0.6791  -0.6357  -0.6104  -0.5784  -0.5316
 -0.5153  -0.4840  -0.4757  -0.4580  -0.4399  -0.4356  -0.4224  -0.4038
 -0.4015  -0.3968  -0.3877  -0.3776  -0.3602  -0.3564  -0.3387  -0.3224
 -0.2891  -0.2750  -0.2520  -0.2517  -0.2437  -0.2375  -0.1595

 Beta MOs
 -- Occupied --
******** -62.4772 -56.2975 -56.2939 -56.2937 -19.1531 -19.0776 -19.0771
-10.2440 -10.2395 -10.2289 -10.2186 -10.1866 -10.1814 -10.1777 -10.1733
-10.1712 -10.1665  -8.6858  -6.5167  -6.5048  -6.5041  -2.6277  -2.6245
 -2.6239  -2.6144  -2.6144  -1.0660  -1.0052  -0.9969  -0.8602  -0.8283
 -0.7778  -0.7472  -0.7331  -0.6705  -0.6336  -0.6077  -0.5762  -0.5289
 -0.5131  -0.4818  -0.4739  -0.4567  -0.4375  -0.4270  -0.4168  -0.4014
 -0.3954  -0.3906  -0.3756  -0.3647  -0.3591  -0.3550  -0.3324  -0.3112
 -0.2887  -0.2556  -0.2461  -0.2448  -0.2384  -0.2305

          Ground-State Mulliken Net Atomic Charges

     Atom                 Charge (a.u.)    Spin (a.u.)
  --------------------------------------------------------
      1 C                     0.180875       0.047369
      2 C                    -0.423563       0.023529
      3 C                    -0.182556       0.041750
      4 C                     0.063162       0.033793
      5 C                     0.078179      -0.020436
      6 C                     0.287047       0.035623
      7 C                    -0.646724       0.082934
      8 C                    -0.003368       0.118393
      9 C                     0.630805       0.129270
     10 C                    -0.711349       0.074974
     11 O                    -0.492203       0.219739
     12 O                    -0.420796       0.223510
     13 H                     0.164730      -0.003606
     14 H                     0.188954      -0.003486
     15 O                    -0.247983       0.001667
     16 Br                   -0.224675       0.006938
     17 H                     0.214861      -0.001726
     18 H                     0.229917      -0.009913
     19 H                     0.314688      -0.000321
  --------------------------------------------------------
  Sum of atomic charges =    -1.000000

                    Cartesian Multipole Moments
 -----------------------------------------------------------------
    Charge (ESU x 10^10)
                -4.8032
    Dipole Moment (Debye)
         X       5.6045      Y      -6.3207      Z     -11.8303
       Tot      14.5367
    Quadrupole Moments (Debye-Ang)
        XX    -107.7914     XY      13.0407     YY    -114.0357
        XZ      36.3691     YZ     -34.9365     ZZ    -131.8920

 Total job time:  305.39s(wall), 240.73s(cpu)
        *  Thank you very much for using Q-Chem.  Have a nice day.  *
