 Q-Chem 5.4, Q-Chem, Inc., Pleasanton, CA (2021)
 Q-Chem 5.4.0 for Intel X86 EM64T Linux

User input:
--------------------------------------------------------------
$molecule
-2 1
C                  4.7030440000     -0.6737320000      0.9150810000
O                  4.2763600000      0.3023560000     -0.0120270000
C                  2.9038880000      0.4603190000     -0.1842460000
C                  2.5302160000      1.5479200000     -1.0191370000
C                  1.1949020000      1.7883950000     -1.2555830000
C                  0.1675370000      0.9899670000     -0.6965930000
C                 -1.2194520000      1.3065060000     -0.9909460000
O                 -1.5598310000      2.2887780000     -1.7361230000
C                 -2.1871510000      0.4164150000     -0.3767400000
C                 -3.5686590000      0.6316750000     -0.6017830000
C                 -4.5405400000     -0.1772920000     -0.0473310000
C                 -4.1542800000     -1.2670880000      0.7825410000
C                 -2.8164690000     -1.5054360000      1.0200150000
C                 -1.7927460000     -0.6954040000      0.4636720000
C                 -0.4079860000     -1.0056600000      0.7554900000
O                 -0.0598430000     -1.9910940000      1.4994470000
C                  0.5556400000     -0.1170770000      0.1402540000
C                  1.9425940000     -0.3478590000      0.3760830000
H                  4.4277970000     -1.6873570000      0.5964120000
H                  4.2719520000     -0.4990400000      1.9109400000
H                  5.7918260000     -0.6040390000      0.9780870000
H                  3.3100170000      2.1677950000     -1.4513530000
H                  0.8804570000      2.6123460000     -1.8883710000
H                 -3.8291580000      1.4717400000     -1.2384690000
H                 -5.5939980000      0.0163480000     -0.2406670000
H                 -4.9127030000     -1.9095050000      1.2267630000
H                 -2.4916090000     -2.3292670000      1.6479710000
H                  2.1781960000     -1.1907100000      1.0136870000
$end
$rem
MAX_SCF_CYCLES=200
BASIS  =  6-311++G(d,p)
GUI  =  2
JOB_TYPE  =  SP
METHOD  =  B3LYP
SOLVENT_METHOD = PCM
$end
$pcm
theory = CPCM
$end
$solvent
dielectric 37.219
opticaldielectric 1.43
$end

--------------------------------------------------------------

             Standard Nuclear Orientation (Angstroms)
    I     Atom           X                Y                Z
 ----------------------------------------------------------------
    1      C       4.7030440000    -0.6737320000     0.9150810000
    2      O       4.2763600000     0.3023560000    -0.0120270000
    3      C       2.9038880000     0.4603190000    -0.1842460000
    4      C       2.5302160000     1.5479200000    -1.0191370000
    5      C       1.1949020000     1.7883950000    -1.2555830000
    6      C       0.1675370000     0.9899670000    -0.6965930000
    7      C      -1.2194520000     1.3065060000    -0.9909460000
    8      O      -1.5598310000     2.2887780000    -1.7361230000
    9      C      -2.1871510000     0.4164150000    -0.3767400000
   10      C      -3.5686590000     0.6316750000    -0.6017830000
   11      C      -4.5405400000    -0.1772920000    -0.0473310000
   12      C      -4.1542800000    -1.2670880000     0.7825410000
   13      C      -2.8164690000    -1.5054360000     1.0200150000
   14      C      -1.7927460000    -0.6954040000     0.4636720000
   15      C      -0.4079860000    -1.0056600000     0.7554900000
   16      O      -0.0598430000    -1.9910940000     1.4994470000
   17      C       0.5556400000    -0.1170770000     0.1402540000
   18      C       1.9425940000    -0.3478590000     0.3760830000
   19      H       4.4277970000    -1.6873570000     0.5964120000
   20      H       4.2719520000    -0.4990400000     1.9109400000
   21      H       5.7918260000    -0.6040390000     0.9780870000
   22      H       3.3100170000     2.1677950000    -1.4513530000
   23      H       0.8804570000     2.6123460000    -1.8883710000
   24      H      -3.8291580000     1.4717400000    -1.2384690000
   25      H      -5.5939980000     0.0163480000    -0.2406670000
   26      H      -4.9127030000    -1.9095050000     1.2267630000
   27      H      -2.4916090000    -2.3292670000     1.6479710000
   28      H       2.1781960000    -1.1907100000     1.0136870000
 ----------------------------------------------------------------

    9    -803.7546911998      5.43e-06  Convergence criterion met
 Total energy in the final basis set =     -803.7546911998

                    Orbital Energies (a.u.)
 --------------------------------------------------------------

 Alpha MOs
 -- Occupied --
-19.1412 -19.0253 -19.0207 -10.2107 -10.2069 -10.1775 -10.1714 -10.1520
-10.1501 -10.1487 -10.1473 -10.1463 -10.1451 -10.1430 -10.1385 -10.1359
-10.1356 -10.1351  -1.0501  -0.9463  -0.9400  -0.8295  -0.8217  -0.7555
 -0.7275  -0.7226  -0.7182  -0.6785  -0.6347  -0.6059  -0.5850  -0.5620
 -0.5301  -0.5172  -0.5055  -0.4659  -0.4604  -0.4547  -0.4391  -0.4293
 -0.4140  -0.4051  -0.3984  -0.3836  -0.3832  -0.3738  -0.3695  -0.3616
 -0.3527  -0.3358  -0.3296  -0.3246  -0.3207  -0.3140  -0.3011  -0.2845
 -0.2354  -0.2271  -0.2242  -0.2069  -0.2050  -0.1985  -0.1054

          Ground-State Mulliken Net Atomic Charges

     Atom                 Charge (a.u.)
  ----------------------------------------
      1 C                    -0.353922
      2 O                    -0.241381
      3 C                    -0.717519
      4 C                    -0.439807
      5 C                     0.062702
      6 C                     0.204765
      7 C                    -0.549780
      8 O                    -0.671047
      9 C                     0.114373
     10 C                     0.046781
     11 C                    -0.542559
     12 C                    -0.528674
     13 C                    -0.012457
     14 C                     0.302988
     15 C                    -0.544536
     16 O                    -0.695855
     17 C                     0.523138
     18 C                     0.409138
     19 H                     0.162996
     20 H                     0.162223
     21 H                     0.188675
     22 H                     0.198636
     23 H                     0.156722
     24 H                     0.143768
     25 H                     0.169586
     26 H                     0.171867
     27 H                     0.143034
     28 H                     0.136146
  ----------------------------------------
  Sum of atomic charges =    -2.000000

                    Cartesian Multipole Moments
 -----------------------------------------------------------------
    Charge (ESU x 10^10)
                -9.6064
    Dipole Moment (Debye)
         X       7.7366      Y      -2.0499      Z       1.8431
       Tot       8.2131
    Quadrupole Moments (Debye-Ang)
        XX    -140.0681     XY       3.4504     YY    -146.7756
        XZ      -2.1099     YZ      21.7856     ZZ    -133.3017

 Total job time:  95.22s(wall), 364.46s(cpu)
        *  Thank you very much for using Q-Chem.  Have a nice day.  *
