 Gaussian 16, Revision A.03,
 Gaussian 16:  ES64L-G16RevA.03 25-Dec-2016

 --------------------------------------
 #P UB3LYP/6-311++G(d,p) nosym opt freq
 --------------------------------------

 -------
 Reduced
 -------
 Symbolic Z-matrix:
 Charge = -2 Multiplicity = 1

 SCF Done:  E(UB3LYP) =  -1243.25407516     A.U. after   41 cycles
 Optimization completed.
    -- Stationary point found.
 Normal termination of Gaussian 16 at Wed Dec 27 21:06:02 2023.

 ----------------------------------------------------------------------
 #P Geom=AllCheck Guess=TCheck SCRF=Check GenChk UB3LYP/6-311++G(d,p) F
 req
 ----------------------------------------------------------------------

 Structure from the checkpoint file:  "162-an.chk"
 -------
 Reduced
 -------
 Charge = -2 Multiplicity = 1

                          Input orientation:
 ---------------------------------------------------------------------
 Center     Atomic      Atomic             Coordinates (Angstroms)
 Number     Number       Type             X           Y           Z
 ---------------------------------------------------------------------
      1          6           0       -4.377706   -0.454103   -0.066905
      2          6           0       -2.893377   -0.701051   -0.079606
      3          6           0       -2.386428   -1.999218   -0.330272
      4          6           0       -1.036549   -2.246139   -0.324545
      5         17           0       -0.623009   -3.960228   -0.691843
      6          6           0       -0.050335   -1.241632   -0.084734
      7          6           0        1.375496   -1.532554   -0.018996
      8          8           0        1.870889   -2.705613   -0.060548
      9          6           0        2.240482   -0.369921    0.102270
     10          6           0        3.643225   -0.563356    0.118554
     11          6           0        4.530006    0.489219    0.227063
     12          6           0        4.028968    1.816659    0.333393
     13          6           0        2.668256    2.036428    0.322601
     14          6           0        1.734250    0.970812    0.207658
     15          6           0        0.326589    1.259539    0.213508
     16          8           0       -0.078353    2.499852    0.318119
     17          6           0       -0.563544    0.129216    0.091750
     18          6           0       -1.996596    0.344132    0.118329
     19          7           0       -2.491555    1.624298    0.385050
     20          1           0       -4.711920    0.000849    0.874523
     21          1           0       -4.713750    0.230695   -0.871547
     22          1           0       -4.930365   -1.388733   -0.207377
     23          1           0       -3.075852   -2.816473   -0.513935
     24          1           0        3.986757   -1.589823    0.038516
     25          1           0        5.603243    0.307104    0.231888
     26          1           0        4.718548    2.654567    0.424008
     27          1           0        2.254234    3.035861    0.404238
     28          1           0       -1.709614    2.311458    0.333536
     29          1           0       -3.341990    1.858155   -0.111631
 ---------------------------------------------------------------------

 SCF Done:  E(UB3LYP) =  -1243.25407516     A.U. after    4 cycles

 Alpha  occ. eigenvalues -- -101.30120 -18.79482 -18.78479 -14.06141  -9.97964
 Alpha  occ. eigenvalues --   -9.96723  -9.96369  -9.95287  -9.95089  -9.93764
 Alpha  occ. eigenvalues --   -9.93569  -9.93178  -9.93122  -9.92770  -9.92717
 Alpha  occ. eigenvalues --   -9.92454  -9.92275  -9.91289  -9.91135  -9.21569
 Alpha  occ. eigenvalues --   -6.97997  -6.97099  -6.97016  -0.71461  -0.70891
 Alpha  occ. eigenvalues --   -0.66573  -0.62401  -0.60503  -0.57240  -0.54547
 Alpha  occ. eigenvalues --   -0.50925  -0.50260  -0.47620  -0.45728  -0.40972
 Alpha  occ. eigenvalues --   -0.38449  -0.37081  -0.33153  -0.30679  -0.30039
 Alpha  occ. eigenvalues --   -0.27099  -0.26198  -0.23070  -0.21810  -0.21445
 Alpha  occ. eigenvalues --   -0.20986  -0.19791  -0.19472  -0.18551  -0.17830
 Alpha  occ. eigenvalues --   -0.15827  -0.15559  -0.14661  -0.13735  -0.12976
 Alpha  occ. eigenvalues --   -0.12825  -0.12109  -0.11007  -0.10147  -0.08649
 Alpha  occ. eigenvalues --   -0.08249  -0.07795  -0.06476  -0.04832  -0.00663
 Alpha  occ. eigenvalues --    0.00450   0.00704   0.02321   0.03666   0.04361
 Alpha  occ. eigenvalues --    0.12555
 Alpha virt. eigenvalues --    0.14257   0.15741   0.16964   0.17542   0.18668
 Alpha virt. eigenvalues --    0.19129   0.19929   0.20226   0.20733   0.21834
 Alpha virt. eigenvalues --    0.21982   0.22223   0.23836   0.23944   0.24839

  Beta  occ. eigenvalues -- -101.30120 -18.79482 -18.78479 -14.06141  -9.97964
  Beta  occ. eigenvalues --   -9.96723  -9.96369  -9.95287  -9.95089  -9.93764
  Beta  occ. eigenvalues --   -9.93569  -9.93178  -9.93122  -9.92770  -9.92717
  Beta  occ. eigenvalues --   -9.92454  -9.92275  -9.91289  -9.91135  -9.21569
  Beta  occ. eigenvalues --   -6.97997  -6.97099  -6.97016  -0.71461  -0.70891
  Beta  occ. eigenvalues --   -0.66573  -0.62401  -0.60503  -0.57240  -0.54547
  Beta  occ. eigenvalues --   -0.50925  -0.50260  -0.47620  -0.45728  -0.40972
  Beta  occ. eigenvalues --   -0.38449  -0.37081  -0.33153  -0.30679  -0.30039
  Beta  occ. eigenvalues --   -0.27099  -0.26198  -0.23070  -0.21810  -0.21445
  Beta  occ. eigenvalues --   -0.20986  -0.19791  -0.19472  -0.18551  -0.17830
  Beta  occ. eigenvalues --   -0.15827  -0.15559  -0.14661  -0.13735  -0.12976
  Beta  occ. eigenvalues --   -0.12825  -0.12109  -0.11007  -0.10147  -0.08649
  Beta  occ. eigenvalues --   -0.08249  -0.07795  -0.06476  -0.04832  -0.00663
  Beta  occ. eigenvalues --    0.00450   0.00704   0.02321   0.03666   0.04361
  Beta  occ. eigenvalues --    0.12555
  Beta virt. eigenvalues --    0.14257   0.15741   0.16964   0.17542   0.18668
  Beta virt. eigenvalues --    0.19129   0.19929   0.20226   0.20733   0.21834
  Beta virt. eigenvalues --    0.21982   0.22223   0.23836   0.23944   0.24839

 Mulliken charges and spin densities:
               1          2
     1  C    0.444533  -0.000001
     2  C   -0.528638   0.000000
     3  C   -0.588006  -0.000000
     4  C    1.169226  -0.000000
     5  Cl   0.290944  -0.000000
     6  C    0.368535   0.000000
     7  C   -1.708661  -0.000000
     8  O   -0.368123  -0.000000
     9  C    0.198539  -0.000000
    10  C    0.099335   0.000000
    11  C   -0.391527  -0.000000
    12  C   -0.541090  -0.000000
    13  C    0.063302  -0.000000
    14  C    0.012461   0.000000
    15  C   -0.678926   0.000000
    16  O   -0.493348  -0.000000
    17  C    0.240359  -0.000000
    18  C   -0.007412   0.000000
    19  N   -0.409330   0.000000
    20  H    0.115220   0.000000
    21  H   -0.188925   0.000000
    22  H   -0.107465   0.000000
    23  H    0.095235  -0.000000
    24  H    0.131991   0.000000
    25  H    0.078628   0.000000
    26  H    0.076472   0.000000
    27  H    0.132844   0.000000
    28  H    0.314590   0.000000
    29  H    0.179238   0.000000
 Sum of Mulliken charges =  -2.00000   0.00000

 Dipole moment (field-independent basis, Debye):
    X=             -2.7475    Y=              4.2417    Z=             -0.0729  Tot=              5.0543
 Quadrupole moment (field-independent basis, Debye-Ang):
   XX=           -198.6796   YY=           -187.7278   ZZ=           -135.8605
   XY=              1.0722   XZ=             -4.9381   YZ=             -7.8241

  Exact polarizability:2537.211  97.615 429.505 350.404   2.912 246.225
 Approx polarizability:2986.782  37.329 624.990 464.027  28.337 337.224

                      1                      2                      3
                      A                      A                      A
 Frequencies --     27.1290                45.4748                91.8202
 Red. masses --     12.1965                 5.5964                 3.3121
 Frc consts  --      0.0053                 0.0068                 0.0165
 IR Inten    --      3.0106                 1.7223                 5.2605

                      4                      5                      6
                      A                      A                      A
 Frequencies --    128.6042               147.8066               170.8620
 Red. masses --      4.0069                 5.1656                 1.2869
 Frc consts  --      0.0390                 0.0665                 0.0221
 IR Inten    --      4.9677                 9.4144               461.1250

                      7                      8                      9
                      A                      A                      A
 Frequencies --    178.7190               182.1579               238.2150
 Red. masses --      6.5728                 5.1501                 4.5613
 Frc consts  --      0.1237                 0.1007                 0.1525
 IR Inten    --      7.6204                 2.2242                 3.8581

                     10                     11                     12
                      A                      A                      A
 Frequencies --    276.9780               289.4895               319.2110
 Red. masses --      4.5577                 4.8907                 5.8719
 Frc consts  --      0.2060                 0.2415                 0.3525
 IR Inten    --     30.3020                96.4708               318.4968

                     13                     14                     15
                      A                      A                      A
 Frequencies --    325.2507               352.4427               369.6008
 Red. masses --      7.3254                 6.1451                 5.6843
 Frc consts  --      0.4566                 0.4497                 0.4575
 IR Inten    --      5.0807                17.2887               216.5748

                     16                     17                     18
                      A                      A                      A
 Frequencies --    383.8930               391.9619               419.6476
 Red. masses --      5.3343                 6.6835                 4.2441
 Frc consts  --      0.4632                 0.6050                 0.4404
 IR Inten    --    108.0833                33.2581                43.7953

                     19                     20                     21
                      A                      A                      A
 Frequencies --    439.7274               454.4967               483.4945
 Red. masses --      2.7486                 1.9794                10.5090
 Frc consts  --      0.3131                 0.2409                 1.4474
 IR Inten    --     87.6484               147.1757              1296.4112

                     22                     23                     24
                      A                      A                      A
 Frequencies --    497.4411               503.8989               573.8243
 Red. masses --      4.9185                 3.9561                 5.9858
 Frc consts  --      0.7171                 0.5918                 1.1613
 IR Inten    --      9.2796               104.1375               151.9743

                     25                     26                     27
                      A                      A                      A
 Frequencies --    578.0229               626.4280               643.9895
 Red. masses --      4.9941                 4.7782                 4.8419
 Frc consts  --      0.9831                 1.1047                 1.1831
 IR Inten    --     44.2494                 0.8575                 3.5381

                     28                     29                     30
                      A                      A                      A
 Frequencies --    667.4479               697.5174               716.8790
 Red. masses --      5.1779                 2.1490                 6.4294
 Frc consts  --      1.3590                 0.6160                 1.9468
 IR Inten    --     74.2606                59.7108                62.1891

                     31                     32                     33
                      A                      A                      A
 Frequencies --    725.2676               759.8596               780.5049
 Red. masses --      3.3676                 3.2306                 1.9227
 Frc consts  --      1.0437                 1.0990                 0.6901
 IR Inten    --     23.6467                37.2220                 4.1558

                     34                     35                     36
                      A                      A                      A
 Frequencies --    787.9948               790.8179               820.0292
 Red. masses --      5.0222                 1.5096                 4.4717
 Frc consts  --      1.8373                 0.5563                 1.7717
 IR Inten    --    179.9303               108.0257                68.0025

                     37                     38                     39
                      A                      A                      A
 Frequencies --    822.4715               901.6549               915.1585
 Red. masses --      3.6879                 3.8892                 1.7256
 Frc consts  --      1.4698                 1.8629                 0.8515
 IR Inten    --     22.4251                86.6920                60.0227

                     40                     41                     42
                      A                      A                      A
 Frequencies --    956.0020               964.5028               978.2343
 Red. masses --      1.2462                 1.3382                 1.9303
 Frc consts  --      0.6711                 0.7335                 1.0883
 IR Inten    --      0.7386                 5.9906               263.5231

                     43                     44                     45
                      A                      A                      A
 Frequencies --   1005.0745              1021.1708              1037.8433
 Red. masses --      3.2260                 2.1422                 1.9453
 Frc consts  --      1.9201                 1.3162                 1.2345
 IR Inten    --    302.5206               364.2819               678.9945

                     46                     47                     48
                      A                      A                      A
 Frequencies --   1040.3388              1097.5054              1123.8673
 Red. masses --      1.8817                 1.9912                 1.4251
 Frc consts  --      1.1999                 1.4131                 1.0606
 IR Inten    --    322.2565                39.7186               110.6870

                     49                     50                     51
                      A                      A                      A
 Frequencies --   1165.6433              1187.8900              1203.2142
 Red. masses --      3.3374                 1.9453                 2.5895
 Frc consts  --      2.6717                 1.6173                 2.2088
 IR Inten    --    915.6552               767.5559               119.1962

                     52                     53                     54
                      A                      A                      A
 Frequencies --   1221.8571              1243.5845              1255.7666
 Red. masses --      2.9086                 2.0270                 5.0889
 Frc consts  --      2.5584                 1.8469                 4.7282
 IR Inten    --   1191.6917               173.1959                42.9222

                     55                     56                     57
                      A                      A                      A
 Frequencies --   1266.3683              1341.9918              1351.2244
 Red. masses --      3.0580                 2.3696                 4.3852
 Frc consts  --      2.8894                 2.5144                 4.7173
 IR Inten    --   1803.9490               146.3356               845.4066

                     58                     59                     60
                      A                      A                      A
 Frequencies --   1371.8824              1389.3334              1414.5031
 Red. masses --      2.9731                 1.5902                 3.1264
 Frc consts  --      3.2969                 1.8085                 3.6855
 IR Inten    --    373.1297               517.2300               921.8070

                     61                     62                     63
                      A                      A                      A
 Frequencies --   1430.6694              1462.5607              1467.5382
 Red. masses --      4.5621                 2.4811                 5.1943
 Frc consts  --      5.5017                 3.1269                 6.5910
 IR Inten    --   1574.0348               487.6168               152.7968

                     64                     65                     66
                      A                      A                      A
 Frequencies --   1469.1850              1485.6557              1492.4410
 Red. masses --      1.1167                 1.3433                 4.6373
 Frc consts  --      1.4201                 1.7469                 6.0857
 IR Inten    --    828.4395               666.1989              1397.1906

                     67                     68                     69
                      A                      A                      A
 Frequencies --   1523.2570              1553.5977              1577.9059
 Red. masses --      3.2195                 4.3733                 3.1918
 Frc consts  --      4.4013                 6.2192                 4.6822
 IR Inten    --    474.5012              4214.9018               435.4970

                     70                     71                     72
                      A                      A                      A
 Frequencies --   1590.9704              1610.3575              2865.5883
 Red. masses --      5.4235                 1.6931                 1.0694
 Frc consts  --      8.0882                 2.5869                 5.1738
 IR Inten    --    504.6831               106.1623               674.4662

                     73                     74                     75
                      A                      A                      A
 Frequencies --   2983.0419              3016.2648              3052.9402
 Red. masses --      1.0673                 1.0766                 1.0946
 Frc consts  --      5.5958                 5.7712                 6.0110
 IR Inten    --   2969.1895               698.3702                53.4940

                     76                     77                     78
                      A                      A                      A
 Frequencies --   3091.9345              3115.9556              3151.7144
 Red. masses --      1.0828                 1.0909                 1.0893
 Frc consts  --      6.0990                 6.2404                 6.3752
 IR Inten    --     41.9702               404.9492                90.9904

                     79                     80                     81
                      A                      A                      A
 Frequencies --   3162.3238              3167.9964              3549.0687
 Red. masses --      1.0905                 1.0908                 1.0784
 Frc consts  --      6.4250                 6.4502                 8.0030
 IR Inten    --    110.5271               166.4407               507.6617

 - Thermochemistry -
 -------------------
 Temperature   298.150 Kelvin.  Pressure   1.00000 Atm.
 Atom     1 has atomic number  6 and mass  12.00000

 Molecular mass:   271.04001 amu.
 Principal axes and moments of inertia in atomic units:
                           1         2         3
     Eigenvalues --  3475.857986097.754659541.65006
           X            0.91561  -0.40144  -0.02260
           Y            0.39414   0.90723  -0.14692
           Z            0.07948   0.12562   0.98889
 This molecule is an asymmetric top.
 Rotational symmetry number  1.
 Warning -- assumption of classical behavior for rotation
           may cause significant error
 Rotational temperatures (Kelvin)      0.02492     0.01420     0.00908
 Rotational constants (GHZ):           0.51922     0.29597     0.18914
 Zero-point vibrational energy     544210.9 (Joules/Mol)
                                  130.06952 (Kcal/Mol)
 Warning -- explicit consideration of  25 degrees of freedom as
           vibrations may cause significant error
 Vibrational temperatures:     39.03    65.43   132.11   185.03   212.66
          (Kelvin)            245.83   257.14   262.08   342.74   398.51
                              416.51   459.27   467.96   507.09   531.77
                              552.34   563.95   603.78   632.67   653.92
                              695.64   715.71   725.00   825.61   831.65
                              901.29   926.56   960.31  1003.57  1031.43
                             1043.50  1093.27  1122.97  1133.75  1137.81
                             1179.84  1183.35  1297.28  1316.71  1375.47
                             1387.70  1407.46  1446.08  1469.24  1493.23
                             1496.82  1579.07  1616.99  1677.10  1709.11
                             1731.16  1757.98  1789.24  1806.77  1822.02
                             1930.83  1944.11  1973.83  1998.94  2035.15
                             2058.41  2104.30  2111.46  2113.83  2137.53
                             2147.29  2191.63  2235.28  2270.25  2289.05
                             2316.95  4122.94  4291.93  4339.73  4392.50
                             4448.60  4483.17  4534.61  4549.88  4558.04
                             5106.32

 Zero-point correction=                           0.207279 (Hartree/Particle)
 Thermal correction to Energy=                    0.222909
 Thermal correction to Enthalpy=                  0.223853
 Thermal correction to Gibbs Free Energy=         0.164089
 Sum of electronic and zero-point Energies=          -1243.046796
 Sum of electronic and thermal Energies=             -1243.031166
 Sum of electronic and thermal Enthalpies=           -1243.030222
 Sum of electronic and thermal Free Energies=        -1243.089986

                     E (Thermal)             CV                S
                      KCal/Mol        Cal/Mol-Kelvin    Cal/Mol-Kelvin
 Total                  139.878             62.072            125.784
 Electronic               0.000              0.000              0.000
 Translational            0.889              2.981             42.690
 Rotational               0.889              2.981             33.669
 Vibrational            138.100             56.110             49.424
 Vibration     1          0.593              1.984              6.029
 Vibration     2          0.595              1.979              5.005
 Vibration     3          0.602              1.955              3.621
 Vibration     4          0.611              1.925              2.967
 Vibration     5          0.617              1.905              2.700
 Vibration     6          0.626              1.878              2.426
 Vibration     7          0.629              1.868              2.342
 Vibration     8          0.630              1.864              2.306
 Vibration     9          0.656              1.782              1.816
 Vibration    10          0.678              1.716              1.552
 Vibration    11          0.686              1.693              1.477
 Vibration    12          0.705              1.637              1.314
 Vibration    13          0.709              1.625              1.284
 Vibration    14          0.729              1.570              1.155
 Vibration    15          0.742              1.535              1.081
 Vibration    16          0.753              1.505              1.024
 Vibration    17          0.759              1.487              0.993
 Vibration    18          0.782              1.428              0.893
 Vibration    19          0.800              1.384              0.827
 Vibration    20          0.813              1.351              0.782
 Vibration    21          0.840              1.287              0.701
 Vibration    22          0.853              1.256              0.665
 Vibration    23          0.859              1.241              0.648
 Vibration    24          0.930              1.088              0.497
 Vibration    25          0.935              1.079              0.489

 Optimization completed.
    -- Stationary point found.
 Normal termination of Gaussian 16 at Wed Dec 27 22:51:50 2023.
