 Q-Chem 5.4, Q-Chem, Inc., Pleasanton, CA (2021)
 Q-Chem 5.4.0 for Intel X86 EM64T Linux

User input:
--------------------------------------------------------------
$molecule
-2 1
C                 -4.3777060000     -0.4541030000     -0.0669050000
C                 -2.8933770000     -0.7010510000     -0.0796060000
C                 -2.3864280000     -1.9992180000     -0.3302720000
C                 -1.0365490000     -2.2461390000     -0.3245450000
Cl                -0.6230090000     -3.9602280000     -0.6918430000
C                 -0.0503350000     -1.2416320000     -0.0847340000
C                  1.3754960000     -1.5325540000     -0.0189960000
O                  1.8708890000     -2.7056130000     -0.0605480000
C                  2.2404820000     -0.3699210000      0.1022700000
C                  3.6432250000     -0.5633560000      0.1185540000
C                  4.5300060000      0.4892190000      0.2270630000
C                  4.0289680000      1.8166590000      0.3333930000
C                  2.6682560000      2.0364280000      0.3226010000
C                  1.7342500000      0.9708120000      0.2076580000
C                  0.3265890000      1.2595390000      0.2135080000
O                 -0.0783530000      2.4998520000      0.3181190000
C                 -0.5635440000      0.1292160000      0.0917500000
C                 -1.9965960000      0.3441320000      0.1183290000
N                 -2.4915550000      1.6242980000      0.3850500000
H                 -4.7119200000      0.0008490000      0.8745230000
H                 -4.7137500000      0.2306950000     -0.8715470000
H                 -4.9303650000     -1.3887330000     -0.2073770000
H                 -3.0758520000     -2.8164730000     -0.5139350000
H                  3.9867570000     -1.5898230000      0.0385160000
H                  5.6032430000      0.3071040000      0.2318880000
H                  4.7185480000      2.6545670000      0.4240080000
H                  2.2542340000      3.0358610000      0.4042380000
H                 -1.7096140000      2.3114580000      0.3335360000
H                 -3.3419900000      1.8581550000     -0.1116310000
$end

$rem
BASIS  =  6-311++G(d,p)
GUI  =  2
JOB_TYPE  =  SP
METHOD  =  B3LYP
SCF_CONVERGENCE  = 8
SOLVENT_METHOD = sm12
$end

$smx
solvent dimethylformamide
charges CM5
$end

--------------------------------------------------------------

             Standard Nuclear Orientation (Angstroms)
    I     Atom           X                Y                Z
 ----------------------------------------------------------------
    1      C      -4.3777060000    -0.4541030000    -0.0669050000
    2      C      -2.8933770000    -0.7010510000    -0.0796060000
    3      C      -2.3864280000    -1.9992180000    -0.3302720000
    4      C      -1.0365490000    -2.2461390000    -0.3245450000
    5      Cl     -0.6230090000    -3.9602280000    -0.6918430000
    6      C      -0.0503350000    -1.2416320000    -0.0847340000
    7      C       1.3754960000    -1.5325540000    -0.0189960000
    8      O       1.8708890000    -2.7056130000    -0.0605480000
    9      C       2.2404820000    -0.3699210000     0.1022700000
   10      C       3.6432250000    -0.5633560000     0.1185540000
   11      C       4.5300060000     0.4892190000     0.2270630000
   12      C       4.0289680000     1.8166590000     0.3333930000
   13      C       2.6682560000     2.0364280000     0.3226010000
   14      C       1.7342500000     0.9708120000     0.2076580000
   15      C       0.3265890000     1.2595390000     0.2135080000
   16      O      -0.0783530000     2.4998520000     0.3181190000
   17      C      -0.5635440000     0.1292160000     0.0917500000
   18      C      -1.9965960000     0.3441320000     0.1183290000
   19      N      -2.4915550000     1.6242980000     0.3850500000
   20      H      -4.7119200000     0.0008490000     0.8745230000
   21      H      -4.7137500000     0.2306950000    -0.8715470000
   22      H      -4.9303650000    -1.3887330000    -0.2073770000
   23      H      -3.0758520000    -2.8164730000    -0.5139350000
   24      H       3.9867570000    -1.5898230000     0.0385160000
   25      H       5.6032430000     0.3071040000     0.2318880000
   26      H       4.7185480000     2.6545670000     0.4240080000
   27      H       2.2542340000     3.0358610000     0.4042380000
   28      H      -1.7096140000     2.3114580000     0.3335360000
   29      H      -3.3419900000     1.8581550000    -0.1116310000
 ----------------------------------------------------------------

   18   -1243.2438337309      7.59e-09  Convergence criterion met
 Total energy in the final basis set =    -1243.5170006714

                    Orbital Energies (a.u.)
 --------------------------------------------------------------

 Alpha MOs
 -- Occupied --
******** -19.0327 -19.0237 -14.2931 -10.2111 -10.2009 -10.1919 -10.1891
-10.1759 -10.1727 -10.1709 -10.1668 -10.1668 -10.1640 -10.1634 -10.1623
-10.1621 -10.1522 -10.1508  -9.4407  -7.2051  -7.1960  -7.1952  -0.9527
 -0.9488  -0.8983  -0.8551  -0.8430  -0.8018  -0.7785  -0.7414  -0.7400
 -0.7076  -0.6879  -0.6452  -0.6205  -0.6050  -0.5663  -0.5429  -0.5339
 -0.5045  -0.4938  -0.4637  -0.4537  -0.4436  -0.4343  -0.4273  -0.4219
 -0.4166  -0.4080  -0.3956  -0.3866  -0.3774  -0.3694  -0.3664  -0.3633
 -0.3541  -0.3449  -0.3373  -0.3224  -0.3201  -0.3130  -0.2888  -0.2770
 -0.2462  -0.2356  -0.2314  -0.2135  -0.1982  -0.1941  -0.1147

          Ground-State Mulliken Net Atomic Charges

     Atom                 Charge (a.u.)
  ----------------------------------------
      1 C                     2.472574
      2 C                     0.592711
      3 C                     0.392707
      4 C                     0.359567
      5 Cl                    0.815471
      6 C                    -1.286589
      7 C                    -4.000987
      8 O                    -0.205272
      9 C                    -1.824270
     10 C                    -0.215820
     11 C                     1.495662
     12 C                     1.482951
     13 C                    -0.181371
     14 C                    -1.871092
     15 C                    -1.816773
     16 O                    -0.317823
     17 C                    -0.595232
     18 C                     0.183685
     19 N                    -0.213271
     20 H                     0.249179
     21 H                     0.288357
     22 H                     0.345233
     23 H                     0.217691
     24 H                     0.098203
     25 H                     0.387130
     26 H                     0.393101
     27 H                     0.128285
     28 H                     0.310770
     29 H                     0.315219
  ----------------------------------------
  Sum of atomic charges =    -2.000000

                    Cartesian Multipole Moments
 -----------------------------------------------------------------
    Charge (ESU x 10^10)
                -9.6064
    Dipole Moment (Debye)
         X      -7.8328      Y       3.8929      Z      -1.2419
       Tot       8.8346
    Quadrupole Moments (Debye-Ang)
        XX    -167.9012     XY       3.5289     YY    -184.9009
        XZ       1.2110     YZ      -7.5323     ZZ    -134.0589

 Total job time:  879.80s(wall), 6722.70s(cpu)
        *  Thank you very much for using Q-Chem.  Have a nice day.  *
