 Gaussian 16, Revision A.03,
 Gaussian 16:  ES64L-G16RevA.03 25-Dec-2016

 ----------------------------------------------------------------
 #P UB3LYP/6-311++G(d,p) SCRF=(PCM,Solvent=n,n-DiMethylFormamide)
 ----------------------------------------------------------------

 ------------------
 Radical PCM in DMF
 ------------------
 Symbolic Z-matrix:
 Charge = -1 Multiplicity = 2

                         Standard orientation:
 ---------------------------------------------------------------------
 Center     Atomic      Atomic             Coordinates (Angstroms)
 Number     Number       Type             X           Y           Z
 ---------------------------------------------------------------------
      1          6           0       -3.362584   -0.001850   -1.122543
      2          6           0       -2.756974   -1.211975   -0.591324
      3          6           0       -2.757876    1.209107   -0.592089
      4          6           0       -1.540225    1.219570    0.033361
      5          6           0       -0.714276   -0.000450    0.019396
      6          6           0       -1.539194   -1.221091    0.033942
      7          6           0        0.714301    0.000238   -0.019164
      8          6           0        1.540273   -1.219749   -0.033573
      9          6           0        1.539190    1.220892   -0.033541
     10          6           0        2.757015    1.211644    0.591635
     11          6           0        3.362650    0.001397    1.122557
     12          6           0        2.757981   -1.209425    0.591766
     13          8           0       -4.403709   -0.002444   -1.815647
     14          8           0        4.403895    0.001840    1.815480
     15          6           0       -1.202887    2.393484    0.966610
     16          6           0       -1.777932    2.090140    2.368933
     17          6           0       -1.709305    3.765591    0.493844
     18          6           0        1.200458    2.394441   -0.966759
     19          6           0        1.777736    2.092789   -2.368550
     20          6           0        1.703470    3.767510   -0.493134
     21          6           0        1.203007   -2.393258   -0.967357
     22          6           0        1.709445   -3.765559   -0.495172
     23          6           0        1.778093   -2.089261   -2.369524
     24          6           0       -1.200639   -2.394452    0.967461
     25          6           0       -1.777623   -2.092222    2.369247
     26          6           0       -1.704195   -3.767483    0.494305
     27          1           0       -3.380533   -2.098443   -0.621317
     28          1           0       -3.382168    2.095021   -0.622592
     29          1           0        3.380574    2.098103    0.621809
     30          1           0        3.382343   -2.095301    0.621875
     31          1           0       -0.124825    2.453214    1.096836
     32          1           0       -1.519760    2.894139    3.067885
     33          1           0       -1.373410    1.157062    2.765512
     34          1           0       -2.867675    2.000013    2.332960
     35          1           0       -1.378427    3.999755   -0.520634
     36          1           0       -1.338730    4.551064    1.160461
     37          1           0       -2.801617    3.817271    0.507578
     38          1           0        0.122348    2.451663   -1.098125
     39          1           0        2.867713    2.005907   -2.331561
     40          1           0        1.517847    2.895961   -3.067831
     41          1           0        1.376483    1.158463   -2.765505
     42          1           0        2.795665    3.821652   -0.506293
     43          1           0        1.371649    4.000552    0.521282
     44          1           0        1.331524    4.552445   -1.159620
     45          1           0        0.124954   -2.452971   -1.097661
     46          1           0        1.338887   -4.550752   -1.162128
     47          1           0        1.378566   -4.000161    0.519206
     48          1           0        2.801759   -3.817217   -0.508922
     49          1           0        1.519951   -2.892938   -3.068857
     50          1           0        2.867835   -1.999138   -2.333482
     51          1           0        1.373566   -1.156004   -2.765683
     52          1           0       -0.122526   -2.451975    1.098683
     53          1           0       -1.517935   -2.895308    3.068702
     54          1           0       -2.867574   -2.004944    2.332391
     55          1           0       -1.375962   -1.157948    2.765906
     56          1           0       -1.332473   -4.552352    1.160991
     57          1           0       -1.372567   -4.000956   -0.520073
     58          1           0       -2.796413   -3.821218    0.507584
 ---------------------------------------------------------------------

 SCF Done:  E(UB3LYP) =  -1084.64126339     A.U. after   18 cycles

 The electronic state is 2-A.
 Alpha  occ. eigenvalues --  -19.07617 -19.07617 -10.22242 -10.22242 -10.18464
 Alpha  occ. eigenvalues --  -10.18422 -10.18215 -10.18214 -10.18211 -10.18210
 Alpha  occ. eigenvalues --  -10.17594 -10.17593 -10.17593 -10.17592 -10.15555
 Alpha  occ. eigenvalues --  -10.15555 -10.15555 -10.15555 -10.15498 -10.15497
 Alpha  occ. eigenvalues --  -10.15497 -10.15497 -10.14956 -10.14956 -10.14955
 Alpha  occ. eigenvalues --  -10.14955  -1.00101  -1.00099  -0.86613  -0.83852
 Alpha  occ. eigenvalues --   -0.81667  -0.80348  -0.77926  -0.77111  -0.74305
 Alpha  occ. eigenvalues --   -0.72074  -0.71857  -0.68452  -0.68351  -0.68262
 Alpha  occ. eigenvalues --   -0.67884  -0.67167  -0.63010  -0.61753  -0.60659
 Alpha  occ. eigenvalues --   -0.58659  -0.56886  -0.55036  -0.53876  -0.53443
 Alpha  occ. eigenvalues --   -0.50884  -0.49202  -0.46459  -0.45896  -0.45637
 Alpha  occ. eigenvalues --   -0.44954  -0.44595  -0.44052  -0.44006  -0.43367
 Alpha  occ. eigenvalues --   -0.43203  -0.41997  -0.41673  -0.41437  -0.40956
 Alpha  occ. eigenvalues --   -0.40084  -0.39855  -0.39549  -0.39199  -0.39151
 Alpha  occ. eigenvalues --   -0.38420  -0.38187  -0.38164  -0.37519  -0.36828
 Alpha  occ. eigenvalues --   -0.36785  -0.36319  -0.35979  -0.35679  -0.34684
 Alpha  occ. eigenvalues --   -0.34198  -0.34130  -0.33651  -0.33260  -0.33039
 Alpha  occ. eigenvalues --   -0.32946  -0.32755  -0.32658  -0.31845  -0.30836
 Alpha  occ. eigenvalues --   -0.27392  -0.24087  -0.24037  -0.23051  -0.22514
 Alpha  occ. eigenvalues --   -0.22411  -0.14455
 Alpha virt. eigenvalues --   -0.05395  -0.00831  -0.00087   0.00039   0.00447
 Alpha virt. eigenvalues --    0.00543   0.00850   0.01601   0.01691   0.01760
 Alpha virt. eigenvalues --    0.02041   0.02422   0.03245   0.03545   0.03575

  Beta  occ. eigenvalues --  -19.07240 -19.07240 -10.22169 -10.22169 -10.18262
  Beta  occ. eigenvalues --  -10.18222 -10.18145 -10.18144 -10.18139 -10.18137
  Beta  occ. eigenvalues --  -10.17596 -10.17595 -10.17595 -10.17594 -10.15545
  Beta  occ. eigenvalues --  -10.15545 -10.15545 -10.15545 -10.15497 -10.15497
  Beta  occ. eigenvalues --  -10.15497 -10.15497 -10.14886 -10.14885 -10.14885
  Beta  occ. eigenvalues --  -10.14884  -0.99445  -0.99442  -0.86239  -0.83567
  Beta  occ. eigenvalues --   -0.81600  -0.80294  -0.77805  -0.76977  -0.73827
  Beta  occ. eigenvalues --   -0.71934  -0.71719  -0.68332  -0.68311  -0.68248
  Beta  occ. eigenvalues --   -0.67872  -0.66676  -0.62843  -0.61611  -0.60520
  Beta  occ. eigenvalues --   -0.58500  -0.56657  -0.54848  -0.53723  -0.53307
  Beta  occ. eigenvalues --   -0.50739  -0.49060  -0.46227  -0.45781  -0.45536
  Beta  occ. eigenvalues --   -0.44865  -0.44547  -0.44006  -0.43887  -0.43339
  Beta  occ. eigenvalues --   -0.43091  -0.41607  -0.41394  -0.41373  -0.40681
  Beta  occ. eigenvalues --   -0.40030  -0.39788  -0.39365  -0.39116  -0.38748
  Beta  occ. eigenvalues --   -0.38124  -0.38094  -0.38022  -0.36959  -0.36767
  Beta  occ. eigenvalues --   -0.36248  -0.36243  -0.35899  -0.35268  -0.34460
  Beta  occ. eigenvalues --   -0.34109  -0.34091  -0.33624  -0.33229  -0.32988
  Beta  occ. eigenvalues --   -0.32729  -0.32669  -0.32577  -0.30742  -0.30674
  Beta  occ. eigenvalues --   -0.26076  -0.23728  -0.23681  -0.22672  -0.22090
  Beta  occ. eigenvalues --   -0.20567
  Beta virt. eigenvalues --   -0.09314  -0.03945  -0.00799   0.00046   0.00457
  Beta virt. eigenvalues --    0.00760   0.00868   0.01160   0.01676   0.01772
  Beta virt. eigenvalues --    0.02014   0.02048   0.02658   0.03549   0.03578

 Mulliken charges and spin densities:
               1          2
     1  C   -0.635905   0.071060
     2  C   -0.354167   0.049166
     3  C   -0.354481   0.049035
     4  C    0.674115   0.049784
     5  C    0.162692   0.131644
     6  C    0.674178   0.049651
     7  C    0.162699   0.131658
     8  C    0.674338   0.049733
     9  C    0.674115   0.049693
    10  C   -0.354457   0.049135
    11  C   -0.635760   0.071073
    12  C   -0.354283   0.049079
    13  O   -0.480650   0.131860
    14  O   -0.480647   0.131875
    15  C   -0.118909  -0.018461
    16  C   -0.662599   0.001150
    17  C   -0.681617   0.000232
    18  C   -0.121262  -0.018493
    19  C   -0.662323   0.001174
    20  C   -0.681574   0.000234
    21  C   -0.119000  -0.018446
    22  C   -0.681719   0.000237
    23  C   -0.662855   0.001164
    24  C   -0.120882  -0.018471
    25  C   -0.662611   0.001178
    26  C   -0.681653   0.000239
    27  H    0.191505  -0.004258
    28  H    0.191551  -0.004256
    29  H    0.191491  -0.004260
    30  H    0.191563  -0.004255
    31  H    0.262216   0.003767
    32  H    0.158827   0.000001
    33  H    0.125263   0.001689
    34  H    0.174219   0.000089
    35  H    0.140749  -0.000434
    36  H    0.175620   0.000130
    37  H    0.142751  -0.000023
    38  H    0.262884   0.003742
    39  H    0.174241   0.000089
    40  H    0.158862  -0.000013
    41  H    0.124849   0.001716
    42  H    0.142853  -0.000021
    43  H    0.140637  -0.000439
    44  H    0.175634   0.000130
    45  H    0.262250   0.003757
    46  H    0.175598   0.000130
    47  H    0.140732  -0.000433
    48  H    0.142754  -0.000024
    49  H    0.158803   0.000000
    50  H    0.174216   0.000089
    51  H    0.125296   0.001696
    52  H    0.262807   0.003735
    53  H    0.158827  -0.000011
    54  H    0.174234   0.000089
    55  H    0.124892   0.001724
    56  H    0.175623   0.000130
    57  H    0.140643  -0.000437
    58  H    0.142826  -0.000022
 Sum of Mulliken charges =  -1.00000   1.00000

 Dipole moment (field-independent basis, Debye):
    X=             -0.0006    Y=              0.0020    Z=              0.0001  Tot=              0.0021
 Quadrupole moment (field-independent basis, Debye-Ang):
   XX=           -265.5795   YY=           -157.7326   ZZ=           -186.1099
   XY=             -0.0519   XZ=            -44.7884   YZ=             -0.0210

 Normal termination of Gaussian 16 at Sat Jan 13 19:50:18 2024.
