 Q-Chem 5.4, Q-Chem, Inc., Pleasanton, CA (2021)
 Q-Chem 5.4.0 for Intel X86 EM64T Linux

User input:
--------------------------------------------------------------
$molecule
-1 2
C                 -0.8231970000      3.7973130000     -0.1353050000
C                 -1.8667150000      3.1188100000      0.4671340000
C                 -1.6933920000      1.7834710000      0.8836150000
C                  0.4265290000      3.1735590000     -0.3432130000
C                  0.5997840000      1.8234600000      0.0737090000
C                 -0.4746050000      1.1545590000      0.6851580000
C                  1.5125850000      3.9072520000     -0.9755860000
C                  2.7663980000      3.1907430000     -1.1340160000
C                  2.9298810000      1.8559220000     -0.7683540000
C                  1.8805490000      1.1117320000     -0.1240470000
O                  1.4027790000      5.1001430000     -1.3934670000
O                  2.0281490000     -0.0824480000      0.2571930000
N                  3.8095910000      3.9234030000     -1.6650250000
H                 -0.9314150000      4.8249540000     -0.4635650000
H                 -2.8208580000      3.6152720000      0.6209410000
H                 -2.5126810000      1.2504500000      1.3573390000
H                 -0.3101710000      0.1277980000      0.9926570000
H                  3.5015720000      4.7597250000     -2.1441320000
H                  4.5468060000      3.3695190000     -2.0764150000
N                  4.2163110000      1.2552780000     -1.0425050000
C                  5.0219480000      1.0346490000      0.1593280000
C                  4.1554800000      0.0646660000     -1.8920570000
H                  5.0983080000      1.9712860000      0.7169190000
H                  6.0346480000      0.7279220000     -0.1323080000
H                  4.5951210000      0.2646300000      0.8188910000
H                  3.5800090000      0.2966330000     -2.7920740000
H                  3.6874040000     -0.7938630000     -1.3923340000
H                  5.1736120000     -0.2072800000     -2.1993960000
$end
$rem
MAX_SCF_CYCLES=200
BASIS  =  6-311++G(d,p)
GUI  =  2
JOB_TYPE  =  SP
METHOD  =  B3LYP
SOLVENT_METHOD = COSMO
$end
$solvent
dielectric 37.219
opticaldielectric 1.43
$end

--------------------------------------------------------------

             Standard Nuclear Orientation (Angstroms)
    I     Atom           X                Y                Z
 ----------------------------------------------------------------
    1      C       2.9315717628    -0.8084964373    -0.0107466917
    2      C       3.8390433999     0.2348019773     0.0051445637
    3      C       3.3816957398     1.5678300180     0.0274356165
    4      C       1.5408976429    -0.5633652693    -0.0039594363
    5      C       1.0794285196     0.7832321032     0.0142153703
    6      C       2.0204193901     1.8271870151     0.0316645569
    7      C       0.6032396711    -1.6761756968    -0.0169650093
    8      C      -0.8072829333    -1.3292434268     0.0074528834
    9      C      -1.2664743739    -0.0137096646    -0.0189409217
   10      C      -0.3634479040     1.1059225200     0.0129162360
   11      O       0.9597940503    -2.8928489330    -0.0643573766
   12      O      -0.7636262502     2.3027510320     0.0384969720
   13      N      -1.6830559786    -2.3949934212     0.0723481183
   14      H       3.2583909833    -1.8421462210    -0.0271512542
   15      H       4.9055862695     0.0274513461     0.0016807006
   16      H       4.0942424383     2.3875051488     0.0404802556
   17      H       1.6369331230     2.8413559252     0.0468971280
   18      H      -1.2587530594    -3.2723799104    -0.1997064550
   19      H      -2.6207593497    -2.1893097665    -0.2405764666
   20      N      -2.6991798869     0.1786192341    -0.0535622780
   21      C      -3.2496860542     0.6698627902     1.2104604352
   22      C      -3.1744543109     0.9540783516    -1.2006339082
   23      H      -2.9266641049     0.0129985927     2.0217641323
   24      H      -4.3460003613     0.6422979406     1.1654113711
   25      H      -2.9306441215     1.6974177738     1.4395388066
   26      H      -2.7687732268     0.5202218867    -2.1183471462
   27      H      -2.8777659928     2.0103974165    -1.1552870509
   28      H      -4.2691872385     0.8880467013    -1.2475838350
 ----------------------------------------------------------------

   10    -724.7147034412      7.71e-06  Convergence criterion met
 Total energy in the final basis set =     -724.7147034412
    4    -724.7990950575      9.73e-06  Convergence criterion met
 Total energy in the final basis set =     -724.7990950575

                    Orbital Energies (a.u.)
 --------------------------------------------------------------

 Alpha MOs
 -- Occupied --
-19.0793 -19.0688 -14.3076 -14.2989 -10.2189 -10.2181 -10.2020 -10.1763
-10.1743 -10.1721 -10.1703 -10.1697 -10.1686 -10.1686 -10.1669 -10.1665
 -1.0037  -0.9952  -0.9217  -0.8910  -0.8540  -0.7842  -0.7476  -0.7252
 -0.6935  -0.6727  -0.6354  -0.6061  -0.5811  -0.5588  -0.5358  -0.5052
 -0.4816  -0.4728  -0.4538  -0.4454  -0.4429  -0.4302  -0.4189  -0.4170
 -0.4139  -0.4097  -0.3926  -0.3870  -0.3707  -0.3632  -0.3559  -0.3525
 -0.3487  -0.3342  -0.3216  -0.2621  -0.2551  -0.2539  -0.2436  -0.2148
 -0.2045  -0.1464

 Beta MOs
 -- Occupied --
-19.0728 -19.0642 -14.3068 -14.2989 -10.2175 -10.2152 -10.2006 -10.1761
-10.1743 -10.1721 -10.1701 -10.1696 -10.1677 -10.1675 -10.1667 -10.1664
 -0.9926  -0.9868  -0.9199  -0.8893  -0.8519  -0.7799  -0.7454  -0.7237
 -0.6934  -0.6644  -0.6333  -0.6037  -0.5796  -0.5562  -0.5344  -0.5029
 -0.4809  -0.4693  -0.4529  -0.4435  -0.4418  -0.4289  -0.4182  -0.4146
 -0.4039  -0.4015  -0.3896  -0.3812  -0.3624  -0.3577  -0.3554  -0.3492
 -0.3408  -0.3329  -0.3057  -0.2494  -0.2481  -0.2449  -0.2387  -0.2084
 -0.2007

          Ground-State Mulliken Net Atomic Charges

     Atom                 Charge (a.u.)    Spin (a.u.)
  --------------------------------------------------------
      1 C                    -0.108561       0.073839
      2 C                    -0.361187      -0.000013
      3 C                    -0.379625       0.077803
      4 C                     0.808807       0.003969
      5 C                     0.110046       0.068205
      6 C                     0.023866       0.005672
      7 C                    -0.653296       0.194422
      8 C                     0.149630       0.064602
      9 C                    -0.262165      -0.000634
     10 C                    -0.821082       0.069832
     11 O                    -0.547412       0.237492
     12 O                    -0.470728       0.169845
     13 N                    -0.466346       0.045167
     14 H                     0.169133      -0.004433
     15 H                     0.198464      -0.000627
     16 H                     0.200406      -0.005483
     17 H                     0.171715       0.000266
     18 H                     0.303259      -0.001875
     19 H                     0.307425      -0.000774
     20 N                     0.180872      -0.005314
     21 C                    -0.257822       0.003941
     22 C                    -0.215473       0.002408
     23 H                     0.142777       0.000964
     24 H                     0.152720       0.000760
     25 H                     0.166580      -0.001015
     26 H                     0.149926       0.000744
     27 H                     0.163566      -0.000041
     28 H                     0.144505       0.000279
  --------------------------------------------------------
  Sum of atomic charges =    -1.000000

                    Cartesian Multipole Moments
 -----------------------------------------------------------------
    Charge (ESU x 10^10)
                -4.8032
    Dipole Moment (Debye)
         X      -1.9264      Y       0.8849      Z      -0.8789
       Tot       2.2949
    Quadrupole Moments (Debye-Ang)
        XX     -96.6314     XY      12.5421     YY    -129.0977
        XZ       2.0485     YZ       1.9738     ZZ    -100.6300

 Total job time:  82.20s(wall), 587.12s(cpu)
        *  Thank you very much for using Q-Chem.  Have a nice day.  *
