 Q-Chem 5.4, Q-Chem, Inc., Pleasanton, CA (2021)
 Q-Chem 5.4.0 for Intel X86 EM64T Linux

User input:
--------------------------------------------------------------
$molecule
-1 2
C                  1.3692450000      1.1349290000     -2.6834090000
C                 -0.0352210000      1.4745390000     -2.8705030000
C                 -1.0536070000      0.9675260000     -2.1186070000
C                 -0.7698620000      0.0163270000     -1.0378530000
C                  0.6106640000     -0.3312160000     -0.8478160000
O                  2.2615570000      1.6999300000     -3.3629550000
O                 -1.6980010000     -0.4652180000     -0.3278360000
H                 -0.2334920000      2.1964320000     -3.6593120000
C                  1.6445240000      0.1505650000     -1.6367070000
C                  3.0189030000     -0.3081650000     -1.3258290000
C                  4.0271530000     -0.5300600000     -2.4275390000
C                  5.3880730000     -0.4671060000     -2.1085800000
C                  3.6537290000     -0.9034230000     -3.7225160000
C                  6.3575610000     -0.7481330000     -3.0675060000
C                  5.9757830000     -1.1266520000     -4.3549900000
C                  4.6206220000     -1.2111720000     -4.6758970000
O                  3.3584190000     -0.5908570000     -0.1772210000
H                  5.6668770000     -0.1979360000     -1.0967880000
H                  2.6037320000     -0.9517680000     -3.9803860000
H                  7.4099580000     -0.6783570000     -2.8107470000
H                  6.7286290000     -1.3536060000     -5.1033480000
H                  4.3164790000     -1.5060570000     -5.6749200000
C                 -2.4898930000      1.3520370000     -2.3429160000
H                  0.8349530000     -1.0278550000     -0.0473190000
H                 -2.5850940000      2.0606790000     -3.1699980000
H                 -2.9176710000      1.7975790000     -1.4389330000
H                 -3.0983720000      0.4673090000     -2.5570790000
$end

$rem
BASIS  =  6-311++G(d,p)
GUI  =  2
JOB_TYPE  =  SP
METHOD  =  B3LYP
SCF_CONVERGENCE  = 8
SOLVENT_METHOD = sm12
$end

$smx
solvent dimethylformamide
charges CM5
$end

--------------------------------------------------------------

             Standard Nuclear Orientation (Angstroms)
    I     Atom           X                Y                Z
 ----------------------------------------------------------------
    1      C       1.3692450000     1.1349290000    -2.6834090000
    2      C      -0.0352210000     1.4745390000    -2.8705030000
    3      C      -1.0536070000     0.9675260000    -2.1186070000
    4      C      -0.7698620000     0.0163270000    -1.0378530000
    5      C       0.6106640000    -0.3312160000    -0.8478160000
    6      O       2.2615570000     1.6999300000    -3.3629550000
    7      O      -1.6980010000    -0.4652180000    -0.3278360000
    8      H      -0.2334920000     2.1964320000    -3.6593120000
    9      C       1.6445240000     0.1505650000    -1.6367070000
   10      C       3.0189030000    -0.3081650000    -1.3258290000
   11      C       4.0271530000    -0.5300600000    -2.4275390000
   12      C       5.3880730000    -0.4671060000    -2.1085800000
   13      C       3.6537290000    -0.9034230000    -3.7225160000
   14      C       6.3575610000    -0.7481330000    -3.0675060000
   15      C       5.9757830000    -1.1266520000    -4.3549900000
   16      C       4.6206220000    -1.2111720000    -4.6758970000
   17      O       3.3584190000    -0.5908570000    -0.1772210000
   18      H       5.6668770000    -0.1979360000    -1.0967880000
   19      H       2.6037320000    -0.9517680000    -3.9803860000
   20      H       7.4099580000    -0.6783570000    -2.8107470000
   21      H       6.7286290000    -1.3536060000    -5.1033480000
   22      H       4.3164790000    -1.5060570000    -5.6749200000
   23      C      -2.4898930000     1.3520370000    -2.3429160000
   24      H       0.8349530000    -1.0278550000    -0.0473190000
   25      H      -2.5850940000     2.0606790000    -3.1699980000
   26      H      -2.9176710000     1.7975790000    -1.4389330000
   27      H      -3.0983720000     0.4673090000    -2.5570790000
 ----------------------------------------------------------------

   17    -765.4463206241      9.18e-09  Convergence criterion met
 Total energy in the final basis set =     -765.5326349119

                    Orbital Energies (a.u.)
 --------------------------------------------------------------

 Alpha MOs
 -- Occupied --
-19.1091 -19.0824 -19.0817 -10.2620 -10.2329 -10.2239 -10.1905 -10.1877
-10.1870 -10.1860 -10.1851 -10.1846 -10.1845 -10.1776 -10.1753 -10.1711
-10.1696  -1.0403  -1.0074  -1.0025  -0.8685  -0.8359  -0.7864  -0.7663
 -0.7581  -0.7084  -0.6922  -0.6386  -0.6178  -0.6006  -0.5866  -0.5508
 -0.5136  -0.4930  -0.4801  -0.4645  -0.4562  -0.4468  -0.4394  -0.4347
 -0.4301  -0.4251  -0.4091  -0.4070  -0.3955  -0.3914  -0.3768  -0.3750
 -0.3689  -0.3641  -0.3617  -0.3528  -0.2878  -0.2748  -0.2679  -0.2648
 -0.2549  -0.2448  -0.2361  -0.1706

 Beta MOs
 -- Occupied --
-19.1085 -19.0754 -19.0745 -10.2619 -10.2323 -10.2230 -10.1905 -10.1877
-10.1869 -10.1855 -10.1851 -10.1846 -10.1845 -10.1764 -10.1729 -10.1702
-10.1697  -1.0390  -0.9967  -0.9888  -0.8684  -0.8303  -0.7841  -0.7655
 -0.7580  -0.7056  -0.6841  -0.6367  -0.6176  -0.5974  -0.5841  -0.5495
 -0.5118  -0.4913  -0.4782  -0.4636  -0.4539  -0.4446  -0.4372  -0.4336
 -0.4255  -0.4238  -0.4064  -0.4003  -0.3914  -0.3834  -0.3741  -0.3676
 -0.3624  -0.3596  -0.3533  -0.3458  -0.2745  -0.2683  -0.2613  -0.2522
 -0.2494  -0.2380  -0.2307

          Ground-State Mulliken Net Atomic Charges

     Atom                 Charge (a.u.)    Spin (a.u.)
  --------------------------------------------------------
      1 C                    -1.741772       0.019780
      2 C                    -0.265570       0.071781
      3 C                     0.817974       0.038455
      4 C                    -1.453776       0.078259
      5 C                    -0.557293       0.144130
      6 O                    -0.284144       0.228750
      7 O                    -0.344396       0.289324
      8 H                     0.169062      -0.006109
      9 C                     0.602345       0.077386
     10 C                    -1.993527       0.026678
     11 C                     0.640374      -0.004147
     12 C                     0.038545      -0.003826
     13 C                    -1.233930       0.014032
     14 C                     0.673404       0.001791
     15 C                     1.041258       0.002968
     16 C                     0.219304      -0.003174
     17 O                    -0.206762       0.023771
     18 H                     0.216766      -0.000426
     19 H                     0.088613       0.002116
     20 H                     0.337068       0.000080
     21 H                     0.374986      -0.000098
     22 H                     0.317902      -0.000088
     23 C                     0.748992       0.009378
     24 H                     0.141765      -0.014074
     25 H                     0.263728      -0.000327
     26 H                     0.192594       0.001561
     27 H                     0.196491       0.002029
  --------------------------------------------------------
  Sum of atomic charges =    -1.000000

                    Cartesian Multipole Moments
 -----------------------------------------------------------------
    Charge (ESU x 10^10)
                -4.8032
    Dipole Moment (Debye)
         X      -4.5193      Y      -1.1998      Z       5.4189
       Tot       7.1574
    Quadrupole Moments (Debye-Ang)
        XX    -125.4872     XY      -7.6858     YY    -112.0203
        XZ      10.9379     YZ      13.4315     ZZ    -117.8840

 Total job time:  609.67s(wall), 4743.56s(cpu)
        *  Thank you very much for using Q-Chem.  Have a nice day.  *
