 Gaussian 16, Revision A.03,
 Gaussian 16:  ES64L-G16RevA.03 25-Dec-2016

 --------------------------------------
 #P UB3LYP/6-311++G(d,p) nosym opt freq
 --------------------------------------

 -------
 Reduced
 -------
 Symbolic Z-matrix:
 Charge = -2 Multiplicity = 1

 SCF Done:  E(UB3LYP) =  -880.885463425     A.U. after   59 cycles
 Optimization completed.
    -- Stationary point found.
 Normal termination of Gaussian 16 at Tue Jan  9 22:28:36 2024.

 ----------------------------------------------------------------------
 #P Geom=AllCheck Guess=TCheck SCRF=Check GenChk UB3LYP/6-311++G(d,p) F
 req
 ----------------------------------------------------------------------

 Structure from the checkpoint file:  "328-an.chk"
 -------
 Reduced
 -------
 Charge = -2 Multiplicity = 1

                          Input orientation:
 ---------------------------------------------------------------------
 Center     Atomic      Atomic             Coordinates (Angstroms)
 Number     Number       Type             X           Y           Z
 ---------------------------------------------------------------------
      1          6           0       -1.197336    2.636707   -0.603777
      2          6           0       -2.262407    2.008850   -0.004808
      3          6           0       -2.131368    0.657831    0.452672
      4          6           0        0.057235    1.982114   -0.793625
      5          6           0        0.186316    0.606054   -0.334571
      6          6           0       -0.940031   -0.008437    0.285710
      7          6           0        1.157725    2.597526   -1.400174
      8          6           0        2.389900    1.960017   -1.587849
      9          6           0        2.509869    0.570595   -1.122378
     10          6           0        1.411315   -0.049881   -0.518529
     11          6           0        3.481056    2.692964   -2.225215
     12          6           0        4.762454    1.955936   -2.402859
     13          6           0        4.803216    0.587663   -1.932510
     14          6           0        3.752232   -0.078302   -1.330426
     15          8           0        3.342081    3.891192   -2.604131
     16          8           0        5.780829    2.481041   -2.937856
     17          1           0       -1.293820    3.663379   -0.950213
     18          1           0       -3.205452    2.533322    0.125681
     19          1           0       -2.974000    0.164117    0.929226
     20          1           0       -0.837708   -1.034654    0.632752
     21          1           0        1.083340    3.622702   -1.751833
     22          1           0        1.516886   -1.074936   -0.177468
     23          1           0        5.758109    0.096872   -2.089701
     24          8           0        3.811231   -1.420258   -0.927043
     25          6           0        5.087878   -2.019027   -0.818278
     26          6           0        4.919669   -3.439766   -0.366041
     27          6           0        5.689652   -4.048689    0.533980
     28          1           0        5.728165   -1.460032   -0.120049
     29          1           0        5.591438   -2.010924   -1.797189
     30          1           0        4.113746   -3.985985   -0.852486
     31          1           0        6.490551   -3.520845    1.045307
     32          1           0        5.555208   -5.093643    0.800412
 ---------------------------------------------------------------------

 SCF Done:  E(UB3LYP) =  -880.885463425     A.U. after    5 cycles

 Alpha  occ. eigenvalues --  -18.94000 -18.80983 -18.80901 -10.03976 -10.00713
 Alpha  occ. eigenvalues --   -9.99691  -9.99416  -9.97761  -9.97678  -9.97599
 Alpha  occ. eigenvalues --   -9.97559  -9.96647  -9.96414  -9.96288  -9.96186
 Alpha  occ. eigenvalues --   -9.95330  -9.95007  -9.94395  -9.93488  -9.92711
 Alpha  occ. eigenvalues --   -0.84997  -0.74111  -0.71360  -0.65931  -0.62420
 Alpha  occ. eigenvalues --   -0.60781  -0.56626  -0.56201  -0.51878  -0.50395
 Alpha  occ. eigenvalues --   -0.49860  -0.43643  -0.42142  -0.39278  -0.38502
 Alpha  occ. eigenvalues --   -0.37977  -0.34824  -0.31652  -0.30827  -0.29965
 Alpha  occ. eigenvalues --   -0.29361  -0.27465  -0.25873  -0.24753  -0.24314
 Alpha  occ. eigenvalues --   -0.22626  -0.22248  -0.20743  -0.19763  -0.18910
 Alpha  occ. eigenvalues --   -0.18397  -0.17806  -0.16710  -0.16035  -0.15161
 Alpha  occ. eigenvalues --   -0.14453  -0.13497  -0.13158  -0.11636  -0.10767
 Alpha  occ. eigenvalues --   -0.10515  -0.09454  -0.08171  -0.06683  -0.04339
 Alpha  occ. eigenvalues --   -0.00448   0.00660   0.01314   0.03531   0.11167
 Alpha virt. eigenvalues --    0.12369   0.13473   0.15068   0.15214   0.15394
 Alpha virt. eigenvalues --    0.16038   0.16407   0.17287   0.18188   0.19045
 Alpha virt. eigenvalues --    0.19928   0.20301   0.20801   0.21176   0.21873

  Beta  occ. eigenvalues --  -18.94000 -18.80983 -18.80901 -10.03976 -10.00713
  Beta  occ. eigenvalues --   -9.99691  -9.99416  -9.97761  -9.97678  -9.97599
  Beta  occ. eigenvalues --   -9.97559  -9.96647  -9.96414  -9.96288  -9.96186
  Beta  occ. eigenvalues --   -9.95330  -9.95007  -9.94395  -9.93488  -9.92711
  Beta  occ. eigenvalues --   -0.84997  -0.74111  -0.71360  -0.65931  -0.62420
  Beta  occ. eigenvalues --   -0.60781  -0.56626  -0.56201  -0.51878  -0.50395
  Beta  occ. eigenvalues --   -0.49860  -0.43643  -0.42142  -0.39278  -0.38502
  Beta  occ. eigenvalues --   -0.37977  -0.34824  -0.31652  -0.30827  -0.29965
  Beta  occ. eigenvalues --   -0.29361  -0.27465  -0.25873  -0.24753  -0.24314
  Beta  occ. eigenvalues --   -0.22626  -0.22248  -0.20743  -0.19763  -0.18910
  Beta  occ. eigenvalues --   -0.18397  -0.17806  -0.16710  -0.16035  -0.15161
  Beta  occ. eigenvalues --   -0.14453  -0.13497  -0.13158  -0.11636  -0.10767
  Beta  occ. eigenvalues --   -0.10515  -0.09454  -0.08171  -0.06683  -0.04339
  Beta  occ. eigenvalues --   -0.00448   0.00660   0.01314   0.03531   0.11167
  Beta virt. eigenvalues --    0.12369   0.13473   0.15068   0.15214   0.15394
  Beta virt. eigenvalues --    0.16038   0.16407   0.17287   0.18188   0.19045
  Beta virt. eigenvalues --    0.19928   0.20301   0.20801   0.21176   0.21873

 Mulliken charges and spin densities:
               1          2
     1  C   -0.170973  -0.000000
     2  C   -0.274665  -0.000000
     3  C   -0.318108   0.000000
     4  C    0.141568   0.000000
     5  C    0.143239   0.000000
     6  C   -0.182783  -0.000000
     7  C   -0.030883  -0.000000
     8  C    0.617039  -0.000000
     9  C    0.281981  -0.000000
    10  C   -0.092948  -0.000000
    11  C   -0.685877   0.000000
    12  C   -0.122416  -0.000000
    13  C    0.413871   0.000000
    14  C   -0.668383   0.000000
    15  O   -0.448567   0.000000
    16  O   -0.455314   0.000000
    17  H    0.093084   0.000000
    18  H    0.093585  -0.000000
    19  H    0.101068  -0.000000
    20  H    0.055142   0.000000
    21  H    0.105748   0.000000
    22  H    0.114254  -0.000000
    23  H    0.113038   0.000000
    24  O   -0.123310  -0.000000
    25  C    1.438618  -0.000000
    26  C   -2.643581   0.000000
    27  C    1.835377  -0.000000
    28  H    0.074343   0.000000
    29  H    0.164459  -0.000000
    30  H   -0.176947   0.000000
    31  H    0.019349   0.000000
    32  H   -1.411007  -0.000000
 Sum of Mulliken charges =  -2.00000   0.00000

 Dipole moment (field-independent basis, Debye):
    X=            -32.5590    Y=             -5.7343    Z=             12.1696  Tot=             35.2288
 Quadrupole moment (field-independent basis, Debye-Ang):
   XX=           -312.8811   YY=           -259.6294   ZZ=           -176.2851
   XY=              1.5524   XZ=             53.3898   YZ=             54.7002

  Exact polarizability:1010.708-536.3351875.399 210.219-451.007 498.544
 Approx polarizability:2272.889****************1247.880********2065.039

                      1                      2                      3
                      A                      A                      A
 Frequencies --     24.6799                50.7321                65.2207
 Red. masses --      4.6240                 3.5864                 6.5337
 Frc consts  --      0.0017                 0.0054                 0.0164
 IR Inten    --      6.0709                 5.2840                 2.2029

                      4                      5                      6
                      A                      A                      A
 Frequencies --     78.8662                93.4790               108.6043
 Red. masses --      4.3429                 2.6248                 4.5179
 Frc consts  --      0.0159                 0.0135                 0.0314
 IR Inten    --      8.5041                 7.9823                 4.2645

                      7                      8                      9
                      A                      A                      A
 Frequencies --    121.2781               177.9743               210.9588
 Red. masses --      3.2330                 5.1850                 7.3022
 Frc consts  --      0.0280                 0.0968                 0.1915
 IR Inten    --     14.2025                10.2809                 2.5502

                     10                     11                     12
                      A                      A                      A
 Frequencies --    236.8026               259.4516               274.5447
 Red. masses --      4.5416                 4.5768                 4.8302
 Frc consts  --      0.1500                 0.1815                 0.2145
 IR Inten    --      1.9173                 3.4727                15.3777

                     13                     14                     15
                      A                      A                      A
 Frequencies --    278.0573               330.1226               354.6161
 Red. masses --      5.0678                 6.4338                10.1505
 Frc consts  --      0.2309                 0.4131                 0.7521
 IR Inten    --      8.7816                 9.8890                44.2051

                     16                     17                     18
                      A                      A                      A
 Frequencies --    384.9444               403.5073               418.9042
 Red. masses --      6.6812                 5.9374                 4.0809
 Frc consts  --      0.5833                 0.5696                 0.4219
 IR Inten    --     10.8270                 7.4163                 6.9327

                     19                     20                     21
                      A                      A                      A
 Frequencies --    449.0393               456.6659               498.5526
 Red. masses --      3.1998                 2.6377                 5.4193
 Frc consts  --      0.3801                 0.3241                 0.7936
 IR Inten    --     33.2657                17.3316               120.3118

                     22                     23                     24
                      A                      A                      A
 Frequencies --    524.3731               540.3086               581.2077
 Red. masses --      4.1402                 6.6658                 3.9961
 Frc consts  --      0.6707                 1.1465                 0.7953
 IR Inten    --      4.9001               167.9320                21.4608

                     25                     26                     27
                      A                      A                      A
 Frequencies --    586.5871               612.9710               637.8019
 Red. masses --      7.3384                 3.7907                 4.2936
 Frc consts  --      1.4877                 0.8392                 1.0291
 IR Inten    --     36.6092                15.8124                24.3784

                     28                     29                     30
                      A                      A                      A
 Frequencies --    686.5074               689.3623               708.3928
 Red. masses --      2.2648                 4.6602                 1.3969
 Frc consts  --      0.6289                 1.3048                 0.4130
 IR Inten    --     75.3705                 6.7713                48.3838

                     31                     32                     33
                      A                      A                      A
 Frequencies --    716.9305               729.7936               755.6231
 Red. masses --      5.5460                 3.1643                 5.0447
 Frc consts  --      1.6795                 0.9930                 1.6971
 IR Inten    --     19.8516                 2.4238                14.3598

                     34                     35                     36
                      A                      A                      A
 Frequencies --    768.5827               776.2100               780.3281
 Red. masses --      5.5155                 4.4045                 1.6066
 Frc consts  --      1.9196                 1.5635                 0.5764
 IR Inten    --     26.6179               141.4249                 9.1664

                     37                     38                     39
                      A                      A                      A
 Frequencies --    828.1107               881.1490               904.6447
 Red. masses --      1.6285                 1.3789                 4.1868
 Frc consts  --      0.6580                 0.6308                 2.0188
 IR Inten    --     29.7050                14.2967                 8.8051

                     40                     41                     42
                      A                      A                      A
 Frequencies --    907.0773               923.3494               925.7810
 Red. masses --      1.3336                 1.2841                 1.4811
 Frc consts  --      0.6465                 0.6450                 0.7479
 IR Inten    --      1.5589                 3.7126                67.2402

                     43                     44                     45
                      A                      A                      A
 Frequencies --    937.2869               952.2410               973.2987
 Red. masses --      1.4302                 1.2838                 4.6154
 Frc consts  --      0.7403                 0.6859                 2.5760
 IR Inten    --     18.4195               105.6474                10.8377

                     46                     47                     48
                      A                      A                      A
 Frequencies --    992.0648              1002.8384              1015.3753
 Red. masses --      2.9946                 2.2661                 2.0613
 Frc consts  --      1.7365                 1.3427                 1.2521
 IR Inten    --     58.1549               226.4361                48.7481

                     49                     50                     51
                      A                      A                      A
 Frequencies --   1046.6634              1074.3417              1102.0088
 Red. masses --      1.2492                 5.7455                 5.6697
 Frc consts  --      0.8063                 3.9071                 4.0568
 IR Inten    --     31.2219                42.2241               298.5628

                     52                     53                     54
                      A                      A                      A
 Frequencies --   1136.9220              1158.9154              1163.7555
 Red. masses --      1.6602                 1.1121                 1.7785
 Frc consts  --      1.2643                 0.8800                 1.4191
 IR Inten    --     13.4420                74.0698                77.6437

                     55                     56                     57
                      A                      A                      A
 Frequencies --   1170.6409              1221.0266              1243.9502
 Red. masses --      1.9781                 2.0569                 1.7444
 Frc consts  --      1.5972                 1.8068                 1.5903
 IR Inten    --    392.6467                22.8091                19.8027

                     58                     59                     60
                      A                      A                      A
 Frequencies --   1252.3910              1260.0762              1275.1236
 Red. masses --      1.2428                 2.4904                 2.1558
 Frc consts  --      1.1485                 2.3298                 2.0652
 IR Inten    --     10.0946               131.8559                39.0480

                     61                     62                     63
                      A                      A                      A
 Frequencies --   1303.2753              1332.0256              1356.7616
 Red. masses --      1.2851                 3.2537                 2.3732
 Frc consts  --      1.2861                 3.4014                 2.5739
 IR Inten    --     63.4792              1063.6211                22.4975

                     64                     65                     66
                      A                      A                      A
 Frequencies --   1368.6127              1393.0905              1407.6380
 Red. masses --      2.3930                 2.3315                 3.4548
 Frc consts  --      2.6409                 2.6659                 4.0332
 IR Inten    --    623.9404               142.8942               215.7306

                     67                     68                     69
                      A                      A                      A
 Frequencies --   1428.6110              1437.3202              1447.5060
 Red. masses --      4.5575                 2.8105                 1.3218
 Frc consts  --      5.4803                 3.4209                 1.6318
 IR Inten    --    204.6634               727.2821               924.3242

                     70                     71                     72
                      A                      A                      A
 Frequencies --   1476.7428              1500.0978              1503.8929
 Red. masses --      3.2995                 1.3164                 3.5166
 Frc consts  --      4.2394                 1.7453                 4.6861
 IR Inten    --   1848.5282                75.9553              1630.1812

                     73                     74                     75
                      A                      A                      A
 Frequencies --   1509.6401              1528.0982              1553.3957
 Red. masses --      3.2645                 7.9529                 6.4277
 Frc consts  --      4.3834                10.9416                 9.1384
 IR Inten    --    380.5261              2924.1421               868.5413

                     76                     77                     78
                      A                      A                      A
 Frequencies --   1581.2581              1608.5508              1692.8660
 Red. masses --      6.5933                 5.6180                 4.8140
 Frc consts  --      9.7131                 8.5645                 8.1283
 IR Inten    --    516.1805               272.5891               100.8253

                     79                     80                     81
                      A                      A                      A
 Frequencies --   2951.4747              2981.7920              3094.8162
 Red. masses --      1.0577                 1.1012                 1.0595
 Frc consts  --      5.4287                 5.7685                 5.9788
 IR Inten    --     40.4566                86.6876                 2.4316

                     82                     83                     84
                      A                      A                      A
 Frequencies --   3110.8859              3119.2846              3130.2698
 Red. masses --      1.0816                 1.0858                 1.0906
 Frc consts  --      6.1670                 6.2243                 6.2964
 IR Inten    --      5.6192                 7.0246                23.8530

                     85                     86                     87
                      A                      A                      A
 Frequencies --   3134.0375              3148.7625              3151.2671
 Red. masses --      1.0925                 1.0958                 1.0885
 Frc consts  --      6.3221                 6.4010                 6.3686
 IR Inten    --     70.1129               173.2168                95.0619

                     88                     89                     90
                      A                      A                      A
 Frequencies --   3156.2515              3157.3786              3179.4251
 Red. masses --      1.0871                 1.0882                 1.1145
 Frc consts  --      6.3804                 6.3917                 6.6381
 IR Inten    --     68.8597                47.7157                59.2640

 - Thermochemistry -
 -------------------
 Temperature   298.150 Kelvin.  Pressure   1.00000 Atm.
 Atom     1 has atomic number  6 and mass  12.00000

 Molecular mass:   264.07864 amu.
 Principal axes and moments of inertia in atomic units:
                           1         2         3
     Eigenvalues --  4175.363887559.33008**********
           X            0.88037   0.37524   0.29007
           Y           -0.46571   0.79970   0.37894
           Z           -0.08978  -0.46870   0.87878
 This molecule is an asymmetric top.
 Rotational symmetry number  1.
 Warning -- assumption of classical behavior for rotation
           may cause significant error
 Rotational temperatures (Kelvin)      0.02074     0.01146     0.00743
 Rotational constants (GHZ):           0.43224     0.23874     0.15490
 Zero-point vibrational energy     624845.7 (Joules/Mol)
                                  149.34171 (Kcal/Mol)
 Warning -- explicit consideration of  26 degrees of freedom as
           vibrations may cause significant error
 Vibrational temperatures:     35.51    72.99    93.84   113.47   134.50
          (Kelvin)            156.26   174.49   256.07   303.52   340.71
                              373.29   395.01   400.06   474.97   510.21
                              553.85   580.56   602.71   646.07   657.04
                              717.31   754.46   777.38   836.23   843.97
                              881.93   917.65   987.73   991.84  1019.22
                             1031.50  1050.01  1087.17  1105.82  1116.79
                             1122.72  1191.47  1267.78  1301.58  1305.08
                             1328.49  1331.99  1348.55  1370.06  1400.36
                             1427.36  1442.86  1460.90  1505.92  1545.74
                             1585.54  1635.78  1667.42  1674.38  1684.29
                             1756.78  1789.77  1801.91  1812.97  1834.62
                             1875.12  1916.49  1952.08  1969.13  2004.35
                             2025.28  2055.45  2067.98  2082.64  2124.70
                             2158.31  2163.77  2172.04  2198.59  2234.99
                             2275.08  2314.35  2435.66  4246.51  4290.13
                             4452.75  4475.87  4487.95  4503.76  4509.18
                             4530.37  4533.97  4541.14  4542.76  4574.48

 Zero-point correction=                           0.237991 (Hartree/Particle)
 Thermal correction to Energy=                    0.254565
 Thermal correction to Enthalpy=                  0.255509
 Thermal correction to Gibbs Free Energy=         0.192682
 Sum of electronic and zero-point Energies=           -880.647472
 Sum of electronic and thermal Energies=              -880.630899
 Sum of electronic and thermal Enthalpies=            -880.629954
 Sum of electronic and thermal Free Energies=         -880.692781

                     E (Thermal)             CV                S
                      KCal/Mol        Cal/Mol-Kelvin    Cal/Mol-Kelvin
 Total                  159.742             64.993            132.231
 Electronic               0.000              0.000              0.000
 Translational            0.889              2.981             42.613
 Rotational               0.889              2.981             34.263
 Vibrational            157.964             59.032             55.355
 Vibration     1          0.593              1.985              6.217
 Vibration     2          0.595              1.977              4.789
 Vibration     3          0.597              1.971              4.293
 Vibration     4          0.600              1.963              3.919
 Vibration     5          0.602              1.954              3.586
 Vibration     6          0.606              1.942              3.294
 Vibration     7          0.609              1.931              3.080
 Vibration     8          0.628              1.869              2.350
 Vibration     9          0.643              1.824              2.035
 Vibration    10          0.656              1.784              1.827
 Vibration    11          0.668              1.747              1.665
 Vibration    12          0.677              1.720              1.567
 Vibration    13          0.679              1.714              1.546
 Vibration    14          0.713              1.615              1.259
 Vibration    15          0.730              1.566              1.146
 Vibration    16          0.754              1.502              1.020
 Vibration    17          0.769              1.463              0.950
 Vibration    18          0.782              1.429              0.896
 Vibration    19          0.808              1.363              0.799
 Vibration    20          0.815              1.346              0.776
 Vibration    21          0.854              1.253              0.662
 Vibration    22          0.879              1.196              0.600
 Vibration    23          0.895              1.161              0.565
 Vibration    24          0.938              1.072              0.483
 Vibration    25          0.944              1.060              0.473
 Vibration    26          0.972              1.004              0.428

 Optimization completed.
    -- Stationary point found.
 Normal termination of Gaussian 16 at Wed Jan 10 01:00:40 2024.
