 Gaussian 16, Revision A.03,
 Gaussian 16:  ES64L-G16RevA.03 25-Dec-2016

 ----------------------------------------------------------------
 #P UB3LYP/6-311++G(d,p) SCRF=(PCM,Solvent=n,n-DiMethylFormamide)
 ----------------------------------------------------------------

 -------
 Reduced
 -------
 Symbolic Z-matrix:
 Charge = -2 Multiplicity = 1

                         Standard orientation:
 ---------------------------------------------------------------------
 Center     Atomic      Atomic             Coordinates (Angstroms)
 Number     Number       Type             X           Y           Z
 ---------------------------------------------------------------------
      1          6           0       -4.163914   -0.039736    0.098287
      2          6           0       -4.829952   -1.241113    0.077534
      3          6           0       -4.092371   -2.466707    0.002667
      4          6           0       -2.739182    0.036107    0.044705
      5          6           0       -1.991229   -1.210694   -0.038882
      6          6           0       -2.718698   -2.436084   -0.053530
      7          6           0       -2.035694    1.245417    0.064295
      8          6           0       -0.638934    1.324724    0.012657
      9          6           0        0.107116    0.060754   -0.073015
     10          6           0       -0.592020   -1.150490   -0.096345
     11          6           0        0.001511    2.637241    0.047246
     12          6           0        1.488814    2.653235   -0.019262
     13          6           0        2.155273    1.371972   -0.115479
     14          6           0        1.519816    0.144794   -0.143941
     15          8           0       -0.674470    3.702482    0.130634
     16          8           0        2.159451    3.725009    0.005055
     17          1           0       -4.721817    0.892285    0.157141
     18          1           0       -5.915776   -1.266871    0.119428
     19          1           0       -4.620978   -3.416072   -0.010251
     20          1           0       -2.155981   -3.365703   -0.109991
     21          1           0       -2.573246    2.187549    0.124376
     22          1           0       -0.026593   -2.075075   -0.156679
     23          1           0        3.237010    1.441538   -0.164576
     24          8           0        2.194358   -1.076890   -0.283685
     25          6           0        3.588693   -1.089337   -0.047346
     26          6           0        4.100218   -2.486693   -0.239830
     27          6           0        4.999193   -3.082906    0.541241
     28          1           0        3.821221   -0.724053    0.963824
     29          1           0        4.096441   -0.419828   -0.758580
     30          1           0        3.701432   -3.008031   -1.107973
     31          1           0        5.400687   -2.589764    1.422789
     32          1           0        5.371055   -4.083695    0.338434
 ---------------------------------------------------------------------

 SCF Done:  E(UB3LYP) =  -881.149911860     A.U. after   20 cycles

 The electronic state is 1-A.
 Alpha  occ. eigenvalues --  -19.12982 -19.02018 -19.01545 -10.21839 -10.18976
 Alpha  occ. eigenvalues --  -10.17824 -10.16847 -10.16779 -10.16198 -10.16158
 Alpha  occ. eigenvalues --  -10.16038 -10.15919 -10.15827 -10.15794 -10.15777
 Alpha  occ. eigenvalues --  -10.15068 -10.14870 -10.14088 -10.13649 -10.12943
 Alpha  occ. eigenvalues --   -1.04024  -0.95375  -0.92653  -0.85176  -0.81239
 Alpha  occ. eigenvalues --   -0.78911  -0.75826  -0.75370  -0.70961  -0.70026
 Alpha  occ. eigenvalues --   -0.68296  -0.63061  -0.61239  -0.58054  -0.57244
 Alpha  occ. eigenvalues --   -0.56332  -0.54084  -0.50651  -0.49793  -0.48978
 Alpha  occ. eigenvalues --   -0.47530  -0.45832  -0.44628  -0.43492  -0.42911
 Alpha  occ. eigenvalues --   -0.41684  -0.40787  -0.39935  -0.39399  -0.38326
 Alpha  occ. eigenvalues --   -0.37767  -0.36751  -0.36387  -0.35801  -0.35457
 Alpha  occ. eigenvalues --   -0.33604  -0.33343  -0.33033  -0.31446  -0.30587
 Alpha  occ. eigenvalues --   -0.30227  -0.28394  -0.26938  -0.26791  -0.24067
 Alpha  occ. eigenvalues --   -0.21083  -0.20343  -0.19067  -0.18097  -0.10191
 Alpha virt. eigenvalues --   -0.03980  -0.00664  -0.00041   0.00481   0.00997
 Alpha virt. eigenvalues --    0.01209   0.01724   0.01927   0.02127   0.02818
 Alpha virt. eigenvalues --    0.03389   0.04156   0.04521   0.05141   0.05466

  Beta  occ. eigenvalues --  -19.12982 -19.02018 -19.01545 -10.21839 -10.18976
  Beta  occ. eigenvalues --  -10.17824 -10.16847 -10.16779 -10.16198 -10.16158
  Beta  occ. eigenvalues --  -10.16038 -10.15919 -10.15827 -10.15794 -10.15777
  Beta  occ. eigenvalues --  -10.15068 -10.14870 -10.14088 -10.13649 -10.12943
  Beta  occ. eigenvalues --   -1.04024  -0.95375  -0.92653  -0.85176  -0.81239
  Beta  occ. eigenvalues --   -0.78911  -0.75826  -0.75370  -0.70961  -0.70026
  Beta  occ. eigenvalues --   -0.68296  -0.63061  -0.61239  -0.58054  -0.57244
  Beta  occ. eigenvalues --   -0.56332  -0.54084  -0.50651  -0.49793  -0.48978
  Beta  occ. eigenvalues --   -0.47530  -0.45832  -0.44628  -0.43492  -0.42911
  Beta  occ. eigenvalues --   -0.41684  -0.40787  -0.39935  -0.39399  -0.38326
  Beta  occ. eigenvalues --   -0.37767  -0.36751  -0.36387  -0.35801  -0.35457
  Beta  occ. eigenvalues --   -0.33604  -0.33343  -0.33033  -0.31446  -0.30587
  Beta  occ. eigenvalues --   -0.30227  -0.28394  -0.26938  -0.26791  -0.24067
  Beta  occ. eigenvalues --   -0.21083  -0.20343  -0.19067  -0.18097  -0.10191
  Beta virt. eigenvalues --   -0.03980  -0.00664  -0.00041   0.00481   0.00997
  Beta virt. eigenvalues --    0.01209   0.01724   0.01927   0.02127   0.02818
  Beta virt. eigenvalues --    0.03389   0.04156   0.04521   0.05141   0.05466

 Mulliken charges and spin densities:
               1          2
     1  C   -0.174645   0.000000
     2  C   -0.330189  -0.000000
     3  C   -0.391601  -0.000000
     4  C    0.077929   0.000000
     5  C    0.057149  -0.000000
     6  C   -0.173222   0.000000
     7  C   -0.097292   0.000000
     8  C    0.450380  -0.000000
     9  C    0.205175   0.000000
    10  C   -0.166048   0.000000
    11  C   -0.519616  -0.000000
    12  C   -0.091873   0.000000
    13  C    0.186355  -0.000000
    14  C   -0.536752  -0.000000
    15  O   -0.678366   0.000000
    16  O   -0.670775   0.000000
    17  H    0.143608  -0.000000
    18  H    0.167120   0.000000
    19  H    0.169253   0.000000
    20  H    0.144606  -0.000000
    21  H    0.116022  -0.000000
    22  H    0.107831  -0.000000
    23  H    0.163464   0.000000
    24  O   -0.174651   0.000000
    25  C   -0.469831  -0.000000
    26  C    0.214185   0.000000
    27  C   -0.537824  -0.000000
    28  H    0.165127   0.000000
    29  H    0.137276   0.000000
    30  H    0.196017   0.000000
    31  H    0.144030   0.000000
    32  H    0.167158   0.000000
 Sum of Mulliken charges =  -2.00000   0.00000

 Dipole moment (field-independent basis, Debye):
    X=             -0.6576    Y=            -23.7298    Z=             -0.1395  Tot=             23.7393
 Quadrupole moment (field-independent basis, Debye-Ang):
   XX=           -150.4676   YY=           -223.1997   ZZ=           -128.8686
   XY=            -24.7039   XZ=              1.7385   YZ=             -1.2568

 Normal termination of Gaussian 16 at Sat Jan 13 19:20:56 2024.
