 Q-Chem 5.4, Q-Chem, Inc., Pleasanton, CA (2021)
 Q-Chem 5.4.0 for Intel X86 EM64T Linux

User input:
--------------------------------------------------------------
$molecule
0 1
C                 -2.8436300000      4.1245430000      4.5575640000
C                 -3.1577750000      3.1881460000      5.5366820000
C                 -2.3520890000      2.0601520000      5.7066830000
C                 -1.7194960000      3.9301060000      3.7499880000
C                 -0.9074280000      2.7973420000      3.9178070000
C                 -1.2331680000      1.8632120000      4.8999040000
C                 -1.3685140000      4.9095730000      2.7109320000
C                 -0.1449070000      4.6602020000      1.8902850000
C                  0.6732000000      3.5883040000      2.0483160000
C                  0.3012660000      2.5633630000      3.0498600000
O                 -2.0074210000      5.9301420000      2.4791370000
O                  0.9441710000      1.5342840000      3.1812450000
O                  0.0840160000      5.6160070000      0.9745360000
H                 -3.4532060000      5.0067580000      4.4049140000
H                 -4.0274730000      3.3343240000      6.1666620000
H                 -2.5982070000      1.3315500000      6.4708290000
H                 -0.5999910000      0.9926140000      5.0169790000
H                 -0.6309440000      6.2725330000      1.0866150000
C                  3.1762940000      3.0356520000      1.9014840000
C                  3.4717900000      3.6332200000      3.1316230000
C                  4.1142800000      2.1681890000      1.3401650000
C                  5.3076300000      1.8847640000      2.0043070000
C                  5.5877200000      2.4742310000      3.2344580000
C                  4.6642670000      3.3562910000      3.7943130000
H                  2.7648810000      4.3244080000      3.5801090000
H                  3.9089350000      1.7281470000      0.3729580000
H                  6.0214680000      1.2030330000      1.5544190000
H                  4.8726570000      3.8300090000      4.7475040000
H                  6.5157790000      2.2536950000      3.7499710000
C                  1.9031600000      3.4269320000      1.1469390000
H                  2.0984960000      4.4294530000      0.7566760000
N                  1.6637660000      2.6165840000     -0.0552870000
C                  1.0654910000      1.2844290000      0.0768040000
C                  1.0780260000      0.5608380000     -1.2704670000
C                  0.4471510000     -0.8345410000     -1.2068890000
C                  0.4557780000     -1.5697090000     -2.5519130000
C                 -0.1736290000     -2.9661420000     -2.4917750000
C                 -0.1691200000     -3.7010630000     -3.8369310000
H                  1.1395420000      3.1679300000     -0.7251880000
H                  0.0307490000      1.3189450000      0.4552070000
H                  1.6416680000      0.7208800000      0.8131630000
H                  2.1123900000      0.4888090000     -1.6245550000
H                  0.5412000000      1.1673960000     -2.0128460000
H                 -0.5867310000     -0.7519430000     -0.8477270000
H                  0.9797180000     -1.4382190000     -0.4611060000
H                  1.4894450000     -1.6538510000     -2.9113280000
H                 -0.0761990000     -0.9651480000     -3.2980890000
H                 -1.2065540000     -2.8818610000     -2.1295550000
H                  0.3598800000     -3.5711030000     -1.7472090000
H                  0.8635970000     -3.7848710000     -4.1996400000
H                 -0.7032170000     -3.0960090000     -4.5811670000
C                 -0.7980320000     -5.0978050000     -3.7768460000
C                 -0.7978740000     -5.8309890000     -5.1229840000
C                 -1.4269000000     -7.2276970000     -5.0631630000
C                 -1.4302990000     -7.9590550000     -6.4103010000
C                 -2.0592020000     -9.3558300000     -6.3508320000
C                 -2.0650660000    -10.0857230000     -7.6987630000
C                 -2.6938990000    -11.4825660000     -7.6396280000
C                 -2.7015090000    -12.2116290000     -8.9877740000
C                 -3.3301870000    -13.6086060000     -8.9298790000
C                 -3.3335380000    -14.3285320000    -10.2816110000
H                 -1.8297930000     -5.0141670000     -3.4111900000
H                 -0.2621030000     -5.7038770000     -3.0348400000
H                  0.2337090000     -5.9144830000     -5.4890440000
H                 -1.3341060000     -5.2247120000     -5.8646690000
H                 -2.4576900000     -7.1443720000     -4.6947260000
H                 -0.8891720000     -7.8349310000     -4.3233840000
H                 -0.3996550000     -8.0420990000     -6.7791210000
H                 -1.9683760000     -7.3517210000     -7.1497710000
H                 -3.0892880000     -9.2729510000     -5.9803490000
H                 -1.5200540000     -9.9638840000     -5.6127540000
H                 -1.0350930000    -10.1684370000     -8.0695060000
H                 -2.6044440000     -9.4776160000     -8.4366280000
H                 -3.7235490000    -11.3999750000     -7.2678220000
H                 -2.1538030000    -12.0911980000     -6.9026880000
H                 -1.6721160000    -12.2950650000     -9.3604620000
H                 -3.2418920000    -11.6037960000     -9.7253790000
H                 -4.3588230000    -13.5257600000     -8.5580400000
H                 -2.7899500000    -14.2166660000     -8.1939430000
H                 -3.8965880000    -13.7619450000    -11.0301560000
H                 -3.7878040000    -15.3204900000    -10.2058750000
H                 -2.3157620000    -14.4578870000    -10.6633740000
$end
$rem
MAX_SCF_CYCLES=200
BASIS  =  6-311++G(d,p)
GUI  =  2
JOB_TYPE  =  SP
METHOD  =  B3LYP
THRESH = 14
SCF_CONVERGENCE  = 6
SOLVENT_METHOD = COSMO
$end
$solvent
dielectric 37.219
opticaldielectric 1.43
$end

--------------------------------------------------------------

             Standard Nuclear Orientation (Angstroms)
    I     Atom           X                Y                Z
 ----------------------------------------------------------------
    1      C      -7.0897231933     4.0845658768    -0.2160343126
    2      C      -6.8805897322     4.6435424860    -1.4722217295
    3      C      -6.2264436050     3.9076322139    -2.4626406562
    4      C      -6.6441011104     2.7859279126     0.0459244431
    5      C      -5.9859618964     2.0432683867    -0.9470919398
    6      C      -5.7784572143     2.6142230108    -2.2017522707
    7      C      -6.8577297442     2.1757045740     1.3665953421
    8      C      -6.3775830857     0.7774879557     1.5841061679
    9      C      -5.7625930443     0.0266317126     0.6347693815
   10      C      -5.4874128349     0.6469535982    -0.6810596152
   11      O      -7.4182679792     2.7340361788     2.3033743270
   12      O      -4.8612795012     0.0581293966    -1.5475672917
   13      O      -6.6254495331     0.3175481398     2.8216774826
   14      H      -7.5930701406     4.6350870144     0.5693041852
   15      H      -7.2250799102     5.6496072954    -1.6814525490
   16      H      -6.0648052406     4.3448015333    -3.4414716319
   17      H      -5.2670791358     2.0315599645    -2.9577660153
   18      H      -7.0905160230     1.0390179309     3.2885290575
   19      C      -5.6554791134    -2.4278739296    -0.1111475712
   20      C      -6.9049063368    -2.3846811189    -0.7394097413
   21      C      -4.7947904796    -3.4841984967    -0.4124485784
   22      C      -5.1634354475    -4.4599215905    -1.3384960292
   23      C      -6.4039310077    -4.4018996964    -1.9685733736
   24      C      -7.2776630207    -3.3599236978    -1.6601721807
   25      H      -7.5981427643    -1.5817076062    -0.5086335048
   26      H      -3.8403750913    -3.5440776452     0.0943044835
   27      H      -4.4779678635    -5.2699136896    -1.5638136934
   28      H      -8.2508018380    -3.3065729339    -2.1361582691
   29      H      -6.6899456543    -5.1609733978    -2.6880773873
   30      C      -5.3049476731    -1.3987846286     0.9665403694
   31      H      -5.8957155017    -1.6869254361     1.8403126311
   32      N      -3.9137500451    -1.4894463020     1.4309435825
   33      C      -2.8432956620    -0.8823751319     0.6336920790
   34      C      -1.4762267796    -1.2540791559     1.2097467624
   35      C      -0.3099168643    -0.6339567387     0.4323811145
   36      C       1.0655885801    -1.0013389197     1.0004049516
   37      C       2.2345255633    -0.3835473624     0.2247021766
   38      C       3.6105980582    -0.7469928598     0.7938293424
   39      H      -3.8638041374    -1.1594833856     2.3881219587
   40      H      -2.9232140304     0.2157659915     0.5810582618
   41      H      -2.9316657074    -1.2448675383    -0.3922621003
   42      H      -1.3811130573    -2.3455483670     1.2208694474
   43      H      -1.4247002750    -0.9309705510     2.2586353123
   44      H      -0.4164466381     0.4584304236     0.4238104276
   45      H      -0.3650245240    -0.9520462101    -0.6164416800
   46      H       1.1735205061    -2.0935913901     1.0082614976
   47      H       1.1201357663    -0.6839192999     2.0499484446
   48      H       2.1246973277     0.7087334122     0.2146453763
   49      H       2.1809941911    -0.7028722740    -0.8241801743
   50      H       3.7203781942    -1.8392009372     0.8045921990
   51      H       3.6639580106    -0.4270131911     1.8426395726
   52      C       4.7797277753    -0.1296937656     0.0178742803
   53      C       6.1557362532    -0.4891977586     0.5897167983
   54      C       7.3250146822     0.1281414276    -0.1859930590
   55      C       8.7007679427    -0.2281911207     0.3884692545
   56      C       9.8702875200     0.3889359475    -0.3870396663
   57      C      11.2457659877     0.0347754327     0.1894371096
   58      C      12.4155256201     0.6517462540    -0.5858742246
   59      C      13.7907674403     0.2992153431    -0.0083620600
   60      C      14.9613423763     0.9157076450    -0.7828452154
   61      C      16.3308058794     0.5581528107    -0.1978594647
   62      H       4.6681750375     0.9623727774     0.0045686897
   63      H       4.7281884636    -0.4520345225    -1.0302460382
   64      H       6.2674446967    -1.5811991976     0.6034550010
   65      H       6.2069739516    -0.1664790349     1.6377819306
   66      H       7.2118979700     1.2200074688    -0.2018063484
   67      H       7.2754131563    -0.1965283229    -1.2335076142
   68      H       8.8139146617    -1.3200168540     0.4047769536
   69      H       8.7501653288     0.0968973926     1.4358825842
   70      H       9.7561918573     1.4806636988    -0.4048286025
   71      H       9.8221052575     0.0624432694    -1.4340594214
   72      H      11.3599046175    -1.0569116574     0.2075486826
   73      H      11.2938183298     0.3615465202     1.2363750912
   74      H      12.3007998196     1.7434031230    -0.6049364522
   75      H      12.3683163699     0.3240358319    -1.6325806448
   76      H      13.9067247312    -0.7924304823     0.0109034098
   77      H      13.8390482142     0.6270234034     1.0384171532
   78      H      14.8462278385     2.0063964339    -0.8019849942
   79      H      14.9142545676     0.5875972904    -1.8284651795
   80      H      16.4218317650     0.9047694683     0.8365180916
   81      H      17.1427683130     1.0126604222    -0.7725020072
   82      H      16.4902500129    -0.5248620450    -0.1975746629
 ----------------------------------------------------------------

   10   -1565.4914226943      9.34e-07  Convergence criterion met
 Total energy in the final basis set =    -1565.4914226943
    6   -1565.5122084951      6.93e-07  Convergence criterion met
 Total energy in the final basis set =    -1565.5122084951

                    Orbital Energies (a.u.)
 --------------------------------------------------------------

 Alpha MOs
 -- Occupied --
-19.1813 -19.1521 -19.1290 -14.3041 -10.2961 -10.2826 -10.2724 -10.2217
-10.2111 -10.2100 -10.2060 -10.2011 -10.1988 -10.1968 -10.1967 -10.1858
-10.1858 -10.1746 -10.1739 -10.1729 -10.1722 -10.1697 -10.1596 -10.1588
-10.1586 -10.1574 -10.1567 -10.1565 -10.1565 -10.1564 -10.1564 -10.1563
-10.1562 -10.1562 -10.1561 -10.1561 -10.1521  -1.1118  -1.0696  -1.0649
 -0.9167  -0.8927  -0.8584  -0.8376  -0.8123  -0.8060  -0.7962  -0.7875
 -0.7802  -0.7762  -0.7631  -0.7550  -0.7473  -0.7343  -0.7130  -0.7027
 -0.6851  -0.6690  -0.6542  -0.6453  -0.6295  -0.6156  -0.6077  -0.6063
 -0.5937  -0.5806  -0.5775  -0.5753  -0.5739  -0.5721  -0.5675  -0.5668
 -0.5446  -0.5228  -0.5150  -0.4997  -0.4921  -0.4847  -0.4832  -0.4791
 -0.4750  -0.4699  -0.4679  -0.4602  -0.4571  -0.4530  -0.4520  -0.4465
 -0.4428  -0.4367  -0.4314  -0.4308  -0.4259  -0.4250  -0.4199  -0.4184
 -0.4156  -0.4094  -0.4082  -0.4056  -0.4007  -0.3978  -0.3905  -0.3823
 -0.3805  -0.3798  -0.3767  -0.3718  -0.3704  -0.3644  -0.3601  -0.3574
 -0.3456  -0.3448  -0.3440  -0.3410  -0.3396  -0.3322  -0.3314  -0.3252
 -0.3235  -0.3211  -0.3191  -0.3188  -0.3173  -0.3163  -0.3161  -0.3115
 -0.3068  -0.2919  -0.2886  -0.2843  -0.2803  -0.2691  -0.2581  -0.2459
 -0.2318

          Ground-State Mulliken Net Atomic Charges

     Atom                 Charge (a.u.)
  ----------------------------------------
      1 C                     0.150570
      2 C                    -0.515143
      3 C                    -0.462300
      4 C                     0.438656
      5 C                     0.315066
      6 C                    -0.055284
      7 C                    -0.255644
      8 C                    -0.321087
      9 C                     0.399930
     10 C                    -0.086848
     11 O                    -0.323658
     12 O                    -0.228061
     13 O                    -0.227924
     14 H                     0.227250
     15 H                     0.221401
     16 H                     0.234530
     17 H                     0.212989
     18 H                     0.332482
     19 C                     0.458700
     20 C                    -0.368577
     21 C                    -0.187997
     22 C                    -0.334249
     23 C                    -0.412790
     24 C                    -0.390804
     25 H                     0.195837
     26 H                     0.195606
     27 H                     0.222544
     28 H                     0.215164
     29 H                     0.191564
     30 C                    -0.068878
     31 H                     0.274923
     32 N                    -0.033946
     33 C                    -0.783082
     34 C                    -0.772865
     35 C                     0.156858
     36 C                    -0.092830
     37 C                    -0.148782
     38 C                    -0.261619
     39 H                     0.319874
     40 H                     0.189864
     41 H                     0.229962
     42 H                     0.150145
     43 H                     0.134916
     44 H                     0.115858
     45 H                     0.120832
     46 H                     0.131279
     47 H                     0.133722
     48 H                     0.136580
     49 H                     0.137191
     50 H                     0.136956
     51 H                     0.136014
     52 C                    -0.403152
     53 C                    -0.410753
     54 C                    -0.349001
     55 C                    -0.201895
     56 C                    -0.056312
     57 C                    -0.032909
     58 C                    -0.195385
     59 C                    -0.398441
     60 C                    -0.271895
     61 C                    -0.708976
     62 H                     0.134392
     63 H                     0.135382
     64 H                     0.133691
     65 H                     0.133927
     66 H                     0.134239
     67 H                     0.134809
     68 H                     0.134808
     69 H                     0.134675
     70 H                     0.133020
     71 H                     0.133342
     72 H                     0.133296
     73 H                     0.133394
     74 H                     0.131054
     75 H                     0.131523
     76 H                     0.128125
     77 H                     0.128280
     78 H                     0.136070
     79 H                     0.136089
     80 H                     0.145327
     81 H                     0.153143
     82 H                     0.145237
  ----------------------------------------
  Sum of atomic charges =     0.000000

                    Cartesian Multipole Moments
 -----------------------------------------------------------------
    Charge (ESU x 10^10)
                -0.0000
    Dipole Moment (Debye)
         X      -0.9062      Y       4.8502      Z      -0.4456
       Tot       4.9542
    Quadrupole Moments (Debye-Ang)
        XX    -219.8454     XY     -28.9404     YY    -216.4266
        XZ       8.3347     YZ      -6.1209     ZZ    -226.5670

 Total job time:  1001.07s(wall), 7687.50s(cpu)
        *  Thank you very much for using Q-Chem.  Have a nice day.  *
