 Q-Chem 5.4, Q-Chem, Inc., Pleasanton, CA (2021)
 Q-Chem 5.4.0 for Intel X86 EM64T Linux

User input:
--------------------------------------------------------------
$molecule
-1 2
C                  0.8717700000      1.2266790000     -1.3855040000
C                 -0.5199470000      1.1468940000     -1.8521460000
C                 -1.4257690000      0.4493850000     -1.0824020000
C                 -1.0740420000     -0.2954350000      0.1153470000
C                  0.3105630000     -0.1906910000      0.5981110000
C                  1.1949000000      0.5821350000     -0.1232590000
O                  1.7414610000      1.8379460000     -2.0502980000
O                 -1.9186890000     -0.9945980000      0.7234070000
S                  2.9240770000      0.7951520000      0.4051490000
C                  3.2676920000      2.5789680000      0.3265120000
C                  3.9765080000      3.1034640000     -0.7489890000
C                  2.8782890000      3.3760580000      1.3989310000
C                  3.1937920000      4.7342900000      1.3853600000
C                  4.3020990000      4.4575230000     -0.7456600000
C                  3.9076430000      5.2732330000      0.3158180000
O                  3.8358810000      0.1170770000     -0.5272320000
O                  3.0171250000      0.4644980000      1.8408190000
H                  4.2455980000      2.4538380000     -1.5698630000
H                  2.3504480000      2.9336450000      2.2344780000
H                  4.8542710000      4.8784300000     -1.5788520000
H                  2.8906860000      5.3657420000      2.2134810000
H                  4.1556600000      6.3295350000      0.3082090000
S                 -3.1770080000      0.3148690000     -1.5613980000
C                 -4.1467510000      0.7116470000     -0.0754440000
C                 -4.3667900000      2.0506490000      0.2338080000
C                 -4.7167130000     -0.3107820000      0.6755200000
C                 -5.5262950000      0.0197580000      1.7593650000
C                 -5.1648080000      2.3718600000      1.3313170000
C                 -5.7462910000      1.3574710000      2.0908210000
H                 -3.9309380000      2.8247200000     -0.3853380000
H                 -4.5072620000     -1.3378640000      0.4118350000
H                 -5.9761400000     -0.7686210000      2.3529670000
H                 -5.3386590000      3.4120630000      1.5845620000
H                 -6.3700100000      1.6088280000      2.9423700000
O                 -3.4993880000     -1.0635690000     -1.9571540000
O                 -3.4868990000      1.4056730000     -2.5065430000
C                 -0.7970820000      1.8388260000     -3.1616910000
C                  0.6143660000     -0.9766050000      1.8473750000
H                  0.1566940000      2.1304160000     -3.5986920000
H                 -1.4118010000      2.7304740000     -3.0162720000
H                 -1.3465930000      1.1976080000     -3.8511600000
H                 -0.2406990000     -1.6160330000      2.0610620000
H                  0.7886400000     -0.3147490000      2.6991850000
H                  1.5165410000     -1.5789450000      1.7386010000
$end
$rem
MAX_SCF_CYCLES=200
BASIS  =  6-311++G(d,p)
GUI  =  2
JOB_TYPE  =  SP
METHOD  =  B3LYP
SOLVENT_METHOD = COSMO
$end
$solvent
dielectric 37.219
opticaldielectric 1.43
$end

--------------------------------------------------------------

             Standard Nuclear Orientation (Angstroms)
    I     Atom           X                Y                Z
 ----------------------------------------------------------------
    1      C       1.1288014836    -0.9164374892     0.9091161234
    2      C      -0.2409342241    -1.4496201123     0.8859430330
    3      C      -1.2877972098    -0.5538327769     0.8515764048
    4      C      -1.1286864356     0.8887577571     0.9333547316
    5      C       0.2410947457     1.4224322934     0.9259793841
    6      C       1.2880679045     0.5278895293     0.8682985327
    7      O       2.1194948650    -1.6836643579     0.9521323873
    8      O      -2.1195409811     1.6542876631     0.9978965908
    9      S       3.0194781242     1.0894621942     0.8295797090
   10      C       3.8246529953     0.1746458082    -0.5198864724
   11      C       4.6308196007    -0.9215196594    -0.2322491158
   12      C       3.6783620979     0.6484204939    -1.8203503114
   13      C       4.3440701227    -0.0017362954    -2.8589308119
   14      C       5.3054000681    -1.5538470298    -1.2736902550
   15      C       5.1590304750    -1.0993739693    -2.5850803816
   16      O       3.7031033357     0.7412613759     2.0833417796
   17      O       3.0433223608     2.4973627788     0.3864253982
   18      H       4.7043487733    -1.2680547641     0.7889092333
   19      H       3.0647544443     1.5202870722    -2.0096080464
   20      H       5.9367632298    -2.4099432848    -1.0621594318
   21      H       4.2330291104     0.3558599748    -3.8768620804
   22      H       5.6793527992    -1.6021483375    -3.3936759901
   23      S      -3.0187889578    -1.1149308345     0.7949522465
   24      C      -3.8246102302    -0.1587716196    -0.5250118402
   25      C      -3.6751387338    -0.5889248710    -1.8401569916
   26      C      -4.6346498037     0.9247145061    -0.2024310354
   27      C      -5.3100012489     1.5889146585    -1.2232827746
   28      C      -4.3416191008     0.0930849480    -2.8576056473
   29      C      -5.1604874050     1.1784542383    -2.5487657976
   30      H      -3.0584683635    -1.4520812852    -2.0573511612
   31      H      -4.7105174839     1.2370060533     0.8295646138
   32      H      -5.9443651591     2.4355639378    -0.9844675043
   33      H      -4.2281087544    -0.2302886211    -3.8866461798
   34      H      -5.6814146374     1.7059930022    -3.3410278141
   35      O      -3.7028553076    -0.8066255474     2.0589317063
   36      O      -3.0414873672    -2.5082962253     0.3079178130
   37      C      -0.3439822128    -2.9524509019     0.9228556001
   38      C       0.3438702467     2.9237620113     1.0038503961
   39      H       0.6461112395    -3.3543619737     1.1322970152
   40      H      -0.6966006405    -3.3489107615    -0.0324151022
   41      H      -1.0550878691    -3.2920871303     1.6761592192
   42      H      -0.6472255601     3.3199409307     1.2193447598
   43      H       0.7013635033     3.3457630954     0.0614498844
   44      H       1.0511646469     3.2429857236     1.7696152701
 ----------------------------------------------------------------

    9   -2019.8012196277      5.39e-06  Convergence criterion met
 Total energy in the final basis set =    -2019.8012196277
    4   -2019.8890519059      7.43e-06  Convergence criterion met
 Total energy in the final basis set =    -2019.8890519059

                    Orbital Energies (a.u.)
 --------------------------------------------------------------

 Alpha MOs
 -- Occupied --
-89.0574 -89.0574 -19.1254 -19.1254 -19.1201 -19.1200 -19.0984 -19.0984
-10.2504 -10.2504 -10.2131 -10.2131 -10.2121 -10.2121 -10.2105 -10.2105
-10.1932 -10.1932 -10.1904 -10.1903 -10.1871 -10.1871 -10.1855 -10.1855
-10.1845 -10.1845 -10.1599 -10.1599  -8.1211  -8.1210  -6.0840  -6.0839
 -6.0828  -6.0828  -6.0820  -6.0819  -1.1162  -1.1161  -1.0309  -1.0285
 -1.0118  -1.0116  -0.8761  -0.8761  -0.8598  -0.8142  -0.7810  -0.7788
 -0.7623  -0.7623  -0.7407  -0.7337  -0.6969  -0.6636  -0.6556  -0.6282
 -0.6216  -0.6215  -0.5967  -0.5751  -0.5724  -0.5470  -0.5384  -0.5234
 -0.5099  -0.4957  -0.4859  -0.4839  -0.4768  -0.4765  -0.4577  -0.4567
 -0.4549  -0.4533  -0.4471  -0.4416  -0.4398  -0.4349  -0.4312  -0.4215
 -0.4105  -0.3994  -0.3981  -0.3972  -0.3877  -0.3837  -0.3800  -0.3783
 -0.3775  -0.3775  -0.3588  -0.3588  -0.3486  -0.3454  -0.3358  -0.3352
 -0.3185  -0.3179  -0.3049  -0.3023  -0.3006  -0.2834  -0.2763  -0.2759
 -0.2698  -0.2679  -0.2613  -0.2505  -0.1837

 Beta MOs
 -- Occupied --
-89.0574 -89.0574 -19.1254 -19.1254 -19.1201 -19.1200 -19.0916 -19.0916
-10.2494 -10.2493 -10.2129 -10.2129 -10.2121 -10.2121 -10.2082 -10.2082
-10.1932 -10.1932 -10.1904 -10.1904 -10.1871 -10.1871 -10.1855 -10.1855
-10.1845 -10.1845 -10.1601 -10.1600  -8.1211  -8.1210  -6.0840  -6.0839
 -6.0828  -6.0828  -6.0820  -6.0820  -1.1161  -1.1160  -1.0197  -1.0174
 -1.0116  -1.0110  -0.8761  -0.8761  -0.8538  -0.8116  -0.7807  -0.7779
 -0.7623  -0.7623  -0.7361  -0.7322  -0.6957  -0.6617  -0.6512  -0.6270
 -0.6216  -0.6215  -0.5962  -0.5740  -0.5684  -0.5465  -0.5375  -0.5216
 -0.5092  -0.4935  -0.4854  -0.4837  -0.4765  -0.4763  -0.4566  -0.4565
 -0.4545  -0.4532  -0.4388  -0.4377  -0.4363  -0.4339  -0.4267  -0.4145
 -0.4082  -0.3972  -0.3938  -0.3908  -0.3818  -0.3808  -0.3780  -0.3780
 -0.3750  -0.3688  -0.3587  -0.3586  -0.3474  -0.3442  -0.3347  -0.3343
 -0.3181  -0.3171  -0.3046  -0.3007  -0.2799  -0.2754  -0.2744  -0.2732
 -0.2667  -0.2645  -0.2573  -0.2457

          Ground-State Mulliken Net Atomic Charges

     Atom                 Charge (a.u.)    Spin (a.u.)
  --------------------------------------------------------
      1 C                    -1.001134       0.007907
      2 C                     0.547576       0.172920
      3 C                     0.271348       0.076022
      4 C                    -1.001570       0.007995
      5 C                     0.545482       0.172732
      6 C                     0.269984       0.075866
      7 O                    -0.334611       0.252972
      8 O                    -0.333930       0.253114
      9 S                     0.354864      -0.031555
     10 C                     0.156893      -0.004392
     11 C                    -0.248997       0.024460
     12 C                     0.229937      -0.007679
     13 C                    -0.539649       0.002605
     14 C                    -0.409370      -0.003505
     15 C                    -0.317893      -0.000350
     16 O                    -0.203446       0.003896
     17 O                    -0.193746      -0.001558
     18 H                     0.271060       0.000609
     19 H                     0.262011       0.000445
     20 H                     0.233869      -0.000124
     21 H                     0.232990       0.000010
     22 H                     0.211852       0.000016
     23 S                     0.357373      -0.031461
     24 C                     0.151338      -0.004361
     25 C                     0.232799      -0.007817
     26 C                    -0.249016       0.024491
     27 C                    -0.408285      -0.003515
     28 C                    -0.539757       0.002606
     29 C                    -0.318141      -0.000368
     30 H                     0.262960       0.000440
     31 H                     0.271245       0.000615
     32 H                     0.233857      -0.000123
     33 H                     0.232931       0.000011
     34 H                     0.211900       0.000017
     35 O                    -0.202144       0.003881
     36 O                    -0.193409      -0.001569
     37 C                    -0.617893      -0.006155
     38 C                    -0.616883      -0.006166
     39 H                     0.186932      -0.001145
     40 H                     0.207632       0.008965
     41 H                     0.199433       0.005721
     42 H                     0.187161      -0.001187
     43 H                     0.207280       0.008949
     44 H                     0.199159       0.005768
  --------------------------------------------------------
  Sum of atomic charges =    -1.000006

                    Cartesian Multipole Moments
 -----------------------------------------------------------------
    Charge (ESU x 10^10)
                -4.8032
    Dipole Moment (Debye)
         X      -0.0072      Y       0.1910      Z     -12.4677
       Tot      12.4692
    Quadrupole Moments (Debye-Ang)
        XX    -222.4970     XY     -29.8862     YY    -200.9199
        XZ      -0.5289     YZ      -0.2989     ZZ    -181.3114

 Total job time:  279.42s(wall), 2029.98s(cpu)
        *  Thank you very much for using Q-Chem.  Have a nice day.  *
