 Q-Chem 5.4, Q-Chem, Inc., Pleasanton, CA (2021)
 Q-Chem 5.4.0 for Intel X86 EM64T Linux

User input:
--------------------------------------------------------------
$molecule
-2 1
C                 -0.6845450000      2.7235260000      0.6576560000
C                 -1.6778600000      2.5763950000     -0.2953660000
C                 -1.4485110000      1.8027710000     -1.4508990000
C                  0.5824870000      2.1060560000      0.5018900000
C                  0.8131140000      1.3222270000     -0.6701490000
C                 -0.2083230000      1.1901180000     -1.6174180000
C                  1.6066630000      2.2700450000      1.5055900000
C                  2.8246200000      1.6268240000      1.2703590000
C                  3.1556760000      0.8170500000      0.1240360000
C                  2.1179200000      0.6356750000     -0.9172950000
O                  1.4499290000      2.9756190000      2.5978640000
O                  2.2715510000     -0.0358110000     -1.9516110000
O                  3.7472990000      1.8297580000      2.2680480000
H                 -0.8364220000      3.3135490000      1.5552060000
H                 -2.6421600000      3.0614880000     -0.1511070000
H                 -2.2272430000      1.6859110000     -2.2006490000
H                  0.0080640000      0.5862250000     -2.4930260000
H                  3.2106860000      2.4039010000      2.8668340000
N                  4.3981850000      0.2980060000      0.1166570000
N                  4.8132800000     -0.4529090000     -0.8726550000
C                  6.1133170000     -0.8890590000     -0.6968840000
C                  6.9585220000     -0.5926010000      0.4119420000
C                  6.6604830000     -1.7109180000     -1.7170290000
C                  7.9564210000     -2.2033000000     -1.6404220000
C                  8.7779330000     -1.9036190000     -0.5429600000
C                  8.2516310000     -1.0920470000      0.4744500000
H                  6.5523950000      0.0334890000      1.1966200000
H                  6.0211400000     -1.9398920000     -2.5638470000
H                  8.3373200000     -2.8302080000     -2.4446330000
H                  9.7920610000     -2.2884230000     -0.4820800000
H                  8.8719690000     -0.8469160000      1.3355240000
$end
$rem
MAX_SCF_CYCLES=200
BASIS  =  6-311++G(d,p)
GUI  =  2
JOB_TYPE  =  SP
METHOD  =  B3LYP
SOLVENT_METHOD = PCM
$end
$pcm
theory = CPCM
$end
$solvent
dielectric 37.219
opticaldielectric 1.43
$end

--------------------------------------------------------------

             Standard Nuclear Orientation (Angstroms)
    I     Atom           X                Y                Z
 ----------------------------------------------------------------
    1      C      -0.6845450000     2.7235260000     0.6576560000
    2      C      -1.6778600000     2.5763950000    -0.2953660000
    3      C      -1.4485110000     1.8027710000    -1.4508990000
    4      C       0.5824870000     2.1060560000     0.5018900000
    5      C       0.8131140000     1.3222270000    -0.6701490000
    6      C      -0.2083230000     1.1901180000    -1.6174180000
    7      C       1.6066630000     2.2700450000     1.5055900000
    8      C       2.8246200000     1.6268240000     1.2703590000
    9      C       3.1556760000     0.8170500000     0.1240360000
   10      C       2.1179200000     0.6356750000    -0.9172950000
   11      O       1.4499290000     2.9756190000     2.5978640000
   12      O       2.2715510000    -0.0358110000    -1.9516110000
   13      O       3.7472990000     1.8297580000     2.2680480000
   14      H      -0.8364220000     3.3135490000     1.5552060000
   15      H      -2.6421600000     3.0614880000    -0.1511070000
   16      H      -2.2272430000     1.6859110000    -2.2006490000
   17      H       0.0080640000     0.5862250000    -2.4930260000
   18      H       3.2106860000     2.4039010000     2.8668340000
   19      N       4.3981850000     0.2980060000     0.1166570000
   20      N       4.8132800000    -0.4529090000    -0.8726550000
   21      C       6.1133170000    -0.8890590000    -0.6968840000
   22      C       6.9585220000    -0.5926010000     0.4119420000
   23      C       6.6604830000    -1.7109180000    -1.7170290000
   24      C       7.9564210000    -2.2033000000    -1.6404220000
   25      C       8.7779330000    -1.9036190000    -0.5429600000
   26      C       8.2516310000    -1.0920470000     0.4744500000
   27      H       6.5523950000     0.0334890000     1.1966200000
   28      H       6.0211400000    -1.9398920000    -2.5638470000
   29      H       8.3373200000    -2.8302080000    -2.4446330000
   30      H       9.7920610000    -2.2884230000    -0.4820800000
   31      H       8.8719690000    -0.8469160000     1.3355240000
 ----------------------------------------------------------------

    9    -951.3891284210      7.64e-06  Convergence criterion met
 Total energy in the final basis set =     -951.3891284210

                    Orbital Energies (a.u.)
 --------------------------------------------------------------

 Alpha MOs
 -- Occupied --
-19.1170 -19.0690 -19.0372 -14.3188 -14.3020 -10.2246 -10.1877 -10.1852
-10.1774 -10.1752 -10.1664 -10.1662 -10.1652 -10.1626 -10.1612 -10.1610
-10.1588 -10.1586 -10.1580 -10.1564 -10.1559  -1.0333  -1.0017  -0.9757
 -0.9392  -0.8476  -0.8423  -0.8003  -0.7602  -0.7371  -0.7358  -0.7159
 -0.6734  -0.6433  -0.6062  -0.5946  -0.5836  -0.5624  -0.5457  -0.5177
 -0.5079  -0.4831  -0.4636  -0.4607  -0.4485  -0.4353  -0.4284  -0.4190
 -0.4176  -0.4132  -0.4084  -0.3986  -0.3875  -0.3763  -0.3687  -0.3681
 -0.3599  -0.3546  -0.3391  -0.3340  -0.3339  -0.3225  -0.3213  -0.3071
 -0.2628  -0.2506  -0.2493  -0.2454  -0.2386  -0.2252  -0.1949  -0.1884
 -0.1309

          Ground-State Mulliken Net Atomic Charges

     Atom                 Charge (a.u.)
  ----------------------------------------
      1 C                    -0.012112
      2 C                    -0.283752
      3 C                    -0.455151
      4 C                     0.466869
      5 C                     0.572631
      6 C                     0.236374
      7 C                    -0.662642
      8 C                    -0.014579
      9 C                     0.132028
     10 C                    -0.927054
     11 O                    -0.724115
     12 O                    -0.439038
     13 O                    -0.360780
     14 H                     0.160273
     15 H                     0.190313
     16 H                     0.183104
     17 H                     0.158858
     18 H                     0.314918
     19 N                    -0.187914
     20 N                    -0.106194
     21 C                    -0.156937
     22 C                     0.054974
     23 C                    -0.181231
     24 C                    -0.152111
     25 C                    -0.433113
     26 C                    -0.302467
     27 H                     0.171808
     28 H                     0.170955
     29 H                     0.203739
     30 H                     0.172862
     31 H                     0.209467
  ----------------------------------------
  Sum of atomic charges =    -2.000012

                    Cartesian Multipole Moments
 -----------------------------------------------------------------
    Charge (ESU x 10^10)
                -9.6065
    Dipole Moment (Debye)
         X     -28.2793      Y      -9.9786      Z      -3.3875
       Tot      30.1789
    Quadrupole Moments (Debye-Ang)
        XX    -243.2291     XY     -11.9462     YY    -163.7454
        XZ       1.4517     YZ     -24.1659     ZZ    -162.3451

 Total job time:  77.94s(wall), 468.92s(cpu)
        *  Thank you very much for using Q-Chem.  Have a nice day.  *
