 Gaussian 16, Revision A.03,
 Gaussian 16:  ES64L-G16RevA.03 25-Dec-2016

 ----------------------------------------------------------------------
 #P UB3LYP/6-311++G(d,p) nosym opt freq SCRF=(PCM,Solvent=n,n-DiMethylF
 ormamide)
 ----------------------------------------------------------------------

 --------
 Oxidized
 --------
 Symbolic Z-matrix:
 Charge =  0 Multiplicity = 1

 SCF Done:  E(UB3LYP) =  -1485.31877884     A.U. after   15 cycles
 SCF Done:  E(UB3LYP) =  -1485.31882321     A.U. after   11 cycles
 SCF Done:  E(UB3LYP) =  -1485.31882731     A.U. after   11 cycles
 SCF Done:  E(UB3LYP) =  -1485.31882764     A.U. after   11 cycles
 SCF Done:  E(UB3LYP) =  -1485.31882795     A.U. after   10 cycles
 Optimization completed.
    -- Stationary point found.
 Normal termination of Gaussian 16 at Sat Feb 10 10:07:03 2024.

 ----------------------------------------------------------------------
 #P Geom=AllCheck Guess=TCheck SCRF=Check GenChk UB3LYP/6-311++G(d,p) F
 req
 ----------------------------------------------------------------------

 Structure from the checkpoint file:  "002.chk"
 --------
 Oxidized
 --------
 Charge =  0 Multiplicity = 1

                          Input orientation:
 ---------------------------------------------------------------------
 Center     Atomic      Atomic             Coordinates (Angstroms)
 Number     Number       Type             X           Y           Z
 ---------------------------------------------------------------------
      1          6           0        0.049045    1.698900   -0.000126
      2          6           0       -1.214926    0.907972   -0.000847
      3          6           0       -1.203232   -0.443366    0.000126
      4          6           0        0.074248   -1.212311    0.001938
      5          6           0        1.353377   -0.421336    0.002881
      6          6           0        1.341648    0.930238    0.001791
      7          8           0        0.062527    2.907632   -0.000623
      8          8           0        0.108630   -2.420621    0.003018
      9          6           0        2.534657    1.709315    0.002487
     10          6           0        2.559752   -1.179576    0.004904
     11          7           0        3.499201    2.342601    0.003072
     12          7           0        3.534936   -1.796351    0.006533
     13         17           0       -2.662920    1.830851   -0.002993
     14         17           0       -2.635053   -1.391061   -0.000672
 ---------------------------------------------------------------------

 SCF Done:  E(UB3LYP) =  -1485.31882795     A.U. after    1 cycles

 Alpha  occ. eigenvalues -- -101.59893-101.59892 -19.18413 -19.18412 -14.36712
 Alpha  occ. eigenvalues --  -14.36711 -10.34000 -10.33999 -10.30526 -10.30453
 Alpha  occ. eigenvalues --  -10.30182 -10.30107 -10.26235 -10.26232  -9.51329
 Alpha  occ. eigenvalues --   -9.51327  -7.27833  -7.27832  -7.26833  -7.26832
 Alpha  occ. eigenvalues --   -7.26703  -7.26702  -1.12236  -1.12010  -0.97073
 Alpha  occ. eigenvalues --   -0.95958  -0.95779  -0.91130  -0.90098  -0.81456
 Alpha  occ. eigenvalues --   -0.78389  -0.70292  -0.68103  -0.61129  -0.59695
 Alpha  occ. eigenvalues --   -0.57551  -0.52233  -0.51096  -0.50396  -0.48945
 Alpha  occ. eigenvalues --   -0.47878  -0.46901  -0.44352  -0.42001  -0.41899
 Alpha  occ. eigenvalues --   -0.40872  -0.40325  -0.39459  -0.38704  -0.37597
 Alpha  occ. eigenvalues --   -0.36869  -0.34785  -0.33948  -0.33776  -0.32891
 Alpha  occ. eigenvalues --   -0.30175
 Alpha virt. eigenvalues --   -0.18474  -0.11053  -0.05540  -0.04537  -0.02671
 Alpha virt. eigenvalues --   -0.01212  -0.00294   0.01522   0.01738   0.01858
 Alpha virt. eigenvalues --    0.02188   0.02925   0.04130   0.04426   0.05068

  Beta  occ. eigenvalues -- -101.59893-101.59892 -19.18413 -19.18412 -14.36712
  Beta  occ. eigenvalues --  -14.36711 -10.34000 -10.33999 -10.30526 -10.30453
  Beta  occ. eigenvalues --  -10.30182 -10.30107 -10.26235 -10.26232  -9.51329
  Beta  occ. eigenvalues --   -9.51327  -7.27833  -7.27832  -7.26833  -7.26832
  Beta  occ. eigenvalues --   -7.26703  -7.26702  -1.12236  -1.12010  -0.97073
  Beta  occ. eigenvalues --   -0.95958  -0.95779  -0.91130  -0.90098  -0.81456
  Beta  occ. eigenvalues --   -0.78389  -0.70292  -0.68103  -0.61129  -0.59695
  Beta  occ. eigenvalues --   -0.57551  -0.52233  -0.51096  -0.50396  -0.48945
  Beta  occ. eigenvalues --   -0.47878  -0.46901  -0.44352  -0.42001  -0.41899
  Beta  occ. eigenvalues --   -0.40872  -0.40325  -0.39459  -0.38704  -0.37597
  Beta  occ. eigenvalues --   -0.36869  -0.34785  -0.33948  -0.33776  -0.32891
  Beta  occ. eigenvalues --   -0.30175
  Beta virt. eigenvalues --   -0.18474  -0.11053  -0.05540  -0.04537  -0.02671
  Beta virt. eigenvalues --   -0.01212  -0.00294   0.01522   0.01738   0.01858
  Beta virt. eigenvalues --    0.02188   0.02925   0.04130   0.04426   0.05068

 Mulliken charges and spin densities:
               1          2
     1  C   -1.560316  -0.000000
     2  C    0.638863   0.000000
     3  C    0.638942  -0.000000
     4  C   -1.559004   0.000000
     5  C    2.076685   0.000000
     6  C    2.074893  -0.000000
     7  O   -0.155106   0.000000
     8  O   -0.155080  -0.000000
     9  C   -1.335836   0.000000
    10  C   -1.335833  -0.000000
    11  N   -0.176153  -0.000000
    12  N   -0.176120   0.000000
    13  Cl   0.512030  -0.000000
    14  Cl   0.512035   0.000000
 Sum of Mulliken charges =   0.00000  -0.00000

 Dipole moment (field-independent basis, Debye):
    X=             -5.5915    Y=             -0.0490    Z=             -0.0073  Tot=              5.5917
 Quadrupole moment (field-independent basis, Debye-Ang):
   XX=           -112.8714   YY=           -115.2973   ZZ=            -87.4271
   XY=             -1.3345   XZ=             -0.0338   YZ=              0.0181

  Exact polarizability: 207.889  -0.548 270.741   0.139  -0.139  80.429
 Approx polarizability: 231.905  -1.313 383.437   0.150  -0.210  96.126

                      1                      2                      3
                      A                      A                      A
 Frequencies --     47.7012                50.8246                79.9122
 Red. masses --     16.3848                17.4888                18.6495
 Frc consts  --      0.0220                 0.0266                 0.0702
 IR Inten    --      0.2127                 0.0001                 0.0001

                      4                      5                      6
                      A                      A                      A
 Frequencies --    117.7615               143.8860               147.7014
 Red. masses --     14.0032                15.4067                13.4121
 Frc consts  --      0.1144                 0.1879                 0.1724
 IR Inten    --      3.3344                 7.9353                37.5547

                      7                      8                      9
                      A                      A                      A
 Frequencies --    208.0226               257.2154               257.9468
 Red. masses --     31.5495                19.6266                12.7435
 Frc consts  --      0.8044                 0.7650                 0.4996
 IR Inten    --      0.0184                 2.4689                 1.5729

                     10                     11                     12
                      A                      A                      A
 Frequencies --    294.5808               319.7170               344.1628
 Red. masses --     12.4834                15.8317                18.8344
 Frc consts  --      0.6382                 0.9535                 1.3144
 IR Inten    --      0.0000                 1.6454                 0.0846

                     13                     14                     15
                      A                      A                      A
 Frequencies --    378.2674               430.0895               470.9329
 Red. masses --     15.0719                13.9123                13.8134
 Frc consts  --      1.2706                 1.5162                 1.8050
 IR Inten    --     20.7845                 1.8875                 8.7823

                     16                     17                     18
                      A                      A                      A
 Frequencies --    480.6365               496.7458               503.0286
 Red. masses --     12.3336                12.1979                15.2675
 Frc consts  --      1.6787                 1.7734                 2.2762
 IR Inten    --      0.0001                 0.2094                 2.4751

                     19                     20                     21
                      A                      A                      A
 Frequencies --    528.7376               642.3486               753.9046
 Red. masses --     12.8759                12.0815                12.1769
 Frc consts  --      2.1208                 2.9371                 4.0777
 IR Inten    --      0.5844                 0.0001                16.5960

                     22                     23                     24
                      A                      A                      A
 Frequencies --    777.8911               790.2628               796.3543
 Red. masses --     12.4548                13.5350                12.1174
 Frc consts  --      4.4404                 4.9803                 4.5277
 IR Inten    --      2.7536               274.7367                 0.0005

                     25                     26                     27
                      A                      A                      A
 Frequencies --    883.7739               968.6607              1053.6625
 Red. masses --     13.0908                12.4643                12.4703
 Frc consts  --      6.0242                 6.8907                 8.1570
 IR Inten    --     76.3151                 4.6414                 0.0257

                     28                     29                     30
                      A                      A                      A
 Frequencies --   1158.2117              1246.2648              1319.4529
 Red. masses --     12.1058                12.0942                12.0882
 Frc consts  --      9.5679                11.0675                12.3994
 IR Inten    --    553.4445               254.0133                 4.5958

                     31                     32                     33
                      A                      A                      A
 Frequencies --   1593.2382              1655.3525              1731.4977
 Red. masses --     12.0187                12.0343                13.2551
 Frc consts  --     17.9751                19.4291                23.4142
 IR Inten    --    291.7036                 0.2362               997.4996

                     34                     35                     36
                      A                      A                      A
 Frequencies --   1738.4466              2338.8430              2347.9881
 Red. masses --     13.2902                12.6819                12.6771
 Frc consts  --     23.6649                40.8731                41.1776
 IR Inten    --      6.3598                 0.1356                 0.1730

 - Thermochemistry -
 -------------------
 Temperature   298.150 Kelvin.  Pressure   1.00000 Atm.
 Atom     1 has atomic number  6 and mass  12.00000

 Molecular mass:   225.93368 amu.
 Principal axes and moments of inertia in atomic units:
                           1         2         3
     Eigenvalues --  2326.138413822.936736149.07512
           X            0.99996  -0.00862  -0.00108
           Y            0.00863   0.99996   0.00073
           Z            0.00107  -0.00074   1.00000
 This molecule is an asymmetric top.
 Rotational symmetry number  1.
 Warning -- assumption of classical behavior for rotation
           may cause significant error
 Rotational temperatures (Kelvin)      0.03724     0.02266     0.01409
 Rotational constants (GHZ):           0.77585     0.47208     0.29350
 Zero-point vibrational energy     163613.4 (Joules/Mol)
                                   39.10454 (Kcal/Mol)
 Warning -- explicit consideration of  19 degrees of freedom as
           vibrations may cause significant error
 Vibrational temperatures:     68.63    73.13   114.98   169.43   207.02
          (Kelvin)            212.51   299.30   370.08   371.13   423.84
                              460.00   495.17   544.24   618.80   677.57
                              691.53   714.71   723.75   760.74   924.20
                             1084.70  1119.21  1137.01  1145.78  1271.55
                             1393.69  1515.99  1666.41  1793.10  1898.40
                             2292.31  2381.68  2491.24  2501.24  3365.07
                             3378.23

 Zero-point correction=                           0.062317 (Hartree/Particle)
 Thermal correction to Energy=                    0.074699
 Thermal correction to Enthalpy=                  0.075643
 Thermal correction to Gibbs Free Energy=         0.021923
 Sum of electronic and zero-point Energies=          -1485.256511
 Sum of electronic and thermal Energies=             -1485.244129
 Sum of electronic and thermal Enthalpies=           -1485.243185
 Sum of electronic and thermal Free Energies=        -1485.296905

                     E (Thermal)             CV                S
                      KCal/Mol        Cal/Mol-Kelvin    Cal/Mol-Kelvin
 Total                   46.874             42.739            113.064
 Electronic               0.000              0.000              0.000
 Translational            0.889              2.981             42.148
 Rotational               0.889              2.981             32.370
 Vibrational             45.097             36.777             38.546
 Vibration     1          0.595              1.978              4.910
 Vibration     2          0.595              1.977              4.785
 Vibration     3          0.600              1.963              3.893
 Vibration     4          0.608              1.935              3.137
 Vibration     5          0.616              1.909              2.752
 Vibration     6          0.617              1.905              2.702
 Vibration     7          0.641              1.828              2.061
 Vibration     8          0.667              1.751              1.681
 Vibration     9          0.667              1.749              1.676
 Vibration    10          0.689              1.684              1.448
 Vibration    11          0.706              1.636              1.312
 Vibration    12          0.723              1.587              1.193
 Vibration    13          0.749              1.516              1.046
 Vibration    14          0.791              1.405              0.858
 Vibration    15          0.828              1.315              0.735
 Vibration    16          0.837              1.293              0.708
 Vibration    17          0.852              1.257              0.666
 Vibration    18          0.858              1.243              0.651
 Vibration    19          0.884              1.186              0.590

 Optimization completed.
    -- Stationary point found.
 Normal termination of Gaussian 16 at Sat Feb 10 10:14:04 2024.
