 Q-Chem 5.4, Q-Chem, Inc., Pleasanton, CA (2021)
 Q-Chem 5.4.0 for Intel X86 EM64T Linux

User input:
--------------------------------------------------------------
$molecule
0 1
C                  5.9228460000     -5.2187110000      1.1094300000
C                  6.8204160000     -5.0891700000      0.0553880000
C                  6.6095950000     -4.1072800000     -0.9268200000
C                  4.8151510000     -4.3788580000      1.1958860000
C                  4.6043490000     -3.3970390000      0.2137390000
C                  5.5040530000     -3.2682740000     -0.8416090000
C                  3.8624430000     -4.5329980000      2.3350040000
C                  2.7023980000     -3.6092750000      2.3728330000
C                  2.5012290000     -2.6723800000      1.4356480000
C                  3.4231390000     -2.4869900000      0.2884150000
O                  4.0183350000     -5.3751990000      3.2021330000
O                  3.2132890000     -1.6258380000     -0.5481870000
H                  6.0772810000     -5.9725230000      1.8708220000
H                  5.3334900000     -2.5088060000     -1.5938750000
Cl                 7.7102250000     -3.9133190000     -2.2618360000
Cl                 8.1923330000     -6.1588100000     -0.0156830000
H                  2.0272510000     -3.7435120000      3.2109910000
H                  1.6524240000     -1.9978170000      1.4647700000
$end
$rem
MAX_SCF_CYCLES=200
BASIS  =  6-311++G(d,p)
GUI  =  2
JOB_TYPE  =  SP
METHOD  =  B3LYP
SOLVENT_METHOD = PCM
$end
$pcm
theory = CPCM
$end
$solvent
dielectric 37.219
opticaldielectric 1.43
$end

--------------------------------------------------------------

             Standard Nuclear Orientation (Angstroms)
    I     Atom           X                Y                Z
 ----------------------------------------------------------------
    1      C       5.9228460000    -5.2187110000     1.1094300000
    2      C       6.8204160000    -5.0891700000     0.0553880000
    3      C       6.6095950000    -4.1072800000    -0.9268200000
    4      C       4.8151510000    -4.3788580000     1.1958860000
    5      C       4.6043490000    -3.3970390000     0.2137390000
    6      C       5.5040530000    -3.2682740000    -0.8416090000
    7      C       3.8624430000    -4.5329980000     2.3350040000
    8      C       2.7023980000    -3.6092750000     2.3728330000
    9      C       2.5012290000    -2.6723800000     1.4356480000
   10      C       3.4231390000    -2.4869900000     0.2884150000
   11      O       4.0183350000    -5.3751990000     3.2021330000
   12      O       3.2132890000    -1.6258380000    -0.5481870000
   13      H       6.0772810000    -5.9725230000     1.8708220000
   14      H       5.3334900000    -2.5088060000    -1.5938750000
   15      Cl      7.7102250000    -3.9133190000    -2.2618360000
   16      Cl      8.1923330000    -6.1588100000    -0.0156830000
   17      H       2.0272510000    -3.7435120000     3.2109910000
   18      H       1.6524240000    -1.9978170000     1.4647700000
 ----------------------------------------------------------------

    9   -1454.5082983711      2.69e-06  Convergence criterion met
 Total energy in the final basis set =    -1454.5082983711

                    Orbital Energies (a.u.)
 --------------------------------------------------------------

 Alpha MOs
 -- Occupied --
********-101.5781 -19.1455 -19.1455 -10.2939 -10.2939 -10.2752 -10.2747
-10.2227 -10.2222 -10.2178 -10.2178 -10.2168 -10.2159  -9.4927  -9.4927
 -7.2575  -7.2575  -7.2476  -7.2476  -7.2469  -7.2469  -1.0789  -1.0772
 -0.9423  -0.8833  -0.8828  -0.8375  -0.7877  -0.7677  -0.7078  -0.6641
 -0.6471  -0.6075  -0.5508  -0.5395  -0.5266  -0.4961  -0.4790  -0.4754
 -0.4692  -0.4655  -0.4471  -0.4432  -0.4316  -0.4288  -0.4105  -0.3998
 -0.3695  -0.3554  -0.3499  -0.3305  -0.3149  -0.2986  -0.2870  -0.2864
 -0.2758

          Ground-State Mulliken Net Atomic Charges

     Atom                 Charge (a.u.)
  ----------------------------------------
      1 C                    -0.522413
      2 C                     0.621671
      3 C                     0.622222
      4 C                    -0.326392
      5 C                    -0.325293
      6 C                    -0.525932
      7 C                    -0.736568
      8 C                     0.132261
      9 C                     0.130692
     10 C                    -0.733682
     11 O                    -0.286305
     12 O                    -0.286686
     13 H                     0.253733
     14 H                     0.253734
     15 Cl                    0.603801
     16 Cl                    0.604065
     17 H                     0.260569
     18 H                     0.260522
  ----------------------------------------
  Sum of atomic charges =     0.000000

                    Cartesian Multipole Moments
 -----------------------------------------------------------------
    Charge (ESU x 10^10)
                 0.0000
    Dipole Moment (Debye)
         X      -1.2797      Y       0.4550      Z       0.7292
       Tot       1.5415
    Quadrupole Moments (Debye-Ang)
        XX    -102.6382     XY       7.8226     YY    -104.6842
        XZ      -0.9756     YZ       6.3823     ZZ     -99.5108

 Total job time:  28.49s(wall), 164.30s(cpu)
        *  Thank you very much for using Q-Chem.  Have a nice day.  *
