 Gaussian 16, Revision A.03,
 Gaussian 16:  ES64L-G16RevA.03 25-Dec-2016

 ----------------------------------------------------------------------
 #P UB3LYP/6-311++G(d,p) nosym opt freq SCRF=(PCM,Solvent=n,n-DiMethylF
 ormamide)
 ----------------------------------------------------------------------

 -------
 Reduced
 -------
 Symbolic Z-matrix:
 Charge = -2 Multiplicity = 1

 SCF Done:  E(UB3LYP) =  -939.947491879     A.U. after   18 cycles
 SCF Done:  E(UB3LYP) =  -939.950029988     A.U. after   13 cycles
 SCF Done:  E(UB3LYP) =  -939.950422162     A.U. after   12 cycles
 SCF Done:  E(UB3LYP) =  -939.950444398     A.U. after   11 cycles
 SCF Done:  E(UB3LYP) =  -939.950460219     A.U. after   11 cycles
 SCF Done:  E(UB3LYP) =  -939.950479539     A.U. after   12 cycles
 SCF Done:  E(UB3LYP) =  -939.950496258     A.U. after   12 cycles
 SCF Done:  E(UB3LYP) =  -939.950502295     A.U. after   12 cycles
 SCF Done:  E(UB3LYP) =  -939.950519579     A.U. after   12 cycles
 SCF Done:  E(UB3LYP) =  -939.950553981     A.U. after   13 cycles
 SCF Done:  E(UB3LYP) =  -939.950568581     A.U. after   12 cycles
 SCF Done:  E(UB3LYP) =  -939.950571964     A.U. after   10 cycles
 SCF Done:  E(UB3LYP) =  -939.950575227     A.U. after   11 cycles
 SCF Done:  E(UB3LYP) =  -939.950576776     A.U. after   11 cycles
 SCF Done:  E(UB3LYP) =  -939.950577013     A.U. after    9 cycles
 SCF Done:  E(UB3LYP) =  -939.950577124     A.U. after    9 cycles
 Optimization completed.
    -- Stationary point found.
 Normal termination of Gaussian 16 at Sun Feb 11 01:15:35 2024.

 ----------------------------------------------------------------------
 #P Geom=AllCheck Guess=TCheck SCRF=Check GenChk UB3LYP/6-311++G(d,p) F
 req
 ----------------------------------------------------------------------

 Structure from the checkpoint file:  "213-an.chk"
 -------
 Reduced
 -------
 Charge = -2 Multiplicity = 1

                          Input orientation:
 ---------------------------------------------------------------------
 Center     Atomic      Atomic             Coordinates (Angstroms)
 Number     Number       Type             X           Y           Z
 ---------------------------------------------------------------------
      1          8           0        3.402282    2.780440    0.920419
      2          6           0        3.049370    1.551938    0.663953
      3          6           0        4.004535    0.493806    0.481046
      4          6           0        5.398239    0.767661    0.581764
      5          6           0        6.358672   -0.203802    0.413741
      6          6           0        5.960121   -1.541691    0.126467
      7          6           0        4.623795   -1.848929    0.022117
      8          6           0        3.595401   -0.873077    0.190652
      9          6           0        2.219369   -1.259128    0.071900
     10          8           0        1.855908   -2.490520   -0.189643
     11          6           0        1.264418   -0.201561    0.258788
     12          6           0       -0.131143   -0.489067    0.145176
     13          6           0       -1.117427    0.466246    0.323268
     14          6           0       -0.697816    1.809523    0.609173
     15          6           0        0.636155    2.118430    0.709048
     16          6           0        1.670055    1.156696    0.543891
     17          7           0       -2.502618    0.186517    0.272065
     18          6           0       -2.928536   -1.195507    0.065639
     19          6           0       -4.358041   -1.427356    0.591981
     20          6           0       -5.286669   -0.219435    0.331441
     21          6           0       -4.718054    0.644146   -0.794530
     22          6           0       -3.344779    1.201509   -0.401293
     23          1           0        5.685465    1.790503    0.800198
     24          1           0        7.412597    0.043675    0.498167
     25          1           0        6.712056   -2.313669   -0.009289
     26          1           0        4.308640   -2.863275   -0.196746
     27          1           0       -0.379066   -1.513510   -0.093661
     28          1           0       -1.437554    2.585416    0.765357
     29          1           0        0.936761    3.136469    0.932181
     30          1           0       -2.857559   -1.486813   -0.996354
     31          1           0       -2.246743   -1.849210    0.608260
     32          1           0       -4.318617   -1.640188    1.664179
     33          1           0       -4.754537   -2.325562    0.107397
     34          1           0       -6.298205   -0.556797    0.089030
     35          1           0       -5.369744    0.391870    1.236711
     36          1           0       -4.638540    0.050174   -1.711389
     37          1           0       -5.380155    1.484131   -1.023284
     38          1           0       -3.495018    2.049224    0.275794
     39          1           0       -2.833017    1.590722   -1.293725
 ---------------------------------------------------------------------

 SCF Done:  E(UB3LYP) =  -939.950577124     A.U. after    1 cycles

 Alpha  occ. eigenvalues --  -19.01696 -19.01190 -14.30780 -10.18932 -10.18598
 Alpha  occ. eigenvalues --  -10.18556 -10.17120 -10.16476 -10.16249 -10.16004
 Alpha  occ. eigenvalues --  -10.15954 -10.14646 -10.14623 -10.14548 -10.14481
 Alpha  occ. eigenvalues --  -10.14402 -10.14284 -10.13451 -10.13405 -10.13297
 Alpha  occ. eigenvalues --  -10.13218 -10.13115  -0.92878  -0.92687  -0.91916
 Alpha  occ. eigenvalues --   -0.82320  -0.81759  -0.78769  -0.75129  -0.74500
 Alpha  occ. eigenvalues --   -0.71972  -0.71706  -0.70170  -0.64817  -0.63726
 Alpha  occ. eigenvalues --   -0.62225  -0.60020  -0.58034  -0.55686  -0.53328
 Alpha  occ. eigenvalues --   -0.52517  -0.51053  -0.49950  -0.48709  -0.46728
 Alpha  occ. eigenvalues --   -0.45169  -0.43530  -0.42903  -0.42310  -0.41640
 Alpha  occ. eigenvalues --   -0.40736  -0.40246  -0.39643  -0.39540  -0.37771
 Alpha  occ. eigenvalues --   -0.37520  -0.36954  -0.36642  -0.35955  -0.35679
 Alpha  occ. eigenvalues --   -0.35130  -0.34249  -0.32707  -0.32309  -0.31818
 Alpha  occ. eigenvalues --   -0.31741  -0.31065  -0.30833  -0.29862  -0.29184
 Alpha  occ. eigenvalues --   -0.24921  -0.22900  -0.21914  -0.21641  -0.19731
 Alpha  occ. eigenvalues --   -0.19077  -0.18210  -0.10374
 Alpha virt. eigenvalues --   -0.02341  -0.00479   0.00343   0.00804   0.01055
 Alpha virt. eigenvalues --    0.01446   0.01612   0.01961   0.02452   0.02966
 Alpha virt. eigenvalues --    0.03292   0.03896   0.04130   0.04474   0.04890

  Beta  occ. eigenvalues --  -19.01696 -19.01190 -14.30780 -10.18932 -10.18598
  Beta  occ. eigenvalues --  -10.18556 -10.17120 -10.16476 -10.16249 -10.16004
  Beta  occ. eigenvalues --  -10.15954 -10.14646 -10.14623 -10.14548 -10.14481
  Beta  occ. eigenvalues --  -10.14402 -10.14284 -10.13451 -10.13405 -10.13297
  Beta  occ. eigenvalues --  -10.13218 -10.13115  -0.92878  -0.92687  -0.91916
  Beta  occ. eigenvalues --   -0.82320  -0.81759  -0.78769  -0.75129  -0.74500
  Beta  occ. eigenvalues --   -0.71972  -0.71706  -0.70170  -0.64817  -0.63726
  Beta  occ. eigenvalues --   -0.62225  -0.60020  -0.58034  -0.55686  -0.53328
  Beta  occ. eigenvalues --   -0.52517  -0.51053  -0.49950  -0.48709  -0.46728
  Beta  occ. eigenvalues --   -0.45169  -0.43530  -0.42903  -0.42310  -0.41640
  Beta  occ. eigenvalues --   -0.40736  -0.40246  -0.39643  -0.39540  -0.37771
  Beta  occ. eigenvalues --   -0.37520  -0.36954  -0.36642  -0.35955  -0.35679
  Beta  occ. eigenvalues --   -0.35130  -0.34249  -0.32707  -0.32309  -0.31818
  Beta  occ. eigenvalues --   -0.31741  -0.31065  -0.30833  -0.29862  -0.29184
  Beta  occ. eigenvalues --   -0.24921  -0.22900  -0.21914  -0.21641  -0.19731
  Beta  occ. eigenvalues --   -0.19077  -0.18210  -0.10374
  Beta virt. eigenvalues --   -0.02341  -0.00479   0.00343   0.00804   0.01055
  Beta virt. eigenvalues --    0.01446   0.01612   0.01961   0.02452   0.02966
  Beta virt. eigenvalues --    0.03292   0.03896   0.04130   0.04474   0.04890

 Mulliken charges and spin densities:
               1          2
     1  O   -0.672130   0.000000
     2  C   -0.739802  -0.000000
     3  C    0.185974  -0.000000
     4  C   -0.036562   0.000000
     5  C   -0.483966   0.000000
     6  C   -0.520649   0.000000
     7  C   -0.087435   0.000000
     8  C    0.441090  -0.000000
     9  C   -0.585169  -0.000000
    10  O   -0.701056   0.000000
    11  C    0.344558   0.000000
    12  C   -0.102601   0.000000
    13  C   -0.304619  -0.000000
    14  C   -0.164989  -0.000000
    15  C   -0.016568   0.000000
    16  C    0.135437   0.000000
    17  N    0.232834  -0.000000
    18  C   -0.176640  -0.000000
    19  C   -0.411883   0.000000
    20  C   -0.308930   0.000000
    21  C   -0.549938  -0.000000
    22  C   -0.087400   0.000000
    23  H    0.142542   0.000000
    24  H    0.152723   0.000000
    25  H    0.154196  -0.000000
    26  H    0.140775   0.000000
    27  H    0.124956  -0.000000
    28  H    0.171518   0.000000
    29  H    0.161807  -0.000000
    30  H    0.157102   0.000000
    31  H    0.157882  -0.000000
    32  H    0.156376  -0.000000
    33  H    0.143348  -0.000000
    34  H    0.177014  -0.000000
    35  H    0.141237  -0.000000
    36  H    0.145064  -0.000000
    37  H    0.178215   0.000000
    38  H    0.150309   0.000000
    39  H    0.155380  -0.000000
 Sum of Mulliken charges =  -2.00000  -0.00000

 Dipole moment (field-independent basis, Debye):
    X=            -27.7099    Y=             -0.9006    Z=             -4.1169  Tot=             28.0286
 Quadrupole moment (field-independent basis, Debye-Ang):
   XX=           -223.8498   YY=           -189.2898   ZZ=           -147.7454
   XY=            -12.9290   XZ=             -9.6220   YZ=            -10.5290

  Exact polarizability: 695.776 -38.172 446.501  12.620  39.501 239.875
 Approx polarizability: 722.067 -38.910 512.521   8.830  51.082 264.836

                      1                      2                      3
                      A                      A                      A
 Frequencies --     29.8627                30.3889                49.6975
 Red. masses --      3.8113                 2.7617                 3.0986
 Frc consts  --      0.0020                 0.0015                 0.0045
 IR Inten    --      3.8276                 7.7452                 5.9260

                      4                      5                      6
                      A                      A                      A
 Frequencies --     81.4801                93.5292               129.2401
 Red. masses --      4.5479                 4.8519                 3.3504
 Frc consts  --      0.0178                 0.0250                 0.0330
 IR Inten    --     16.0165                 7.3228                 0.3429

                      7                      8                      9
                      A                      A                      A
 Frequencies --    154.3300               175.9084               209.2993
 Red. masses --      3.6696                 8.1066                 4.2293
 Frc consts  --      0.0515                 0.1478                 0.1092
 IR Inten    --      2.7438                10.9203                 6.3436

                     10                     11                     12
                      A                      A                      A
 Frequencies --    217.5661               231.3012               249.2648
 Red. masses --      5.1312                 4.1561                 2.4328
 Frc consts  --      0.1431                 0.1310                 0.0891
 IR Inten    --     10.8094                11.9549                23.7602

                     13                     14                     15
                      A                      A                      A
 Frequencies --    285.8590               296.8117               346.6788
 Red. masses --      5.5677                 2.3832                 4.5002
 Frc consts  --      0.2681                 0.1237                 0.3187
 IR Inten    --      1.3075                 2.3838                19.5982

                     16                     17                     18
                      A                      A                      A
 Frequencies --    364.8968               408.6407               410.8509
 Red. masses --     10.8285                 5.6938                 5.4022
 Frc consts  --      0.8495                 0.5602                 0.5373
 IR Inten    --      3.5645                 5.7656                 4.0676

                     19                     20                     21
                      A                      A                      A
 Frequencies --    425.4849               438.8306               462.4243
 Red. masses --      5.6640                 4.2295                 4.2659
 Frc consts  --      0.6041                 0.4799                 0.5375
 IR Inten    --      1.5884                 6.1033                 3.3579

                     22                     23                     24
                      A                      A                      A
 Frequencies --    482.6032               485.9493               498.8928
 Red. masses --      3.2649                 3.3029                 8.8302
 Frc consts  --      0.4480                 0.4595                 1.2949
 IR Inten    --      1.3952                 1.4458                 2.4355

                     25                     26                     27
                      A                      A                      A
 Frequencies --    533.4095               552.3001               619.9960
 Red. masses --      3.5035                 4.0795                 3.6747
 Frc consts  --      0.5873                 0.7332                 0.8322
 IR Inten    --     11.3952                17.6733                42.3247

                     28                     29                     30
                      A                      A                      A
 Frequencies --    633.1290               653.2650               671.1602
 Red. masses --      6.7667                 3.1853                 4.4671
 Frc consts  --      1.5981                 0.8009                 1.1856
 IR Inten    --     18.2413                45.8594                 2.8130

                     31                     32                     33
                      A                      A                      A
 Frequencies --    692.2274               702.1262               722.3057
 Red. masses --      5.9262                 2.6928                 3.1700
 Frc consts  --      1.6731                 0.7821                 0.9744
 IR Inten    --      8.5037               107.5839                33.2581

                     34                     35                     36
                      A                      A                      A
 Frequencies --    731.4141               770.1830               785.1436
 Red. masses --      4.4955                 1.8940                 1.3771
 Frc consts  --      1.4169                 0.6619                 0.5002
 IR Inten    --      1.8695                28.2168                 9.2504

                     37                     38                     39
                      A                      A                      A
 Frequencies --    788.5203               815.4206               819.3801
 Red. masses --      2.0219                 2.5349                 3.9544
 Frc consts  --      0.7407                 0.9930                 1.5642
 IR Inten    --     16.0740                19.6295                21.1006

                     40                     41                     42
                      A                      A                      A
 Frequencies --    849.1513               851.4824               883.9262
 Red. masses --      1.7781                 3.3948                 1.4741
 Frc consts  --      0.7554                 1.4501                 0.6786
 IR Inten    --      0.2295                10.6107                29.6838

                     43                     44                     45
                      A                      A                      A
 Frequencies --    887.2769               905.7562               923.2940
 Red. masses --      1.5862                 3.7781                 2.5451
 Frc consts  --      0.7357                 1.8262                 1.2783
 IR Inten    --     29.1472               108.0579                 5.5465

                     46                     47                     48
                      A                      A                      A
 Frequencies --    933.7930               970.5595               973.9843
 Red. masses --      4.5953                 1.8488                 1.3257
 Frc consts  --      2.3608                 1.0261                 0.7410
 IR Inten    --      1.5956                 3.1205                 2.5833

                     49                     50                     51
                      A                      A                      A
 Frequencies --    984.3493               985.2337               992.1526
 Red. masses --      1.2535                 1.2871                 2.3175
 Frc consts  --      0.7156                 0.7361                 1.3441
 IR Inten    --      0.8728                 2.7443                32.1511

                     52                     53                     54
                      A                      A                      A
 Frequencies --   1013.2896              1031.4810              1051.5603
 Red. masses --      2.0361                 2.1208                 1.9245
 Frc consts  --      1.2317                 1.3294                 1.2538
 IR Inten    --    142.0732                13.8012                54.6241

                     55                     56                     57
                      A                      A                      A
 Frequencies --   1080.5972              1094.1923              1111.9623
 Red. masses --      3.7580                 1.8102                 1.8460
 Frc consts  --      2.5854                 1.2769                 1.3448
 IR Inten    --    654.2987                43.6059                54.7292

                     58                     59                     60
                      A                      A                      A
 Frequencies --   1122.9006              1134.5144              1145.1152
 Red. masses --      2.1786                 1.7372                 2.3403
 Frc consts  --      1.6185                 1.3174                 1.8081
 IR Inten    --    265.7461               121.1423               169.1872

                     61                     62                     63
                      A                      A                      A
 Frequencies --   1156.6657              1178.0609              1195.0517
 Red. masses --      2.1892                 1.7629                 1.2270
 Frc consts  --      1.7256                 1.4415                 1.0324
 IR Inten    --     51.3959               333.9084                18.7784

                     64                     65                     66
                      A                      A                      A
 Frequencies --   1205.9876              1210.5116              1233.2822
 Red. masses --      2.0511                 1.7315                 2.1234
 Frc consts  --      1.7576                 1.4949                 1.9028
 IR Inten    --    220.9245               326.2287               515.1797

                     67                     68                     69
                      A                      A                      A
 Frequencies --   1247.2844              1257.9072              1288.9241
 Red. masses --      1.7647                 1.9662                 1.3301
 Frc consts  --      1.6175                 1.8331                 1.3019
 IR Inten    --    158.6027               207.1524                18.3614

                     70                     71                     72
                      A                      A                      A
 Frequencies --   1302.1897              1307.1186              1324.3540
 Red. masses --      1.1804                 5.1660                 1.8823
 Frc consts  --      1.1793                 5.2004                 1.9451
 IR Inten    --     30.6019                49.4225               171.2936

                     73                     74                     75
                      A                      A                      A
 Frequencies --   1342.4590              1351.2713              1356.5691
 Red. masses --      3.3367                 1.3523                 2.6365
 Frc consts  --      3.5430                 1.4548                 2.8587
 IR Inten    --   2059.7742                22.4150               640.4645

                     76                     77                     78
                      A                      A                      A
 Frequencies --   1361.3065              1364.8769              1381.5548
 Red. masses --      2.8031                 1.5279                 1.4722
 Frc consts  --      3.0606                 1.6770                 1.6556
 IR Inten    --    202.7525                34.0211                 6.0407

                     79                     80                     81
                      A                      A                      A
 Frequencies --   1389.5657              1411.6631              1439.4012
 Red. masses --      1.3686                 1.4371                 3.3555
 Frc consts  --      1.5570                 1.6873                 4.0961
 IR Inten    --      7.2901               127.9581                96.8218

                     82                     83                     84
                      A                      A                      A
 Frequencies --   1446.0852              1461.3428              1479.9812
 Red. masses --      7.0808                 2.7072                 1.1580
 Frc consts  --      8.7241                 3.4062                 1.4944
 IR Inten    --     62.3499               145.4697                19.0985

                     85                     86                     87
                      A                      A                      A
 Frequencies --   1483.8925              1490.7607              1496.2063
 Red. masses --      2.4928                 1.1209                 1.1184
 Frc consts  --      3.2340                 1.4677                 1.4752
 IR Inten    --    132.7222                 9.3882                12.4650

                     88                     89                     90
                      A                      A                      A
 Frequencies --   1503.5210              1507.3946              1517.0817
 Red. masses --      3.6348                 1.0891                 1.1491
 Frc consts  --      4.8412                 1.4581                 1.5583
 IR Inten    --     38.0126                 2.6926                14.3284

                     91                     92                     93
                      A                      A                      A
 Frequencies --   1524.9154              1574.2727              1602.2131
 Red. masses --      5.0014                 7.7510                 5.1602
 Frc consts  --      6.8523                11.3179                 7.8047
 IR Inten    --     90.2217                 9.4359                46.6846

                     94                     95                     96
                      A                      A                      A
 Frequencies --   1617.8904              2919.3204              2961.8603
 Red. masses --      5.8145                 1.0746                 1.0699
 Frc consts  --      8.9672                 5.3959                 5.5302
 IR Inten    --    482.1313               157.8772               148.1044

                     97                     98                     99
                      A                      A                      A
 Frequencies --   3011.7861              3016.3837              3025.2827
 Red. masses --      1.0806                 1.0694                 1.0698
 Frc consts  --      5.7753                 5.7328                 5.7690
 IR Inten    --     73.5291                 4.7473                65.0521

                    100                    101                    102
                      A                      A                      A
 Frequencies --   3027.0653              3050.6702              3063.7655
 Red. masses --      1.0644                 1.0963                 1.0988
 Frc consts  --      5.7463                 6.0115                 6.0771
 IR Inten    --    109.6013                42.9182               101.6641

                    103                    104                    105
                      A                      A                      A
 Frequencies --   3068.1646              3096.4738              3135.5019
 Red. masses --      1.1044                 1.0870                 1.0844
 Frc consts  --      6.1252                 6.1409                 6.2813
 IR Inten    --    152.9226                35.4958                27.4976

                    106                    107                    108
                      A                      A                      A
 Frequencies --   3151.0685              3162.5781              3168.9507
 Red. masses --      1.0886                 1.0853                 1.0913
 Frc consts  --      6.3684                 6.3958                 6.4570
 IR Inten    --     31.9264                 1.3850                47.1873

                    109                    110                    111
                      A                      A                      A
 Frequencies --   3173.5320              3182.8233              3204.3436
 Red. masses --      1.0936                 1.0928                 1.0873
 Frc consts  --      6.4895                 6.5224                 6.5778
 IR Inten    --     98.8771                65.2538                32.1282

 - Thermochemistry -
 -------------------
 Temperature   298.150 Kelvin.  Pressure   1.00000 Atm.
 Atom     1 has atomic number  8 and mass  15.99491

 Molecular mass:   291.12593 amu.
 Principal axes and moments of inertia in atomic units:
                           1         2         3
     Eigenvalues --  2310.92035********************
           X            0.99910   0.01292  -0.04036
           Y           -0.01838   0.99029  -0.13776
           Z            0.03819   0.13838   0.98964
 This molecule is an asymmetric top.
 Rotational symmetry number  1.
 Warning -- assumption of classical behavior for rotation
           may cause significant error
 Rotational temperatures (Kelvin)      0.03748     0.00650     0.00564
 Rotational constants (GHZ):           0.78096     0.13538     0.11747
 Zero-point vibrational energy     821879.2 (Joules/Mol)
                                  196.43385 (Kcal/Mol)
 Warning -- explicit consideration of  27 degrees of freedom as
           vibrations may cause significant error
 Vibrational temperatures:     42.97    43.72    71.50   117.23   134.57
          (Kelvin)            185.95   222.05   253.09   301.14   313.03
                              332.79   358.64   411.29   427.05   498.79
                              525.01   587.94   591.12   612.18   631.38
                              665.33   694.36   699.17   717.80   767.46
                              794.64   892.04   910.93   939.90   965.65
                              995.96  1010.20  1039.24  1052.34  1108.12
                             1129.65  1134.50  1173.21  1178.91  1221.74
                             1225.09  1271.77  1276.59  1303.18  1328.41
                             1343.52  1396.42  1401.35  1416.26  1417.53
                             1427.49  1457.90  1484.07  1512.96  1554.74
                             1574.30  1599.87  1615.60  1632.31  1647.57
                             1664.18  1694.97  1719.41  1735.15  1741.66
                             1774.42  1794.56  1809.85  1854.47  1873.56
                             1880.65  1905.45  1931.50  1944.18  1951.80
                             1958.62  1963.75  1987.75  1999.28  2031.07
                             2070.98  2080.59  2102.55  2129.36  2134.99
                             2144.87  2152.71  2163.23  2168.80  2182.74
                             2194.01  2265.03  2305.23  2327.78  4200.25
                             4261.46  4333.29  4339.90  4352.71  4355.27
                             4389.23  4408.08  4414.40  4455.14  4511.29
                             4533.68  4550.24  4559.41  4566.00  4579.37
                             4610.34

 Zero-point correction=                           0.313037 (Hartree/Particle)
 Thermal correction to Energy=                    0.330565
 Thermal correction to Enthalpy=                  0.331509
 Thermal correction to Gibbs Free Energy=         0.266774
 Sum of electronic and zero-point Energies=           -939.637540
 Sum of electronic and thermal Energies=              -939.620012
 Sum of electronic and thermal Enthalpies=            -939.619068
 Sum of electronic and thermal Free Energies=         -939.683803

                     E (Thermal)             CV                S
                      KCal/Mol        Cal/Mol-Kelvin    Cal/Mol-Kelvin
 Total                  207.433             71.035            136.247
 Electronic               0.000              0.000              0.000
 Translational            0.889              2.981             42.903
 Rotational               0.889              2.981             34.514
 Vibrational            205.655             65.073             58.830
 Vibration     1          0.594              1.984              5.839
 Vibration     2          0.594              1.984              5.804
 Vibration     3          0.595              1.978              4.829
 Vibration     4          0.600              1.962              3.855
 Vibration     5          0.603              1.954              3.585
 Vibration     6          0.612              1.924              2.957
 Vibration     7          0.620              1.898              2.618
 Vibration     8          0.628              1.872              2.371
 Vibration     9          0.642              1.827              2.050
 Vibration    10          0.646              1.814              1.979
 Vibration    11          0.653              1.793              1.869
 Vibration    12          0.662              1.764              1.736
 Vibration    13          0.684              1.700              1.498
 Vibration    14          0.690              1.680              1.435
 Vibration    15          0.725              1.582              1.181
 Vibration    16          0.738              1.545              1.101
 Vibration    17          0.773              1.451              0.931
 Vibration    18          0.775              1.447              0.924
 Vibration    19          0.787              1.415              0.874
 Vibration    20          0.799              1.386              0.830
 Vibration    21          0.820              1.333              0.759
 Vibration    22          0.839              1.289              0.703
 Vibration    23          0.842              1.281              0.694
 Vibration    24          0.854              1.252              0.661
 Vibration    25          0.888              1.176              0.580
 Vibration    26          0.908              1.135              0.539
 Vibration    27          0.980              0.990              0.417

 Optimization completed.
    -- Stationary point found.
 Normal termination of Gaussian 16 at Sun Feb 11 03:49:52 2024.
