 Q-Chem 5.4, Q-Chem, Inc., Pleasanton, CA (2021)
 Q-Chem 5.4.0 for Intel X86 EM64T Linux

User input:
--------------------------------------------------------------
$molecule
-1 2
C                 -0.9955690000      3.9305460000      0.0208170000
C                 -2.1702460000      3.2147930000      0.1630670000
C                 -2.1456700000      1.8048850000      0.1481470000
C                  0.2421410000      3.2719470000     -0.1385120000
C                  0.2650240000      1.8492300000     -0.1496650000
C                 -0.9418750000      1.1393540000     -0.0079600000
C                  1.4654950000      4.0454350000     -0.2973060000
C                  2.7146590000      3.3079850000     -0.4675020000
C                  2.7278540000      1.9168750000     -0.4067230000
C                  1.5250490000      1.1269560000     -0.3029990000
O                  1.4827670000      5.3103140000     -0.3037600000
O                  1.5836670000     -0.1387620000     -0.3646230000
N                  3.8192900000      4.0845540000     -0.7367660000
H                 -0.9900030000      5.0144650000      0.0253140000
H                 -3.1138620000      3.7386470000      0.2853860000
H                 -3.0687560000      1.2438790000      0.2593140000
H                 -0.8919080000      0.0565720000     -0.0234750000
H                  3.6193240000      5.0635860000     -0.5626250000
H                  4.7038150000      3.7247310000     -0.3872240000
N                  3.8623110000      1.0805080000     -0.5905250000
C                  5.1611860000      1.2099420000     -0.2385360000
C                  6.0127840000     -0.0266290000     -0.4999260000
H                  3.5197820000      0.1340820000     -0.7617370000
H                  5.4363990000     -0.8930740000     -0.8303070000
H                  6.5507760000     -0.2770630000      0.4171520000
H                  6.7580580000      0.2146400000     -1.2628360000
O                  5.6849890000      2.2208430000      0.2413380000
$end
$rem
MAX_SCF_CYCLES=200
BASIS  =  6-311++G(d,p)
GUI  =  2
JOB_TYPE  =  SP
METHOD  =  B3LYP
SOLVENT_METHOD = COSMO
$end
$solvent
dielectric 37.219
opticaldielectric 1.43
$end

--------------------------------------------------------------

             Standard Nuclear Orientation (Angstroms)
    I     Atom           X                Y                Z
 ----------------------------------------------------------------
    1      C       3.2293479972    -0.8917310141     0.1019054403
    2      C       4.2022221324     0.0888765063     0.1676951215
    3      C       3.8368358357     1.4506604882     0.1411546742
    4      C       1.8623052391    -0.5543632768     0.0100276709
    5      C       1.4956713431     0.8203447986    -0.0129718269
    6      C       2.5011518801     1.8029941418     0.0504205740
    7      C       0.8553138822    -1.6030957303    -0.0688575495
    8      C      -0.5424824427    -1.1922288116    -0.1716373584
    9      C      -0.8881200942     0.1558199010    -0.1231140730
   10      C       0.0919519221     1.2142647476    -0.0981358334
   11      O       1.1439270561    -2.8347292655    -0.0625226130
   12      O      -0.2741438733     2.4268556889    -0.1679407083
   13      N      -1.4398120212    -2.2179451341    -0.3677949808
   14      H       3.4861710745    -1.9447038311     0.1167968935
   15      H       5.2497423902    -0.1894090386     0.2387906311
   16      H       4.6016567841     2.2198233883     0.1922521029
   17      H       2.1901958366     2.8412379782     0.0278296224
   18      H      -0.9998558224    -3.1157108184    -0.1967088470
   19      H      -2.3643882092    -2.0735945187     0.0301477904
   20      N      -2.1994482979     0.6899640685    -0.2471865085
   21      C      -3.4070583187     0.2598910905     0.1822793845
   22      C      -4.5453650218     1.2486432244    -0.0397088839
   23      H      -2.1058027024     1.6867589620    -0.4471672101
   24      H      -4.2146221519     2.2204188832    -0.4116758642
   25      H      -5.0764517880     1.3835071510     0.9052478381
   26      H      -5.2511865823     0.8173361697    -0.7548773136
   27      O      -3.6436935231    -0.8359080810     0.7016996636
 ----------------------------------------------------------------

    9    -798.8102758927      9.11e-06  Convergence criterion met
 Total energy in the final basis set =     -798.8102758927
    4    -798.8960815650      9.67e-06  Convergence criterion met
 Total energy in the final basis set =     -798.8960815650

                    Orbital Energies (a.u.)
 --------------------------------------------------------------

 Alpha MOs
 -- Occupied --
-19.1014 -19.0848 -19.0836 -14.3491 -14.3069 -10.2847 -10.2304 -10.2261
-10.2129 -10.2028 -10.1755 -10.1751 -10.1727 -10.1720 -10.1711 -10.1704
-10.1691  -1.0495  -1.0129  -1.0095  -0.9380  -0.9056  -0.8593  -0.7950
 -0.7530  -0.7515  -0.7189  -0.6784  -0.6348  -0.6190  -0.5853  -0.5664
 -0.5382  -0.5177  -0.5052  -0.4890  -0.4777  -0.4574  -0.4522  -0.4423
 -0.4322  -0.4252  -0.4211  -0.4194  -0.4170  -0.4002  -0.3907  -0.3870
 -0.3779  -0.3599  -0.3555  -0.3397  -0.3296  -0.3028  -0.2760  -0.2667
 -0.2610  -0.2594  -0.2509  -0.2093  -0.1519

 Beta MOs
 -- Occupied --
-19.1013 -19.0791 -19.0784 -14.3491 -14.3059 -10.2846 -10.2285 -10.2235
-10.2115 -10.2028 -10.1749 -10.1743 -10.1724 -10.1715 -10.1710 -10.1701
-10.1691  -1.0493  -1.0048  -0.9991  -0.9367  -0.9028  -0.8571  -0.7912
 -0.7511  -0.7500  -0.7176  -0.6705  -0.6327  -0.6170  -0.5832  -0.5643
 -0.5362  -0.5168  -0.5033  -0.4882  -0.4745  -0.4562  -0.4516  -0.4400
 -0.4269  -0.4234  -0.4188  -0.4136  -0.4115  -0.3985  -0.3863  -0.3782
 -0.3658  -0.3563  -0.3519  -0.3385  -0.3147  -0.2980  -0.2753  -0.2564
 -0.2520  -0.2503  -0.2456  -0.2017

          Ground-State Mulliken Net Atomic Charges

     Atom                 Charge (a.u.)    Spin (a.u.)
  --------------------------------------------------------
      1 C                     0.136717       0.061120
      2 C                    -0.367723       0.017353
      3 C                    -0.438245       0.061702
      4 C                     0.388875       0.009275
      5 C                    -0.041872       0.055211
      6 C                     0.090440       0.025364
      7 C                    -0.619996       0.173444
      8 C                     0.354488       0.059062
      9 C                     0.431048      -0.008704
     10 C                    -0.821757       0.111256
     11 O                    -0.519807       0.232946
     12 O                    -0.513469       0.165826
     13 N                    -0.472537       0.052196
     14 H                     0.179670      -0.003340
     15 H                     0.199638      -0.001672
     16 H                     0.202315      -0.004487
     17 H                     0.179812      -0.000381
     18 H                     0.308090      -0.002710
     19 H                     0.304921      -0.000030
     20 N                    -0.047643      -0.003297
     21 C                     0.293831      -0.001550
     22 C                    -0.618983       0.000932
     23 H                     0.359647      -0.001936
     24 H                     0.148404       0.000220
     25 H                     0.188453       0.000116
     26 H                     0.195160       0.000215
     27 O                    -0.499479       0.001868
  --------------------------------------------------------
  Sum of atomic charges =    -1.000000

                    Cartesian Multipole Moments
 -----------------------------------------------------------------
    Charge (ESU x 10^10)
                -4.8032
    Dipole Moment (Debye)
         X      -0.7853      Y       3.9448      Z      -0.3782
       Tot       4.0400
    Quadrupole Moments (Debye-Ang)
        XX    -106.1959     XY      -2.4382     YY    -129.6341
        XZ       5.4299     YZ      -0.1477     ZZ    -107.4306

 Total job time:  83.57s(wall), 568.15s(cpu)
        *  Thank you very much for using Q-Chem.  Have a nice day.  *
