 Gaussian 16, Revision A.03,
 Gaussian 16:  ES64L-G16RevA.03 25-Dec-2016

 --------------------------------------
 #P UB3LYP/6-311++G(d,p) nosym opt freq
 --------------------------------------

 -------
 Radical
 -------
 Symbolic Z-matrix:
 Charge = -1 Multiplicity = 2

 SCF Done:  E(UB3LYP) =  -798.810200342     A.U. after   21 cycles
 Optimization completed.
    -- Stationary point found.
 Normal termination of Gaussian 16 at Mon Jan  8 01:26:59 2024.

 ----------------------------------------------------------------------
 #P Geom=AllCheck Guess=TCheck SCRF=Check GenChk UB3LYP/6-311++G(d,p) F
 req
 ----------------------------------------------------------------------

 Structure from the checkpoint file:  "271-rad.chk"
 -------
 Radical
 -------
 Charge = -1 Multiplicity = 2

                          Input orientation:
 ---------------------------------------------------------------------
 Center     Atomic      Atomic             Coordinates (Angstroms)
 Number     Number       Type             X           Y           Z
 ---------------------------------------------------------------------
      1          6           0       -0.995569    3.930546    0.020817
      2          6           0       -2.170246    3.214793    0.163067
      3          6           0       -2.145670    1.804885    0.148147
      4          6           0        0.242141    3.271947   -0.138512
      5          6           0        0.265024    1.849230   -0.149665
      6          6           0       -0.941875    1.139354   -0.007960
      7          6           0        1.465495    4.045435   -0.297306
      8          6           0        2.714659    3.307985   -0.467502
      9          6           0        2.727854    1.916875   -0.406723
     10          6           0        1.525049    1.126956   -0.302999
     11          8           0        1.482767    5.310314   -0.303760
     12          8           0        1.583667   -0.138762   -0.364623
     13          7           0        3.819290    4.084554   -0.736766
     14          1           0       -0.990003    5.014465    0.025314
     15          1           0       -3.113862    3.738647    0.285386
     16          1           0       -3.068756    1.243879    0.259314
     17          1           0       -0.891908    0.056572   -0.023475
     18          1           0        3.619324    5.063586   -0.562625
     19          1           0        4.703815    3.724731   -0.387224
     20          7           0        3.862311    1.080508   -0.590525
     21          6           0        5.161186    1.209942   -0.238536
     22          6           0        6.012784   -0.026629   -0.499926
     23          1           0        3.519782    0.134082   -0.761737
     24          1           0        5.436399   -0.893074   -0.830307
     25          1           0        6.550776   -0.277063    0.417152
     26          1           0        6.758058    0.214640   -1.262836
     27          8           0        5.684989    2.220843    0.241338
 ---------------------------------------------------------------------

 SCF Done:  E(UB3LYP) =  -798.810200342     A.U. after    2 cycles

 Alpha  occ. eigenvalues --  -18.98294 -18.95092 -18.95010 -14.23330 -14.18176
 Alpha  occ. eigenvalues --  -10.17080 -10.10023 -10.09363 -10.08582 -10.08223
 Alpha  occ. eigenvalues --  -10.07606 -10.05777 -10.05681 -10.05212 -10.05107
 Alpha  occ. eigenvalues --  -10.05079 -10.05032  -0.93147  -0.88038  -0.87480
 Alpha  occ. eigenvalues --   -0.81800  -0.78011  -0.73726  -0.67321  -0.64720
 Alpha  occ. eigenvalues --   -0.63109  -0.60575  -0.55479  -0.51718  -0.49765
 Alpha  occ. eigenvalues --   -0.46364  -0.44526  -0.41915  -0.39848  -0.38416
 Alpha  occ. eigenvalues --   -0.37990  -0.35399  -0.35162  -0.33118  -0.32800
 Alpha  occ. eigenvalues --   -0.30996  -0.30798  -0.30245  -0.30114  -0.29647
 Alpha  occ. eigenvalues --   -0.28143  -0.27214  -0.26431  -0.25354  -0.24053
 Alpha  occ. eigenvalues --   -0.23564  -0.21878  -0.20029  -0.17951  -0.15855
 Alpha  occ. eigenvalues --   -0.14135  -0.13648  -0.12686  -0.11680  -0.08388
 Alpha  occ. eigenvalues --   -0.02086
 Alpha virt. eigenvalues --    0.07455   0.08284   0.08396   0.09940   0.10182
 Alpha virt. eigenvalues --    0.11095   0.11225   0.11401   0.12578   0.12861
 Alpha virt. eigenvalues --    0.13711   0.14206   0.15195   0.15816   0.16312

  Beta  occ. eigenvalues --  -18.98289 -18.94618 -18.94311 -14.23332 -14.18085
  Beta  occ. eigenvalues --  -10.17078 -10.09862 -10.09152 -10.08430 -10.08223
  Beta  occ. eigenvalues --  -10.07620 -10.05745 -10.05603 -10.05235 -10.05081
  Beta  occ. eigenvalues --  -10.04995 -10.04948  -0.93134  -0.87285  -0.86329
  Beta  occ. eigenvalues --   -0.81659  -0.77709  -0.73512  -0.66997  -0.64591
  Beta  occ. eigenvalues --   -0.62903  -0.60432  -0.54738  -0.51469  -0.49582
  Beta  occ. eigenvalues --   -0.46158  -0.44329  -0.41739  -0.39763  -0.38237
  Beta  occ. eigenvalues --   -0.37924  -0.35346  -0.34867  -0.33059  -0.32662
  Beta  occ. eigenvalues --   -0.30755  -0.30564  -0.30114  -0.29994  -0.29085
  Beta  occ. eigenvalues --   -0.27512  -0.26726  -0.26101  -0.24053  -0.23186
  Beta  occ. eigenvalues --   -0.22939  -0.21698  -0.18704  -0.17317  -0.15787
  Beta  occ. eigenvalues --   -0.12923  -0.12261  -0.12177  -0.11072  -0.07585
  Beta virt. eigenvalues --    0.04286   0.07455   0.08275   0.09000   0.10171
  Beta virt. eigenvalues --    0.10356   0.11184   0.11229   0.11863   0.12593
  Beta virt. eigenvalues --    0.12863   0.14070   0.14239   0.15245   0.15844

 Mulliken charges and spin densities:
               1          2
     1  C    0.106017   0.047557
     2  C   -0.259032   0.023711
     3  C   -0.339311   0.066502
     4  C    0.523033   0.030613
     5  C    0.090989   0.071539
     6  C    0.064846   0.016116
     7  C   -0.887246   0.129766
     8  C    0.384854   0.068483
     9  C    0.569655  -0.008517
    10  C   -1.072291   0.086868
    11  O   -0.406553   0.259724
    12  O   -0.410238   0.176189
    13  N   -0.411401   0.050000
    14  H    0.155348  -0.003079
    15  H    0.119703  -0.002089
    16  H    0.122161  -0.005043
    17  H    0.154225  -0.000021
    18  H    0.275787  -0.003203
    19  H    0.279993   0.000187
    20  N   -0.031487  -0.004187
    21  C    0.204360  -0.002200
    22  C   -0.577822   0.001315
    23  H    0.326256  -0.002585
    24  H    0.115810   0.000383
    25  H    0.156939   0.000183
    26  H    0.159001   0.000344
    27  O   -0.413596   0.001447
 Sum of Mulliken charges =  -1.00000   1.00000

 Dipole moment (field-independent basis, Debye):
    X=             -8.5313    Y=            -13.7227    Z=              0.8089  Tot=             16.1787
 Quadrupole moment (field-independent basis, Debye-Ang):
   XX=           -139.8002   YY=           -164.6790   ZZ=           -107.2952
   XY=            -28.3914   XZ=             -1.3499   YZ=              3.8946

  Exact polarizability: 298.678 -11.679 218.558 -15.082   0.822 102.204
 Approx polarizability: 421.209  16.245 399.302 -19.156   1.409 161.207

                      1                      2                      3
                      A                      A                      A
 Frequencies --     49.6639                68.8580                93.2494
 Red. masses --      5.7922                 3.6068                 1.2157
 Frc consts  --      0.0084                 0.0101                 0.0062
 IR Inten    --      0.9379                 4.5549                 1.1278

                      4                      5                      6
                      A                      A                      A
 Frequencies --     99.9840               128.4629               149.5357
 Red. masses --      6.0385                 4.0922                 5.3291
 Frc consts  --      0.0356                 0.0398                 0.0702
 IR Inten    --      3.8935                 1.9050                 2.1616

                      7                      8                      9
                      A                      A                      A
 Frequencies --    183.7798               203.3530               261.3849
 Red. masses --      6.6462                 5.6143                 6.3641
 Frc consts  --      0.1323                 0.1368                 0.2562
 IR Inten    --      1.0715                 5.8202                 5.5542

                     10                     11                     12
                      A                      A                      A
 Frequencies --    282.3814               309.9228               335.8878
 Red. masses --      5.8173                 4.8636                 5.2083
 Frc consts  --      0.2733                 0.2752                 0.3462
 IR Inten    --      3.2935                 0.2699                 2.6929

                     13                     14                     15
                      A                      A                      A
 Frequencies --    374.2757               388.1659               422.3817
 Red. masses --      3.9806                 9.9752                 7.3816
 Frc consts  --      0.3285                 0.8855                 0.7759
 IR Inten    --      2.9744                12.1588                 1.1046

                     16                     17                     18
                      A                      A                      A
 Frequencies --    426.8735               458.2169               483.7302
 Red. masses --      6.8461                 3.5252                 6.2410
 Frc consts  --      0.7350                 0.4361                 0.8604
 IR Inten    --      0.5552                 1.7569                14.2418

                     19                     20                     21
                      A                      A                      A
 Frequencies --    522.0279               550.5386               591.3939
 Red. masses --      6.3927                 4.5363                 2.9959
 Frc consts  --      1.0264                 0.8101                 0.6173
 IR Inten    --      9.8862                 2.5808                38.4856

                     22                     23                     24
                      A                      A                      A
 Frequencies --    605.3632               620.7115               665.7344
 Red. masses --      2.3072                 1.5914                 5.8051
 Frc consts  --      0.4982                 0.3612                 1.5159
 IR Inten    --     10.6980                 3.1747                13.6970

                     25                     26                     27
                      A                      A                      A
 Frequencies --    686.0894               701.2576               707.1504
 Red. masses --      5.0237                 3.0752                 3.7697
 Frc consts  --      1.3933                 0.8910                 1.1107
 IR Inten    --      3.4180                80.1497                25.4942

                     28                     29                     30
                      A                      A                      A
 Frequencies --    732.5261               746.2133               767.5791
 Red. masses --      4.3303                 1.3214                 1.9744
 Frc consts  --      1.3690                 0.4335                 0.6854
 IR Inten    --      5.3356               249.3498                70.4479

                     31                     32                     33
                      A                      A                      A
 Frequencies --    777.8513               780.0022               862.1169
 Red. masses --      2.4538                 1.9137                 1.4100
 Frc consts  --      0.8747                 0.6860                 0.6175
 IR Inten    --     17.6160                22.8264                 0.1411

                     34                     35                     36
                      A                      A                      A
 Frequencies --    865.8048               924.3414               972.0629
 Red. masses --      5.5975                 3.5875                 1.3571
 Frc consts  --      2.4722                 1.8060                 0.7555
 IR Inten    --      3.0388                19.6765                 2.6956

                     37                     38                     39
                      A                      A                      A
 Frequencies --    975.4945               998.7322              1023.3083
 Red. masses --      1.2599                 3.5133                 2.5676
 Frc consts  --      0.7064                 2.0647                 1.5841
 IR Inten    --      0.2427                20.8726                21.8074

                     40                     41                     42
                      A                      A                      A
 Frequencies --   1043.0377              1052.5871              1074.7911
 Red. masses --      1.7963                 1.7304                 2.9751
 Frc consts  --      1.1514                 1.1296                 2.0249
 IR Inten    --     13.9067                 7.2401                 3.5225

                     43                     44                     45
                      A                      A                      A
 Frequencies --   1111.9510              1153.7488              1188.4968
 Red. masses --      1.9045                 1.2331                 3.2506
 Frc consts  --      1.3874                 0.9671                 2.7053
 IR Inten    --     15.5977                 2.8417                 5.6207

                     46                     47                     48
                      A                      A                      A
 Frequencies --   1214.1577              1235.8995              1265.4768
 Red. masses --      2.3061                 2.4121                 2.8211
 Frc consts  --      2.0030                 2.1707                 2.6618
 IR Inten    --     10.4829                10.7436                24.8538

                     49                     50                     51
                      A                      A                      A
 Frequencies --   1302.5316              1325.1389              1357.4647
 Red. masses --      2.0882                 2.3979                 9.5597
 Frc consts  --      2.0874                 2.4809                10.3789
 IR Inten    --     31.0872                31.4198                23.0622

                     52                     53                     54
                      A                      A                      A
 Frequencies --   1393.3760              1422.0097              1466.0454
 Red. masses --      1.2862                 2.8353                 3.2643
 Frc consts  --      1.4713                 3.3780                 4.1336
 IR Inten    --     20.4253                93.9273               158.2552

                     55                     56                     57
                      A                      A                      A
 Frequencies --   1470.4208              1473.0896              1486.9029
 Red. masses --      2.6854                 1.1095                 1.1249
 Frc consts  --      3.4209                 1.4185                 1.4653
 IR Inten    --    126.5842                28.9398                50.4748

                     58                     59                     60
                      A                      A                      A
 Frequencies --   1512.0227              1527.4928              1557.2117
 Red. masses --      5.0467                 6.4521                 3.2935
 Frc consts  --      6.7978                 8.8697                 4.7054
 IR Inten    --    495.7145                63.8010               227.2637

                     61                     62                     63
                      A                      A                      A
 Frequencies --   1564.7869              1601.2050              1619.7028
 Red. masses --      2.7178                 2.4487                 5.8622
 Frc consts  --      3.9209                 3.6990                 9.0611
 IR Inten    --    313.2749                 2.4918                23.8156

                     64                     65                     66
                      A                      A                      A
 Frequencies --   1639.0368              1693.2266              3031.9440
 Red. masses --      2.3028                 5.0121                 1.0343
 Frc consts  --      3.6449                 8.4665                 5.6018
 IR Inten    --    138.7152               329.8490                38.1869

                     67                     68                     69
                      A                      A                      A
 Frequencies --   3095.1265              3110.2832              3134.0288
 Red. masses --      1.1001                 1.1039                 1.0846
 Frc consts  --      6.2094                 6.2917                 6.2767
 IR Inten    --     15.5168                23.3788                15.7889

                     70                     71                     72
                      A                      A                      A
 Frequencies --   3153.2932              3181.6075              3184.2557
 Red. masses --      1.0910                 1.0914                 1.0930
 Frc consts  --      6.3916                 6.5093                 6.5293
 IR Inten    --     50.0159                12.7991                26.4579

                     73                     74                     75
                      A                      A                      A
 Frequencies --   3433.8488              3443.5622              3574.4108
 Red. masses --      1.0682                 1.0577                 1.0965
 Frc consts  --      7.4212                 7.3898                 8.2542
 IR Inten    --     22.4766               192.6659                99.5563

 - Thermochemistry -
 -------------------
 Temperature   298.150 Kelvin.  Pressure   1.00000 Atm.
 Atom     1 has atomic number  6 and mass  12.00000

 Molecular mass:   230.06914 amu.
 Principal axes and moments of inertia in atomic units:
                           1         2         3
     Eigenvalues --  1917.009695576.066077386.61486
           X            0.97071   0.23354   0.05635
           Y           -0.23448   0.97206   0.01058
           Z           -0.05231  -0.02348   0.99836
 This molecule is an asymmetric top.
 Rotational symmetry number  1.
 Warning -- assumption of classical behavior for rotation
           may cause significant error
 Rotational temperatures (Kelvin)      0.04518     0.01553     0.01173
 Rotational constants (GHZ):           0.94144     0.32366     0.24433
 Zero-point vibrational energy     531683.7 (Joules/Mol)
                                  127.07546 (Kcal/Mol)
 Warning -- explicit consideration of  23 degrees of freedom as
           vibrations may cause significant error
 Vibrational temperatures:     71.46    99.07   134.17   143.85   184.83
          (Kelvin)            215.15   264.42   292.58   376.07   406.28
                              445.91   483.27   538.50   558.48   607.71
                              614.18   659.27   695.98   751.08   792.10
                              850.88   870.98   893.07   957.84   987.13
                             1008.95  1017.43  1053.94  1073.63  1104.38
                             1119.15  1122.25  1240.39  1245.70  1329.92
                             1398.58  1403.52  1436.95  1472.31  1500.70
                             1514.44  1546.38  1599.85  1659.99  1709.98
                             1746.90  1778.18  1820.74  1874.05  1906.58
                             1953.09  2004.76  2045.95  2109.31  2115.61
                             2119.45  2139.32  2175.46  2197.72  2240.48
                             2251.38  2303.78  2330.39  2358.21  2436.18
                             4362.29  4453.20  4475.00  4509.17  4536.89
                             4577.62  4581.43  4940.54  4954.52  5142.78

 Zero-point correction=                           0.202508 (Hartree/Particle)
 Thermal correction to Energy=                    0.216744
 Thermal correction to Enthalpy=                  0.217688
 Thermal correction to Gibbs Free Energy=         0.160685
 Sum of electronic and zero-point Energies=           -798.607693
 Sum of electronic and thermal Energies=              -798.593456
 Sum of electronic and thermal Enthalpies=            -798.592512
 Sum of electronic and thermal Free Energies=         -798.649516

                     E (Thermal)             CV                S
                      KCal/Mol        Cal/Mol-Kelvin    Cal/Mol-Kelvin
 Total                  136.009             55.632            119.974
 Electronic               0.000              0.000              1.377
 Translational            0.889              2.981             42.202
 Rotational               0.889              2.981             32.735
 Vibrational            134.232             49.670             43.661
 Vibration     1          0.595              1.978              4.831
 Vibration     2          0.598              1.969              4.186
 Vibration     3          0.602              1.954              3.591
 Vibration     4          0.604              1.949              3.455
 Vibration     5          0.611              1.925              2.969
 Vibration     6          0.618              1.903              2.678
 Vibration     7          0.631              1.862              2.290
 Vibration     8          0.639              1.835              2.103
 Vibration     9          0.669              1.743              1.653
 Vibration    10          0.681              1.706              1.519
 Vibration    11          0.699              1.655              1.363
 Vibration    12          0.717              1.604              1.232
 Vibration    13          0.745              1.525              1.062
 Vibration    14          0.756              1.495              1.007
 Vibration    15          0.785              1.422              0.884
 Vibration    16          0.789              1.412              0.869
 Vibration    17          0.816              1.343              0.771
 Vibration    18          0.840              1.286              0.700
 Vibration    19          0.877              1.201              0.605
 Vibration    20          0.906              1.139              0.543
 Vibration    21          0.949              1.050              0.465
 Vibration    22          0.964              1.020              0.441
 Vibration    23          0.981              0.988              0.415

 Optimization completed.
    -- Stationary point found.
 Normal termination of Gaussian 16 at Mon Jan  8 02:12:31 2024.
