 Gaussian 16, Revision A.03,
 Gaussian 16:  ES64L-G16RevA.03 25-Dec-2016

 --------------------------------------
 #P UB3LYP/6-311++G(d,p) nosym opt freq
 --------------------------------------

 --------
 Oxidized
 --------
 Symbolic Z-matrix:
 Charge =  0 Multiplicity = 1

 SCF Done:  E(UB3LYP) =  -921.275646881     A.U. after   15 cycles
 SCF Done:  E(UB3LYP) =  -921.280835837     A.U. after   13 cycles
 SCF Done:  E(UB3LYP) =  -921.281127492     A.U. after   13 cycles
 SCF Done:  E(UB3LYP) =  -921.281269634     A.U. after   13 cycles
 SCF Done:  E(UB3LYP) =  -921.281354706     A.U. after   13 cycles
 SCF Done:  E(UB3LYP) =  -921.281438190     A.U. after   12 cycles
 SCF Done:  E(UB3LYP) =  -921.281439134     A.U. after   11 cycles
 SCF Done:  E(UB3LYP) =  -921.281443328     A.U. after   10 cycles
 SCF Done:  E(UB3LYP) =  -921.281418574     A.U. after   12 cycles
 SCF Done:  E(UB3LYP) =  -921.281423740     A.U. after   12 cycles
 SCF Done:  E(UB3LYP) =  -921.281442365     A.U. after   13 cycles
 Optimization completed.
    -- Stationary point found.
 Normal termination of Gaussian 16 at Thu Dec 21 06:44:38 2023.

 ----------------------------------------------------------------------
 #P Geom=AllCheck Guess=TCheck SCRF=Check GenChk UB3LYP/6-311++G(d,p) F
 req
 ----------------------------------------------------------------------

 Structure from the checkpoint file:  "134.chk"
 --------
 Oxidized
 --------
 Charge =  0 Multiplicity = 1

                          Input orientation:
 ---------------------------------------------------------------------
 Center     Atomic      Atomic             Coordinates (Angstroms)
 Number     Number       Type             X           Y           Z
 ---------------------------------------------------------------------
      1          6           0        7.123144   -1.826639   -0.587460
      2          6           0        7.639249   -0.793580   -1.443310
      3          6           0        6.796370    0.287228   -1.856468
      4          6           0        5.491878    0.307754   -1.429076
      5          6           0        4.959771   -0.696141   -0.593870
      6          6           0        5.748807   -1.762120   -0.154908
      7          6           0        5.139647   -2.781005    0.755722
      8          6           0        3.681009   -2.662827    1.083450
      9          6           0        2.902361   -1.594819    0.620467
     10          6           0        3.517190   -0.543862   -0.226070
     11          6           0        3.091635   -3.646566    1.884141
     12          6           0        1.742949   -3.565242    2.211633
     13          6           0        0.968881   -2.497605    1.748229
     14          6           0        1.547522   -1.513512    0.956198
     15          8           0        5.771820   -3.704366    1.249432
     16          8           0        2.867224    0.413515   -0.617394
     17          1           0        4.825995    1.108166   -1.726638
     18          1           0        3.707847   -4.463321    2.237810
     19          1           0        0.972033   -0.674040    0.586149
     20          6           0        7.310945    1.389603   -2.746595
     21          1           0       -0.082112   -2.436616    2.007047
     22          6           0        8.990122   -0.857380   -1.874192
     23          6           0        8.017598   -2.873926   -0.223715
     24          6           0        9.317082   -2.895060   -0.667688
     25          6           0        9.835677   -1.880063   -1.506023
     26          6           0       11.268067   -1.935954   -1.970146
     27          1           0        1.291381   -4.332941    2.829894
     28          1           0        8.151660    1.918159   -2.286602
     29          1           0        6.524244    2.118148   -2.945199
     30          1           0        7.659930    1.000040   -3.708076
     31          1           0        9.368829   -0.073229   -2.517922
     32          1           0        7.659691   -3.661923    0.417209
     33          1           0        9.962833   -3.714113   -0.366126
     34          1           0       11.514904   -1.088656   -2.612540
     35          1           0       11.463047   -2.855144   -2.531674
     36          1           0       11.956441   -1.927503   -1.119031
 ---------------------------------------------------------------------

 SCF Done:  E(UB3LYP) =  -921.281442365     A.U. after    1 cycles

 Alpha  occ. eigenvalues --  -19.12268 -19.12117 -10.27723 -10.27385 -10.20975
 Alpha  occ. eigenvalues --  -10.20582 -10.20519 -10.20465 -10.20405 -10.20249
 Alpha  occ. eigenvalues --  -10.20126 -10.19821 -10.19793 -10.19762 -10.19506
 Alpha  occ. eigenvalues --  -10.19387 -10.18460 -10.18334 -10.18298 -10.18129
 Alpha  occ. eigenvalues --  -10.17917 -10.17834  -1.05780  -1.05585  -0.89720
 Alpha  occ. eigenvalues --   -0.88508  -0.85168  -0.81942  -0.79338  -0.77530
 Alpha  occ. eigenvalues --   -0.77482  -0.75001  -0.72418  -0.70575  -0.67740
 Alpha  occ. eigenvalues --   -0.64911  -0.63785  -0.62386  -0.60418  -0.58238
 Alpha  occ. eigenvalues --   -0.55599  -0.54268  -0.52018  -0.50702  -0.49640
 Alpha  occ. eigenvalues --   -0.48087  -0.46997  -0.45757  -0.45557  -0.45250
 Alpha  occ. eigenvalues --   -0.44931  -0.44691  -0.43808  -0.43452  -0.43198
 Alpha  occ. eigenvalues --   -0.42767  -0.41395  -0.41097  -0.40325  -0.39525
 Alpha  occ. eigenvalues --   -0.39058  -0.38905  -0.37708  -0.37081  -0.36728
 Alpha  occ. eigenvalues --   -0.35611  -0.34996  -0.33180  -0.29349  -0.28107
 Alpha  occ. eigenvalues --   -0.27679  -0.27494  -0.26305  -0.25855  -0.23594
 Alpha virt. eigenvalues --   -0.11627  -0.06693  -0.05023  -0.02979  -0.01325
 Alpha virt. eigenvalues --   -0.00580  -0.00550   0.00069   0.01100   0.01514
 Alpha virt. eigenvalues --    0.01877   0.02329   0.02627   0.03308   0.03361

  Beta  occ. eigenvalues --  -19.12268 -19.12117 -10.27723 -10.27385 -10.20975
  Beta  occ. eigenvalues --  -10.20582 -10.20519 -10.20465 -10.20405 -10.20249
  Beta  occ. eigenvalues --  -10.20126 -10.19821 -10.19793 -10.19762 -10.19506
  Beta  occ. eigenvalues --  -10.19387 -10.18460 -10.18334 -10.18298 -10.18129
  Beta  occ. eigenvalues --  -10.17917 -10.17834  -1.05780  -1.05585  -0.89720
  Beta  occ. eigenvalues --   -0.88508  -0.85168  -0.81942  -0.79338  -0.77530
  Beta  occ. eigenvalues --   -0.77482  -0.75001  -0.72418  -0.70575  -0.67740
  Beta  occ. eigenvalues --   -0.64911  -0.63785  -0.62386  -0.60418  -0.58238
  Beta  occ. eigenvalues --   -0.55599  -0.54268  -0.52018  -0.50702  -0.49640
  Beta  occ. eigenvalues --   -0.48087  -0.46997  -0.45757  -0.45557  -0.45250
  Beta  occ. eigenvalues --   -0.44931  -0.44691  -0.43808  -0.43452  -0.43198
  Beta  occ. eigenvalues --   -0.42767  -0.41395  -0.41097  -0.40325  -0.39525
  Beta  occ. eigenvalues --   -0.39058  -0.38905  -0.37708  -0.37081  -0.36728
  Beta  occ. eigenvalues --   -0.35611  -0.34996  -0.33180  -0.29349  -0.28107
  Beta  occ. eigenvalues --   -0.27679  -0.27494  -0.26305  -0.25855  -0.23594
  Beta virt. eigenvalues --   -0.11627  -0.06693  -0.05023  -0.02979  -0.01325
  Beta virt. eigenvalues --   -0.00580  -0.00550   0.00069   0.01100   0.01514
  Beta virt. eigenvalues --    0.01877   0.02329   0.02627   0.03308   0.03361

 Mulliken charges and spin densities:
               1          2
     1  C    0.805918   0.000000
     2  C    0.211602   0.000000
     3  C    0.595486   0.000000
     4  C   -0.059872  -0.000000
     5  C    0.531195  -0.000000
     6  C    0.724777   0.000000
     7  C   -1.166591  -0.000000
     8  C   -0.187542   0.000000
     9  C    0.245833   0.000000
    10  C   -0.718330   0.000000
    11  C    0.127622   0.000000
    12  C   -0.419321   0.000000
    13  C   -0.393583   0.000000
    14  C    0.004628  -0.000000
    15  O   -0.178910  -0.000000
    16  O   -0.196543  -0.000000
    17  H    0.127174   0.000000
    18  H    0.179377   0.000000
    19  H    0.178407  -0.000000
    20  C   -0.342626  -0.000000
    21  H    0.175154  -0.000000
    22  C   -0.885620   0.000000
    23  C   -0.541807  -0.000000
    24  C   -0.468212  -0.000000
    25  C    0.265501  -0.000000
    26  C   -0.163834  -0.000000
    27  H    0.175788   0.000000
    28  H    0.165093  -0.000000
    29  H    0.182601  -0.000000
    30  H    0.163207  -0.000000
    31  H    0.039979   0.000000
    32  H    0.150218  -0.000000
    33  H    0.182926   0.000000
    34  H    0.165988  -0.000000
    35  H    0.160928   0.000000
    36  H    0.163391   0.000000
 Sum of Mulliken charges =  -0.00000  -0.00000

 Dipole moment (field-independent basis, Debye):
    X=              1.5170    Y=             -0.1125    Z=             -0.7624  Tot=              1.7016
 Quadrupole moment (field-independent basis, Debye-Ang):
   XX=            -90.3291   YY=           -127.6689   ZZ=           -123.9777
   XY=              6.4067   XZ=            -18.4825   YZ=             -3.5008

  Exact polarizability: 364.212 -12.856 229.155 -71.965 -68.236 185.282
 Approx polarizability: 543.676 -70.542 428.833 -67.068-130.068 301.914

                      1                      2                      3
                      A                      A                      A
 Frequencies --     16.5131                39.1220                70.1903
 Red. masses --      7.4890                 5.1923                 4.1727
 Frc consts  --      0.0012                 0.0047                 0.0121
 IR Inten    --      3.8315                 0.9599                 0.5414

                      4                      5                      6
                      A                      A                      A
 Frequencies --     89.5779               109.6982               134.9773
 Red. masses --      1.0575                 4.6594                 4.3613
 Frc consts  --      0.0050                 0.0330                 0.0468
 IR Inten    --      0.6095                 0.0424                 0.0628

                      7                      8                      9
                      A                      A                      A
 Frequencies --    152.1908               162.9534               180.6750
 Red. masses --      4.6573                 2.8184                 2.1164
 Frc consts  --      0.0636                 0.0441                 0.0407
 IR Inten    --      0.9721                 2.3890                 0.6393

                     10                     11                     12
                      A                      A                      A
 Frequencies --    202.6239               237.8057               262.6155
 Red. masses --      1.6912                 3.2228                 4.2293
 Frc consts  --      0.0409                 0.1074                 0.1719
 IR Inten    --      0.8277                 0.3868                 0.8816

                     13                     14                     15
                      A                      A                      A
 Frequencies --    279.9739               288.2462               348.2697
 Red. masses --      5.9124                 4.7080                 8.2009
 Frc consts  --      0.2731                 0.2305                 0.5861
 IR Inten    --      0.2099                 0.2771                 0.7408

                     16                     17                     18
                      A                      A                      A
 Frequencies --    349.8127               372.2304               404.5715
 Red. masses --      4.5983                 3.3956                11.2807
 Frc consts  --      0.3315                 0.2772                 1.0879
 IR Inten    --      0.0777                 0.7790                23.6653

                     19                     20                     21
                      A                      A                      A
 Frequencies --    421.3708               431.8785               455.0376
 Red. masses --      3.4723                 3.4663                 4.5091
 Frc consts  --      0.3632                 0.3809                 0.5501
 IR Inten    --      2.7160                 1.3598                 0.2008

                     22                     23                     24
                      A                      A                      A
 Frequencies --    474.1942               488.7129               514.5657
 Red. masses --     10.6452                 5.9867                 4.7892
 Frc consts  --      1.4103                 0.8425                 0.7471
 IR Inten    --      3.1467                 1.8448                 3.5176

                     25                     26                     27
                      A                      A                      A
 Frequencies --    520.0185               541.4638               580.3707
 Red. masses --      3.2015                 5.3833                 5.0207
 Frc consts  --      0.5101                 0.9299                 0.9964
 IR Inten    --      7.4111                 1.5118                 0.8754

                     28                     29                     30
                      A                      A                      A
 Frequencies --    595.6787               638.5203               649.3006
 Red. masses --      5.9356                 3.6512                 6.4084
 Frc consts  --      1.2409                 0.8771                 1.5918
 IR Inten    --      7.9410                 1.6046                16.7609

                     31                     32                     33
                      A                      A                      A
 Frequencies --    689.2144               703.1401               721.9184
 Red. masses --      6.2756                 4.9309                 5.5617
 Frc consts  --      1.7564                 1.4363                 1.7078
 IR Inten    --      0.0326                 0.0170                 0.2685

                     34                     35                     36
                      A                      A                      A
 Frequencies --    734.9891               741.7758               770.5907
 Red. masses --      2.1966                 6.8001                 4.2924
 Frc consts  --      0.6992                 2.2045                 1.5018
 IR Inten    --     57.0688                 0.7799                 1.0372

                     37                     38                     39
                      A                      A                      A
 Frequencies --    797.2953               809.6938               821.1350
 Red. masses --      5.0944                 1.9419                 6.1146
 Frc consts  --      1.9080                 0.7501                 2.4291
 IR Inten    --      4.4413                18.3702                19.5253

                     40                     41                     42
                      A                      A                      A
 Frequencies --    842.3257               878.9259               887.5721
 Red. masses --      1.4448                 6.2627                 1.3799
 Frc consts  --      0.6040                 2.8505                 0.6405
 IR Inten    --     27.9160                 0.8514                 0.9200

                     43                     44                     45
                      A                      A                      A
 Frequencies --    914.2598               932.6082               934.6675
 Red. masses --      1.3677                 3.9499                 1.3639
 Frc consts  --      0.6736                 2.0241                 0.7020
 IR Inten    --      0.1715                14.2826                11.2574

                     46                     47                     48
                      A                      A                      A
 Frequencies --   1001.7016              1005.6296              1011.6187
 Red. masses --      1.3845                 2.6171                 1.2987
 Frc consts  --      0.8185                 1.5593                 0.7831
 IR Inten    --      2.2042                98.6032                 1.2319

                     49                     50                     51
                      A                      A                      A
 Frequencies --   1015.8277              1016.2767              1028.7707
 Red. masses --      2.0224                 1.3275                 2.1415
 Frc consts  --      1.2296                 0.8078                 1.3354
 IR Inten    --     18.1184                 0.1484                12.0515

                     52                     53                     54
                      A                      A                      A
 Frequencies --   1060.3868              1061.4139              1061.5637
 Red. masses --      1.5395                 1.5812                 1.9158
 Frc consts  --      1.0199                 1.0495                 1.2720
 IR Inten    --      3.8162                 1.2813                 2.8662

                     55                     56                     57
                      A                      A                      A
 Frequencies --   1086.7764              1088.6543              1120.2307
 Red. masses --      3.5661                 3.1337                 1.9854
 Frc consts  --      2.4815                 2.1882                 1.4680
 IR Inten    --      7.9264                 5.1152                 8.4807

                     58                     59                     60
                      A                      A                      A
 Frequencies --   1178.8378              1188.4352              1202.1346
 Red. masses --      1.2958                 1.4881                 1.8314
 Frc consts  --      1.0609                 1.2383                 1.5593
 IR Inten    --     18.1491                 8.8807                14.2693

                     61                     62                     63
                      A                      A                      A
 Frequencies --   1224.0233              1233.9673              1255.7142
 Red. masses --      2.2985                 1.9115                 2.2898
 Frc consts  --      2.0289                 1.7148                 2.1273
 IR Inten    --      3.9983                26.0700                52.4042

                     64                     65                     66
                      A                      A                      A
 Frequencies --   1291.1748              1300.1863              1313.2884
 Red. masses --      2.3241                 2.1366                 2.7887
 Frc consts  --      2.2829                 2.1281                 2.8338
 IR Inten    --    186.5768               266.4258               205.9139

                     67                     68                     69
                      A                      A                      A
 Frequencies --   1358.4990              1364.8701              1379.3084
 Red. masses --      5.5709                 4.1312                 4.3506
 Frc consts  --      6.0576                 4.5343                 4.8767
 IR Inten    --      4.2596                56.4041                 2.9068

                     70                     71                     72
                      A                      A                      A
 Frequencies --   1396.5444              1414.7310              1416.4257
 Red. masses --      6.3683                 1.2491                 1.3295
 Frc consts  --      7.3179                 1.4730                 1.5716
 IR Inten    --     54.3506                 3.3513                 1.4739

                     73                     74                     75
                      A                      A                      A
 Frequencies --   1429.0468              1473.2554              1481.2552
 Red. masses --      3.0631                 1.7829                 2.2827
 Frc consts  --      3.6856                 2.2800                 2.9509
 IR Inten    --     33.4206                37.7236                 2.9988

                     76                     77                     78
                      A                      A                      A
 Frequencies --   1483.7408              1487.1706              1495.4068
 Red. masses --      1.0432                 1.0438                 1.2161
 Frc consts  --      1.3531                 1.3602                 1.6023
 IR Inten    --      8.9357                 7.4351                15.3457

                     79                     80                     81
                      A                      A                      A
 Frequencies --   1504.5938              1509.3611              1535.3305
 Red. masses --      1.6658                 2.3111                 2.8451
 Frc consts  --      2.2219                 3.1021                 3.9514
 IR Inten    --     23.0004                 0.8712                41.2877

                     82                     83                     84
                      A                      A                      A
 Frequencies --   1589.0908              1620.2939              1623.3800
 Red. masses --      7.8003                 6.9497                 6.3647
 Frc consts  --     11.6054                10.7499                 9.8825
 IR Inten    --      8.6970                35.6542               125.6128

                     85                     86                     87
                      A                      A                      A
 Frequencies --   1629.7756              1659.9832              1703.0593
 Red. masses --      5.8238                 5.6260                12.0147
 Frc consts  --      9.1141                 9.1340                20.5317
 IR Inten    --      9.6009                28.7400                36.8461

                     88                     89                     90
                      A                      A                      A
 Frequencies --   1718.1664              3022.1085              3024.1458
 Red. masses --     12.2064                 1.0371                 1.0385
 Frc consts  --     21.2308                 5.5809                 5.5956
 IR Inten    --    287.9232                34.7187                24.7546

                     91                     92                     93
                      A                      A                      A
 Frequencies --   3070.1404              3071.8133              3103.7765
 Red. masses --      1.1000                 1.0998                 1.1005
 Frc consts  --      6.1087                 6.1143                 6.2462
 IR Inten    --     12.7363                13.3861                16.3839

                     94                     95                     96
                      A                      A                      A
 Frequencies --   3113.5714              3158.1224              3169.0077
 Red. masses --      1.0993                 1.0902                 1.0870
 Frc consts  --      6.2788                 6.4067                 6.4316
 IR Inten    --     14.1750                16.0553                 3.7420

                     97                     98                     99
                      A                      A                      A
 Frequencies --   3183.7834              3186.4833              3194.3033
 Red. masses --      1.0921                 1.0892                 1.0902
 Frc consts  --      6.5224                 6.5159                 6.5541
 IR Inten    --     14.0292                10.6537                 7.0359

                    100                    101                    102
                      A                      A                      A
 Frequencies --   3200.7107              3205.0642              3258.1963
 Red. masses --      1.0932                 1.0936                 1.0915
 Frc consts  --      6.5984                 6.6188                 6.8268
 IR Inten    --      3.6771                 9.5536                16.5760

 - Thermochemistry -
 -------------------
 Temperature   298.150 Kelvin.  Pressure   1.00000 Atm.
 Atom     1 has atomic number  6 and mass  12.00000

 Molecular mass:   286.09938 amu.
 Principal axes and moments of inertia in atomic units:
                           1         2         3
     Eigenvalues --  2888.971549792.72504**********
           X            0.91327  -0.30910   0.26533
           Y            0.13184   0.84056   0.52544
           Z           -0.38544  -0.44488   0.80841
 This molecule is an asymmetric top.
 Rotational symmetry number  1.
 Warning -- assumption of classical behavior for rotation
           may cause significant error
 Rotational temperatures (Kelvin)      0.02998     0.00884     0.00684
 Rotational constants (GHZ):           0.62470     0.18429     0.14263
 Zero-point vibrational energy     736746.5 (Joules/Mol)
                                  176.08665 (Kcal/Mol)
 Warning -- explicit consideration of  28 degrees of freedom as
           vibrations may cause significant error
 Vibrational temperatures:     23.76    56.29   100.99   128.88   157.83
          (Kelvin)            194.20   218.97   234.45   259.95   291.53
                              342.15   377.85   402.82   414.72   501.08
                              503.30   535.56   582.09   606.26   621.38
                              654.70   682.26   703.15   740.35   748.19
                              779.05   835.02   857.05   918.69   934.20
                              991.63  1011.66  1038.68  1057.49  1067.25
                             1108.71  1147.13  1164.97  1181.43  1211.92
                             1264.58  1277.02  1315.42  1341.82  1344.78
                             1441.23  1446.88  1455.49  1461.55  1462.20
                             1480.17  1525.66  1527.14  1527.35  1563.63
                             1566.33  1611.76  1696.08  1709.89  1729.60
                             1761.10  1775.40  1806.69  1857.71  1870.68
                             1889.53  1954.58  1963.74  1984.52  2009.32
                             2035.48  2037.92  2056.08  2119.69  2131.20
                             2134.77  2139.71  2151.56  2164.77  2171.63
                             2209.00  2286.35  2331.24  2335.68  2344.88
                             2388.35  2450.32  2472.06  4348.14  4351.07
                             4417.25  4419.65  4465.64  4479.73  4543.83
                             4559.50  4580.75  4584.64  4595.89  4605.11
                             4611.37  4687.82

 Zero-point correction=                           0.280612 (Hartree/Particle)
 Thermal correction to Energy=                    0.298090
 Thermal correction to Enthalpy=                  0.299035
 Thermal correction to Gibbs Free Energy=         0.234478
 Sum of electronic and zero-point Energies=           -921.000830
 Sum of electronic and thermal Energies=              -920.983352
 Sum of electronic and thermal Enthalpies=            -920.982408
 Sum of electronic and thermal Free Energies=         -921.046964

                     E (Thermal)             CV                S
                      KCal/Mol        Cal/Mol-Kelvin    Cal/Mol-Kelvin
 Total                  187.055             69.487            135.870
 Electronic               0.000              0.000              0.000
 Translational            0.889              2.981             42.851
 Rotational               0.889              2.981             34.236
 Vibrational            185.277             63.525             58.783
 Vibration     1          0.593              1.986              7.015
 Vibration     2          0.594              1.981              5.303
 Vibration     3          0.598              1.968              4.148
 Vibration     4          0.602              1.957              3.669
 Vibration     5          0.606              1.941              3.274
 Vibration     6          0.613              1.918              2.874
 Vibration     7          0.619              1.900              2.645
 Vibration     8          0.623              1.888              2.515
 Vibration     9          0.630              1.866              2.321
 Vibration    10          0.639              1.836              2.109
 Vibration    11          0.656              1.783              1.819
 Vibration    12          0.670              1.741              1.644
 Vibration    13          0.680              1.711              1.534
 Vibration    14          0.685              1.696              1.484
 Vibration    15          0.726              1.579              1.174
 Vibration    16          0.727              1.576              1.167
 Vibration    17          0.744              1.529              1.071
 Vibration    18          0.770              1.460              0.946
 Vibration    19          0.784              1.424              0.887
 Vibration    20          0.793              1.401              0.853
 Vibration    21          0.813              1.350              0.781
 Vibration    22          0.831              1.307              0.726
 Vibration    23          0.845              1.275              0.687
 Vibration    24          0.870              1.218              0.623
 Vibration    25          0.875              1.206              0.610
 Vibration    26          0.897              1.158              0.562
 Vibration    27          0.937              1.074              0.485
 Vibration    28          0.953              1.041              0.457

                           ! Non-Optimized Parameters !
 Normal termination of Gaussian 16 at Thu Dec 21 07:58:20 2023.
