 Gaussian 16, Revision A.03,
 Gaussian 16:  ES64L-G16RevA.03 25-Dec-2016

 ----------------------------------------------------------------
 #P UB3LYP/6-311++G(d,p) SCRF=(PCM,Solvent=n,n-DiMethylFormamide)
 ----------------------------------------------------------------

 -------
 Reduced
 -------
 Symbolic Z-matrix:
 Charge = -2 Multiplicity = 1

                         Standard orientation:
 ---------------------------------------------------------------------
 Center     Atomic      Atomic             Coordinates (Angstroms)
 Number     Number       Type             X           Y           Z
 ---------------------------------------------------------------------
      1          8           0        4.630204   -0.887214   -0.031977
      2          6           0        3.361220   -0.300712   -0.012482
      3          6           0        3.235095    1.113686   -0.013584
      4          6           0        1.973457    1.675402    0.010485
      5          6           0        0.795963    0.894381   -0.000563
      6          6           0       -0.495372    1.563240   -0.004233
      7          8           0       -0.612885    2.837336   -0.005500
      8          6           0       -1.638197    0.670655    0.001998
      9          6           0       -2.945182    1.216409    0.001793
     10          6           0       -4.075856    0.423901    0.003476
     11          6           0       -3.936709   -0.993093    0.002861
     12          6           0       -2.677514   -1.556521    0.001759
     13          6           0       -1.494879   -0.771636    0.003619
     14          6           0       -0.206622   -1.435911   -0.001308
     15          8           0       -0.089218   -2.713757   -0.007664
     16          6           0        0.934668   -0.544672   -0.001787
     17          6           0        2.245651   -1.098898    0.008922
     18          1           0        5.259100   -0.254696    0.347306
     19          1           0        4.126754    1.737142   -0.048006
     20          1           0        1.842964    2.752867    0.015085
     21          1           0       -3.015836    2.299983    0.000715
     22          1           0       -5.065745    0.876839    0.004566
     23          1           0       -4.821401   -1.627910    0.003454
     24          1           0       -2.539493   -2.633421    0.000710
     25          1           0        2.334513   -2.179108    0.031571
 ---------------------------------------------------------------------

 SCF Done:  E(UB3LYP) =  -764.437879041     A.U. after   18 cycles

 The electronic state is 1-A.
 Alpha  occ. eigenvalues --  -19.13888 -19.02088 -19.01496 -10.20942 -10.17446
 Alpha  occ. eigenvalues --  -10.16797 -10.15243 -10.15169 -10.14757 -10.14624
 Alpha  occ. eigenvalues --  -10.14462 -10.14322 -10.14076 -10.13664 -10.13425
 Alpha  occ. eigenvalues --  -10.13301 -10.13231  -1.03964  -0.94138  -0.93397
 Alpha  occ. eigenvalues --   -0.82617  -0.81895  -0.74838  -0.72655  -0.72032
 Alpha  occ. eigenvalues --   -0.70282  -0.63568  -0.60924  -0.59319  -0.56129
 Alpha  occ. eigenvalues --   -0.53817  -0.52023  -0.49968  -0.47290  -0.44609
 Alpha  occ. eigenvalues --   -0.43832  -0.42620  -0.40908  -0.40137  -0.39704
 Alpha  occ. eigenvalues --   -0.38434  -0.37854  -0.37259  -0.36831  -0.35677
 Alpha  occ. eigenvalues --   -0.35038  -0.32790  -0.32362  -0.32026  -0.31580
 Alpha  occ. eigenvalues --   -0.29856  -0.28954  -0.23313  -0.22407  -0.22063
 Alpha  occ. eigenvalues --   -0.20627  -0.20125  -0.19291  -0.10146
 Alpha virt. eigenvalues --   -0.02602  -0.00135   0.00426   0.00747   0.01549
 Alpha virt. eigenvalues --    0.02081   0.02118   0.02619   0.04184   0.04747
 Alpha virt. eigenvalues --    0.04922   0.05280   0.06138   0.06621   0.07041

  Beta  occ. eigenvalues --  -19.13888 -19.02088 -19.01496 -10.20942 -10.17446
  Beta  occ. eigenvalues --  -10.16797 -10.15243 -10.15169 -10.14757 -10.14624
  Beta  occ. eigenvalues --  -10.14462 -10.14322 -10.14076 -10.13664 -10.13425
  Beta  occ. eigenvalues --  -10.13301 -10.13231  -1.03964  -0.94138  -0.93397
  Beta  occ. eigenvalues --   -0.82617  -0.81895  -0.74838  -0.72655  -0.72032
  Beta  occ. eigenvalues --   -0.70282  -0.63568  -0.60924  -0.59319  -0.56129
  Beta  occ. eigenvalues --   -0.53817  -0.52023  -0.49968  -0.47290  -0.44609
  Beta  occ. eigenvalues --   -0.43832  -0.42620  -0.40908  -0.40137  -0.39704
  Beta  occ. eigenvalues --   -0.38434  -0.37854  -0.37259  -0.36831  -0.35677
  Beta  occ. eigenvalues --   -0.35038  -0.32790  -0.32362  -0.32026  -0.31580
  Beta  occ. eigenvalues --   -0.29856  -0.28954  -0.23313  -0.22407  -0.22063
  Beta  occ. eigenvalues --   -0.20627  -0.20125  -0.19291  -0.10146
  Beta virt. eigenvalues --   -0.02602  -0.00135   0.00426   0.00747   0.01549
  Beta virt. eigenvalues --    0.02081   0.02118   0.02619   0.04184   0.04747
  Beta virt. eigenvalues --    0.04922   0.05280   0.06138   0.06621   0.07041

 Mulliken charges and spin densities:
               1          2
     1  O   -0.332076  -0.000000
     2  C   -0.601638   0.000000
     3  C   -0.010935   0.000000
     4  C   -0.052867  -0.000000
     5  C    0.047101   0.000000
     6  C   -0.445979  -0.000000
     7  O   -0.644871  -0.000000
     8  C    0.175727   0.000000
     9  C    0.033648  -0.000000
    10  C   -0.503144  -0.000000
    11  C   -0.494231   0.000000
    12  C   -0.037940  -0.000000
    13  C    0.333797   0.000000
    14  C   -0.419748  -0.000000
    15  O   -0.669493  -0.000000
    16  C    0.506450  -0.000000
    17  C   -0.250152  -0.000000
    18  H    0.286488  -0.000000
    19  H    0.172314   0.000000
    20  H    0.151644   0.000000
    21  H    0.144779   0.000000
    22  H    0.154118  -0.000000
    23  H    0.155467   0.000000
    24  H    0.142218   0.000000
    25  H    0.159322   0.000000
 Sum of Mulliken charges =  -2.00000   0.00000

 Dipole moment (field-independent basis, Debye):
    X=              3.7698    Y=              1.8269    Z=              0.7627  Tot=              4.2580
 Quadrupole moment (field-independent basis, Debye-Ang):
   XX=           -123.5214   YY=           -161.7878   ZZ=           -110.8502
   XY=             12.9699   XZ=              3.9972   YZ=             -0.2522

 Normal termination of Gaussian 16 at Sun Jan 14 01:34:55 2024.
