 Gaussian 16, Revision A.03,
 Gaussian 16:  ES64L-G16RevA.03 25-Dec-2016

 --------------------------------------
 #P UB3LYP/6-311++G(d,p) nosym opt freq
 --------------------------------------

 -------
 Reduced
 -------
 Symbolic Z-matrix:
 Charge = -2 Multiplicity = 1

 SCF Done:  E(UB3LYP) =  -764.173840864     A.U. after   38 cycles
 Optimization completed.
    -- Stationary point found.
 Normal termination of Gaussian 16 at Wed Dec 27 21:09:46 2023.

 ----------------------------------------------------------------------
 #P Geom=AllCheck Guess=TCheck SCRF=Check GenChk UB3LYP/6-311++G(d,p) F
 req
 ----------------------------------------------------------------------

 Structure from the checkpoint file:  "178-an.chk"
 -------
 Reduced
 -------
 Charge = -2 Multiplicity = 1

                          Input orientation:
 ---------------------------------------------------------------------
 Center     Atomic      Atomic             Coordinates (Angstroms)
 Number     Number       Type             X           Y           Z
 ---------------------------------------------------------------------
      1          8           0       -4.607197   -0.852204    1.196263
      2          6           0       -3.407001   -0.343884    0.690471
      3          6           0       -3.412051    0.850316   -0.077832
      4          6           0       -2.217340    1.335154   -0.573245
      5          6           0       -0.978712    0.706482   -0.314057
      6          6           0        0.238532    1.297081   -0.847388
      7          8           0        0.237872    2.373047   -1.539796
      8          6           0        1.451237    0.564464   -0.538497
      9          6           0        2.694918    1.049831   -1.011504
     10          6           0        3.886884    0.403705   -0.750286
     11          6           0        3.879466   -0.792012    0.022657
     12          6           0        2.684860   -1.290620    0.499449
     13          6           0        1.441776   -0.653843    0.246604
     14          6           0        0.228083   -1.235889    0.784251
     15          8           0        0.230016   -2.310902    1.485005
     16          6           0       -0.983598   -0.507475    0.471054
     17          6           0       -2.231588   -1.005715    0.940347
     18          1           0       -5.328723   -0.536265    0.631438
     19          1           0       -4.348344    1.376408   -0.255372
     20          1           0       -2.187706    2.242620   -1.167894
     21          1           0        2.665364    1.964327   -1.596268
     22          1           0        4.825053    0.803986   -1.130612
     23          1           0        4.813547   -1.309578    0.235473
     24          1           0        2.647340   -2.199672    1.091885
     25          1           0       -2.222690   -1.929360    1.507854
 ---------------------------------------------------------------------

 SCF Done:  E(UB3LYP) =  -764.173840864     A.U. after    2 cycles

 Alpha  occ. eigenvalues --  -18.92467 -18.79668 -18.78861  -9.98877  -9.95436
 Alpha  occ. eigenvalues --   -9.94740  -9.93779  -9.93674  -9.93575  -9.93203
 Alpha  occ. eigenvalues --   -9.92994  -9.92830  -9.91898  -9.91464  -9.91407
 Alpha  occ. eigenvalues --   -9.91368  -9.91283  -0.82501  -0.71446  -0.70515
 Alpha  occ. eigenvalues --   -0.60639  -0.60058  -0.52992  -0.50484  -0.50389
 Alpha  occ. eigenvalues --   -0.48490  -0.41587  -0.39198  -0.37653  -0.34302
 Alpha  occ. eigenvalues --   -0.32173  -0.30203  -0.28362  -0.25514  -0.23069
 Alpha  occ. eigenvalues --   -0.22169  -0.20890  -0.18994  -0.18147  -0.17919
 Alpha  occ. eigenvalues --   -0.16386  -0.16071  -0.15066  -0.14776  -0.13180
 Alpha  occ. eigenvalues --   -0.12799  -0.10826  -0.10289  -0.09831  -0.09384
 Alpha  occ. eigenvalues --   -0.07641  -0.06787  -0.01239  -0.00069   0.00483
 Alpha  occ. eigenvalues --    0.01611   0.02787   0.03670   0.12772
 Alpha virt. eigenvalues --    0.14563   0.15660   0.17432   0.17938   0.19483
 Alpha virt. eigenvalues --    0.19761   0.20907   0.21149   0.22037   0.22417
 Alpha virt. eigenvalues --    0.23902   0.24769   0.25489   0.25979   0.26527

  Beta  occ. eigenvalues --  -18.92467 -18.79668 -18.78861  -9.98877  -9.95436
  Beta  occ. eigenvalues --   -9.94740  -9.93779  -9.93674  -9.93575  -9.93203
  Beta  occ. eigenvalues --   -9.92994  -9.92830  -9.91898  -9.91464  -9.91407
  Beta  occ. eigenvalues --   -9.91368  -9.91283  -0.82501  -0.71446  -0.70515
  Beta  occ. eigenvalues --   -0.60639  -0.60058  -0.52992  -0.50484  -0.50389
  Beta  occ. eigenvalues --   -0.48490  -0.41587  -0.39198  -0.37653  -0.34302
  Beta  occ. eigenvalues --   -0.32173  -0.30203  -0.28362  -0.25514  -0.23069
  Beta  occ. eigenvalues --   -0.22169  -0.20890  -0.18994  -0.18147  -0.17919
  Beta  occ. eigenvalues --   -0.16386  -0.16071  -0.15066  -0.14776  -0.13180
  Beta  occ. eigenvalues --   -0.12799  -0.10826  -0.10289  -0.09831  -0.09384
  Beta  occ. eigenvalues --   -0.07641  -0.06787  -0.01239  -0.00069   0.00483
  Beta  occ. eigenvalues --    0.01611   0.02787   0.03670   0.12772
  Beta virt. eigenvalues --    0.14563   0.15660   0.17432   0.17938   0.19483
  Beta virt. eigenvalues --    0.19761   0.20907   0.21149   0.22037   0.22417
  Beta virt. eigenvalues --    0.23902   0.24769   0.25489   0.25979   0.26527

 Mulliken charges and spin densities:
               1          2
     1  O   -0.342129  -0.000000
     2  C    0.197536   0.000000
     3  C   -0.463569  -0.000000
     4  C   -0.217538  -0.000000
     5  C    0.182904   0.000000
     6  C   -0.814126   0.000000
     7  O   -0.481608   0.000000
     8  C    0.321300  -0.000000
     9  C    0.053387  -0.000000
    10  C   -0.438024   0.000000
    11  C   -0.430750  -0.000000
    12  C   -0.011871  -0.000000
    13  C    0.499046   0.000000
    14  C   -0.656914   0.000000
    15  O   -0.492867   0.000000
    16  C    0.809457   0.000000
    17  C    0.335168   0.000000
    18  H   -0.332977  -0.000000
    19  H   -0.481285  -0.000000
    20  H    0.178596   0.000000
    21  H    0.134013   0.000000
    22  H    0.075416  -0.000000
    23  H    0.077581  -0.000000
    24  H    0.132068   0.000000
    25  H    0.167187   0.000000
 Sum of Mulliken charges =  -2.00000  -0.00000

 Dipole moment (field-independent basis, Debye):
    X=              5.6781    Y=              0.8839    Z=             -0.8874  Tot=              5.8146
 Quadrupole moment (field-independent basis, Debye-Ang):
   XX=           -200.0880   YY=           -144.9281   ZZ=           -129.3653
   XY=             -2.8562   XZ=              8.9774   YZ=             21.2451

  Exact polarizability:1714.841 -67.203 354.918  -4.128-111.474 199.259
 Approx polarizability:5640.244-129.012 474.189 -20.630-164.516 297.880

                      1                      2                      3
                      A                      A                      A
 Frequencies --     52.4415               102.6281               134.7252
 Red. masses --      7.2172                 4.7879                 5.0696
 Frc consts  --      0.0117                 0.0297                 0.0542
 IR Inten    --      1.0905                 2.1389                 3.0544

                      4                      5                      6
                      A                      A                      A
 Frequencies --    164.1099               193.0503               211.6052
 Red. masses --      7.0406                 6.1700                 5.2169
 Frc consts  --      0.1117                 0.1355                 0.1376
 IR Inten    --     10.1881                 1.2351                 2.8708

                      7                      8                      9
                      A                      A                      A
 Frequencies --    279.7570               288.3430               319.4985
 Red. masses --      6.9156                 1.1304                 6.0672
 Frc consts  --      0.3189                 0.0554                 0.3649
 IR Inten    --      2.0242                74.5626                 5.5776

                     10                     11                     12
                      A                      A                      A
 Frequencies --    335.5159               368.5247               387.7244
 Red. masses --      8.5818                 9.8819                 6.6616
 Frc consts  --      0.5692                 0.7907                 0.5900
 IR Inten    --     56.1476                 2.9603                84.7875

                     13                     14                     15
                      A                      A                      A
 Frequencies --    406.8463               435.6087               450.0739
 Red. masses --      6.0203                 3.7166                 5.2678
 Frc consts  --      0.5871                 0.4155                 0.6287
 IR Inten    --      2.2004                 4.6081                 7.8867

                     16                     17                     18
                      A                      A                      A
 Frequencies --    473.5008               482.5336               537.8909
 Red. masses --      2.9436                11.9951                 4.4507
 Frc consts  --      0.3888                 1.6455                 0.7587
 IR Inten    --     14.8838               420.9394                 9.4000

                     19                     20                     21
                      A                      A                      A
 Frequencies --    573.8254               636.1038               642.3787
 Red. masses --      6.4959                 6.2897                 3.7116
 Frc consts  --      1.2602                 1.4995                 0.9024
 IR Inten    --      2.7638                 2.8651                12.7658

                     22                     23                     24
                      A                      A                      A
 Frequencies --    663.5472               689.2982               692.7251
 Red. masses --      6.8215                 1.8564                 5.9278
 Frc consts  --      1.7696                 0.5197                 1.6760
 IR Inten    --     22.3976                78.4951                 5.9268

                     25                     26                     27
                      A                      A                      A
 Frequencies --    710.5810               746.3610               749.5300
 Red. masses --      4.2947                 1.7358                 6.1296
 Frc consts  --      1.2777                 0.5697                 2.0289
 IR Inten    --      8.3614                73.7213                41.9215

                     28                     29                     30
                      A                      A                      A
 Frequencies --    760.0977               783.1239               825.4461
 Red. masses --      2.2559                 1.6632                 3.8820
 Frc consts  --      0.7679                 0.6010                 1.5584
 IR Inten    --     32.1151                20.5050                 4.0566

                     31                     32                     33
                      A                      A                      A
 Frequencies --    854.8326               907.4898               930.6703
 Red. masses --      6.6027                 1.4304                 6.0353
 Frc consts  --      2.8427                 0.6941                 3.0799
 IR Inten    --     79.5934                17.5004                 6.5267

                     34                     35                     36
                      A                      A                      A
 Frequencies --    954.3420               960.2633               964.4093
 Red. masses --      1.2461                 1.3092                 1.3626
 Frc consts  --      0.6686                 0.7112                 0.7467
 IR Inten    --      4.8446                17.4529                30.0907

                     37                     38                     39
                      A                      A                      A
 Frequencies --    975.1843              1012.5570              1091.2795
 Red. masses --      3.4483                 2.0542                 2.5671
 Frc consts  --      1.9321                 1.2409                 1.8012
 IR Inten    --    215.2304               317.6007                80.0957

                     40                     41                     42
                      A                      A                      A
 Frequencies --   1101.8568              1109.8101              1132.5779
 Red. masses --      1.7129                 1.7680                 1.3765
 Frc consts  --      1.2253                 1.2830                 1.0403
 IR Inten    --     66.2047               110.4498               325.8213

                     43                     44                     45
                      A                      A                      A
 Frequencies --   1178.7337              1185.2373              1205.2630
 Red. masses --      1.7588                 1.7306                 1.6990
 Frc consts  --      1.4398                 1.4324                 1.4541
 IR Inten    --    171.6267                17.9547                15.9426

                     46                     47                     48
                      A                      A                      A
 Frequencies --   1214.2975              1224.6416              1250.3148
 Red. masses --      4.5193                 2.3740                 2.2685
 Frc consts  --      3.9262                 2.0977                 2.0894
 IR Inten    --     91.6576               643.2575               196.8071

                     49                     50                     51
                      A                      A                      A
 Frequencies --   1335.2002              1343.5988              1352.8689
 Red. masses --      6.9828                 2.3260                 6.7796
 Frc consts  --      7.3346                 2.4740                 7.3108
 IR Inten    --    403.8254                63.7816               154.9207

                     52                     53                     54
                      A                      A                      A
 Frequencies --   1382.5888              1445.6013              1462.4081
 Red. masses --      2.9864                 3.2432                 4.1686
 Frc consts  --      3.3635                 3.9932                 5.2526
 IR Inten    --    795.9415               238.9703               221.1648

                     55                     56                     57
                      A                      A                      A
 Frequencies --   1468.0793              1483.8778              1497.0891
 Red. masses --      3.9186                 4.3020                 4.6499
 Frc consts  --      4.9760                 5.5810                 6.1403
 IR Inten    --   2144.7443               115.1076               314.4190

                     58                     59                     60
                      A                      A                      A
 Frequencies --   1530.8358              1569.9868              1585.2937
 Red. masses --      5.5782                 7.2287                 5.4046
 Frc consts  --      7.7020                10.4979                 8.0026
 IR Inten    --    462.6888              1726.8869               118.4546

                     61                     62                     63
                      A                      A                      A
 Frequencies --   1615.9521              3091.9866              3112.7008
 Red. masses --      5.6952                 1.0826                 1.0877
 Frc consts  --      8.7623                 6.0978                 6.2093
 IR Inten    --    227.4203                45.3548                91.5437

                     64                     65                     66
                      A                      A                      A
 Frequencies --   3115.7475              3156.4305              3159.6270
 Red. masses --      1.0903                 1.0904                 1.0913
 Frc consts  --      6.2364                 6.4009                 6.4189
 IR Inten    --    261.3116                44.8314               163.2352

                     67                     68                     69
                      A                      A                      A
 Frequencies --   3163.1263              3179.7194              3666.6522
 Red. masses --      1.0906                 1.0891                 1.0657
 Frc consts  --      6.4289                 6.4876                 8.4417
 IR Inten    --     27.3072                13.7149              2306.4952

 - Thermochemistry -
 -------------------
 Temperature   298.150 Kelvin.  Pressure   1.00000 Atm.
 Atom     1 has atomic number  8 and mass  15.99491

 Molecular mass:   224.04734 amu.
 Principal axes and moments of inertia in atomic units:
                           1         2         3
     Eigenvalues --  1768.546335330.129747097.62188
           X            0.98896  -0.10077   0.10868
           Y            0.02651   0.84174   0.53923
           Z           -0.14582  -0.53040   0.83512
 This molecule is an asymmetric top.
 Rotational symmetry number  1.
 Warning -- assumption of classical behavior for rotation
           may cause significant error
 Rotational temperatures (Kelvin)      0.04897     0.01625     0.01220
 Rotational constants (GHZ):           1.02047     0.33859     0.25427
 Zero-point vibrational energy     466965.5 (Joules/Mol)
                                  111.60742 (Kcal/Mol)
 Warning -- explicit consideration of  19 degrees of freedom as
           vibrations may cause significant error
 Vibrational temperatures:     75.45   147.66   193.84   236.12   277.76
          (Kelvin)            304.45   402.51   414.86   459.69   482.73
                              530.22   557.85   585.36   626.74   647.56
                              681.26   694.26   773.91   825.61   915.21
                              924.24   954.70   991.75   996.68  1022.37
                             1073.85  1078.41  1093.61  1126.74  1187.63
                             1229.91  1305.68  1339.03  1373.09  1381.60
                             1387.57  1403.07  1456.84  1570.11  1585.33
                             1596.77  1629.53  1695.93  1705.29  1734.10
                             1747.10  1761.99  1798.92  1921.06  1933.14
                             1946.48  1989.24  2079.90  2104.08  2112.24
                             2134.97  2153.98  2202.53  2258.86  2280.88
                             2324.99  4448.68  4478.48  4482.87  4541.40
                             4546.00  4551.03  4574.91  5275.49

 Zero-point correction=                           0.177858 (Hartree/Particle)
 Thermal correction to Energy=                    0.190493
 Thermal correction to Enthalpy=                  0.191437
 Thermal correction to Gibbs Free Energy=         0.139178
 Sum of electronic and zero-point Energies=           -763.995983
 Sum of electronic and thermal Energies=              -763.983348
 Sum of electronic and thermal Enthalpies=            -763.982403
 Sum of electronic and thermal Free Energies=         -764.034663

                     E (Thermal)             CV                S
                      KCal/Mol        Cal/Mol-Kelvin    Cal/Mol-Kelvin
 Total                  119.536             51.876            109.989
 Electronic               0.000              0.000              0.000
 Translational            0.889              2.981             42.123
 Rotational               0.889              2.981             32.570
 Vibrational            117.759             45.914             35.297
 Vibration     1          0.596              1.977              4.723
 Vibration     2          0.605              1.947              3.404
 Vibration     3          0.613              1.919              2.877
 Vibration     4          0.623              1.887              2.502
 Vibration     5          0.635              1.850              2.198
 Vibration     6          0.643              1.823              2.030
 Vibration     7          0.680              1.711              1.535
 Vibration     8          0.685              1.695              1.484
 Vibration     9          0.705              1.636              1.313
 Vibration    10          0.717              1.605              1.233
 Vibration    11          0.741              1.537              1.086
 Vibration    12          0.756              1.496              1.009
 Vibration    13          0.772              1.455              0.938
 Vibration    14          0.796              1.393              0.841
 Vibration    15          0.809              1.361              0.796
 Vibration    16          0.830              1.309              0.728
 Vibration    17          0.839              1.289              0.703
 Vibration    18          0.893              1.166              0.570
 Vibration    19          0.930              1.088              0.497

 Optimization completed.
    -- Stationary point found.
 Normal termination of Gaussian 16 at Wed Dec 27 21:53:28 2023.
