 Gaussian 16, Revision A.03,
 Gaussian 16:  ES64L-G16RevA.03 25-Dec-2016

 ----------------------------------------------------------------
 #P UB3LYP/6-311++G(d,p) SCRF=(PCM,Solvent=n,n-DiMethylFormamide)
 ----------------------------------------------------------------

 ------------------
 Quinone PCM in DMF
 ------------------
 Symbolic Z-matrix:
 Charge = -1 Multiplicity = 1

                         Standard orientation:
 ---------------------------------------------------------------------
 Center     Atomic      Atomic             Coordinates (Angstroms)
 Number     Number       Type             X           Y           Z
 ---------------------------------------------------------------------
      1          6           0        3.740431   -1.848142    0.000209
      2          6           0        5.063706   -1.427269    0.000543
      3          6           0        5.365840   -0.060810    0.000650
      4          6           0        2.701479   -0.909857   -0.000020
      5          6           0        3.005351    0.462406    0.000054
      6          6           0        4.342538    0.877534    0.000405
      7          6           0        1.290718   -1.383334   -0.000355
      8          6           0        0.236017   -0.390317   -0.000396
      9          6           0        0.553545    1.011023   -0.000335
     10          6           0        1.922283    1.477449   -0.000215
     11          6           0       -1.113238   -0.810786   -0.000531
     12          6           0       -2.159143    0.168041   -0.000355
     13          6           0       -0.496768    1.945424   -0.000396
     14          6           0       -1.838514    1.500458   -0.000330
     15          8           0        1.059995   -2.610768   -0.000641
     16          8           0        2.214817    2.694443   -0.000192
     17          8           0       -1.440575   -2.092416   -0.000844
     18          1           0        3.480472   -2.899365    0.000072
     19          1           0        5.864107   -2.159319    0.000723
     20          1           0        6.400170    0.265832    0.000948
     21          1           0       -0.596395   -2.610098   -0.000826
     22          8           0       -0.277178    3.266723   -0.000356
     23          1           0       -2.642112    2.227401   -0.000179
     24          1           0        0.707798    3.386486   -0.000222
     25          1           0        4.549000    1.940611    0.000528
     26         16           0       -3.948357   -0.302117    0.000411
     27          8           0       -4.106687   -1.073509   -1.250183
     28          8           0       -4.105250   -1.072674    1.251741
     29          8           0       -4.629473    1.014626    0.000326
 ---------------------------------------------------------------------

 SCF Done:  E(UB3LYP) =  -1462.94082341     A.U. after   16 cycles

 The electronic state is 1-A.
 Alpha  occ. eigenvalues --  -89.05423 -19.16675 -19.16579 -19.13836 -19.13826
 Alpha  occ. eigenvalues --  -19.09740 -19.09739 -19.09705 -10.28801 -10.28781
 Alpha  occ. eigenvalues --  -10.27772 -10.27125 -10.22190 -10.21270 -10.21172
 Alpha  occ. eigenvalues --  -10.21139 -10.21081 -10.20564 -10.20003 -10.19957
 Alpha  occ. eigenvalues --  -10.19897 -10.19875  -8.11261  -6.07517  -6.07509
 Alpha  occ. eigenvalues --   -6.07486  -1.11983  -1.09974  -1.09341  -1.05993
 Alpha  occ. eigenvalues --   -1.05700  -0.98360  -0.98229  -0.89732  -0.88079
 Alpha  occ. eigenvalues --   -0.82415  -0.78251  -0.77954  -0.76851  -0.70957
 Alpha  occ. eigenvalues --   -0.68029  -0.66450  -0.63886  -0.61456  -0.60039
 Alpha  occ. eigenvalues --   -0.57313  -0.56341  -0.54615  -0.53989  -0.50927
 Alpha  occ. eigenvalues --   -0.50355  -0.49137  -0.47361  -0.47037  -0.46645
 Alpha  occ. eigenvalues --   -0.46113  -0.45816  -0.45366  -0.45188  -0.45040
 Alpha  occ. eigenvalues --   -0.43843  -0.43217  -0.42939  -0.40534  -0.40349
 Alpha  occ. eigenvalues --   -0.38846  -0.38573  -0.37926  -0.36972  -0.34256
 Alpha  occ. eigenvalues --   -0.34008  -0.33942  -0.31777  -0.30672  -0.30142
 Alpha  occ. eigenvalues --   -0.29881  -0.28928  -0.28066  -0.27976  -0.27718
 Alpha  occ. eigenvalues --   -0.26221  -0.23579
 Alpha virt. eigenvalues --   -0.12657  -0.07357  -0.04345  -0.01860  -0.00497
 Alpha virt. eigenvalues --    0.00531   0.00987   0.01763   0.02422   0.02770
 Alpha virt. eigenvalues --    0.03691   0.03727   0.03923   0.04152   0.04464

  Beta  occ. eigenvalues --  -89.05423 -19.16675 -19.16579 -19.13836 -19.13826
  Beta  occ. eigenvalues --  -19.09740 -19.09739 -19.09705 -10.28801 -10.28781
  Beta  occ. eigenvalues --  -10.27772 -10.27125 -10.22190 -10.21270 -10.21172
  Beta  occ. eigenvalues --  -10.21139 -10.21081 -10.20564 -10.20003 -10.19957
  Beta  occ. eigenvalues --  -10.19897 -10.19875  -8.11261  -6.07517  -6.07509
  Beta  occ. eigenvalues --   -6.07486  -1.11983  -1.09974  -1.09341  -1.05993
  Beta  occ. eigenvalues --   -1.05700  -0.98360  -0.98229  -0.89732  -0.88079
  Beta  occ. eigenvalues --   -0.82415  -0.78251  -0.77954  -0.76851  -0.70957
  Beta  occ. eigenvalues --   -0.68029  -0.66450  -0.63886  -0.61456  -0.60039
  Beta  occ. eigenvalues --   -0.57313  -0.56341  -0.54615  -0.53989  -0.50927
  Beta  occ. eigenvalues --   -0.50355  -0.49137  -0.47361  -0.47037  -0.46645
  Beta  occ. eigenvalues --   -0.46113  -0.45816  -0.45366  -0.45188  -0.45040
  Beta  occ. eigenvalues --   -0.43843  -0.43217  -0.42939  -0.40534  -0.40349
  Beta  occ. eigenvalues --   -0.38846  -0.38573  -0.37926  -0.36972  -0.34256
  Beta  occ. eigenvalues --   -0.34008  -0.33942  -0.31777  -0.30672  -0.30142
  Beta  occ. eigenvalues --   -0.29881  -0.28928  -0.28066  -0.27976  -0.27718
  Beta  occ. eigenvalues --   -0.26221  -0.23579
  Beta virt. eigenvalues --   -0.12657  -0.07357  -0.04345  -0.01860  -0.00497
  Beta virt. eigenvalues --    0.00531   0.00987   0.01763   0.02422   0.02770
  Beta virt. eigenvalues --    0.03691   0.03727   0.03923   0.04152   0.04464

 Mulliken charges and spin densities:
               1          2
     1  C    0.053880  -0.000000
     2  C   -0.402180  -0.000000
     3  C   -0.472063  -0.000000
     4  C    0.232117  -0.000000
     5  C    0.091158  -0.000000
     6  C    0.090469   0.000000
     7  C   -0.375071   0.000000
     8  C    0.398254   0.000000
     9  C    0.806970   0.000000
    10  C   -0.324703   0.000000
    11  C   -0.529651  -0.000000
    12  C   -0.144982  -0.000000
    13  C   -0.440504  -0.000000
    14  C   -0.131387   0.000000
    15  O   -0.337990  -0.000000
    16  O   -0.345006   0.000000
    17  O   -0.282015   0.000000
    18  H    0.187181  -0.000000
    19  H    0.211931  -0.000000
    20  H    0.208776   0.000000
    21  H    0.377870   0.000000
    22  O   -0.322398   0.000000
    23  H    0.265679   0.000000
    24  H    0.360072   0.000000
    25  H    0.192514  -0.000000
    26  S    0.645084   0.000000
    27  O   -0.350466   0.000000
    28  O   -0.350699   0.000000
    29  O   -0.312839  -0.000000
 Sum of Mulliken charges =  -1.00000  -0.00000

 Dipole moment (field-independent basis, Debye):
    X=             24.0399    Y=              1.4793    Z=             -0.0022  Tot=             24.0854
 Quadrupole moment (field-independent basis, Debye-Ang):
   XX=           -204.8141   YY=           -156.2996   ZZ=           -143.7974
   XY=            -16.1156   XZ=              0.0160   YZ=             -0.0005

 Normal termination of Gaussian 16 at Tue Jan 16 06:47:48 2024.
