 Gaussian 16, Revision A.03,
 Gaussian 16:  ES64L-G16RevA.03 25-Dec-2016

 ----------------------------------------------------------------------
 #P UB3LYP/6-311++G(d,p) nosym opt freq SCRF=(PCM,Solvent=n,n-DiMethylF
 ormamide)
 ----------------------------------------------------------------------

 -------
 Radical
 -------
 Symbolic Z-matrix:
 Charge = -1 Multiplicity = 2

 SCF Done:  E(UB3LYP) =  -838.594670147     A.U. after   19 cycles
 SCF Done:  E(UB3LYP) =  -838.594565372     A.U. after   17 cycles
 SCF Done:  E(UB3LYP) =  -838.595492499     A.U. after   16 cycles
 SCF Done:  E(UB3LYP) =  -838.595658298     A.U. after   16 cycles
 SCF Done:  E(UB3LYP) =  -838.595956138     A.U. after   15 cycles
 SCF Done:  E(UB3LYP) =  -838.595968850     A.U. after   13 cycles
 SCF Done:  E(UB3LYP) =  -838.595995153     A.U. after   13 cycles
 SCF Done:  E(UB3LYP) =  -838.596009897     A.U. after   14 cycles
 SCF Done:  E(UB3LYP) =  -838.596014354     A.U. after   11 cycles
 SCF Done:  E(UB3LYP) =  -838.596015787     A.U. after   12 cycles
 SCF Done:  E(UB3LYP) =  -838.596015993     A.U. after   11 cycles
 Optimization completed.
    -- Stationary point found.
 Normal termination of Gaussian 16 at Sun Feb 11 01:42:48 2024.

 ----------------------------------------------------------------------
 #P Geom=AllCheck Guess=TCheck SCRF=Check GenChk UB3LYP/6-311++G(d,p) F
 req
 ----------------------------------------------------------------------

 Structure from the checkpoint file:  "263-rad.chk"
 -------
 Radical
 -------
 Charge = -1 Multiplicity = 2

                          Input orientation:
 ---------------------------------------------------------------------
 Center     Atomic      Atomic             Coordinates (Angstroms)
 Number     Number       Type             X           Y           Z
 ---------------------------------------------------------------------
      1          6           0       -1.269095    2.827715    0.259542
      2          6           0       -2.580906    2.367498    0.230515
      3          6           0       -2.857684    1.020167   -0.000677
      4          6           0       -0.178871    1.940465    0.039914
      5          6           0       -0.484413    0.562228   -0.207547
      6          6           0       -1.826887    0.117729   -0.207923
      7          6           0        1.230825    2.388157    0.059263
      8          6           0        2.223459    1.379539   -0.200253
      9          6           0        1.923214    0.067689   -0.465709
     10          6           0        0.578541   -0.412434   -0.501605
     11          8           0        1.581668    3.579817    0.288558
     12          8           0        0.291785   -1.614873   -0.784172
     13          8           0       -1.031167    4.150324    0.496416
     14          1           0       -3.888107    0.682686   -0.008097
     15          1           0        2.711249   -0.650914   -0.669282
     16          6           0       -2.221586   -1.314994   -0.426187
     17          8           0       -2.709320   -1.745422   -1.452461
     18          8           0       -2.156813   -2.028721    0.713365
     19          6           0       -2.539178   -3.416281    0.624684
     20          1           0       -3.395095    3.066130    0.395832
     21          1           0        3.255433    1.716069   -0.183820
     22          1           0       -1.878995    4.597464    0.613155
     23          1           0       -2.418484   -3.816067    1.628763
     24          1           0       -1.887652   -3.941656   -0.074667
     25          1           0       -3.576373   -3.508453    0.300983
 ---------------------------------------------------------------------

 SCF Done:  E(UB3LYP) =  -838.596015993     A.U. after    1 cycles

 Alpha  occ. eigenvalues --  -19.16735 -19.15755 -19.11236 -19.07944 -19.07548
 Alpha  occ. eigenvalues --  -10.30821 -10.24767 -10.22766 -10.22431 -10.21999
 Alpha  occ. eigenvalues --  -10.18901 -10.18846 -10.18616 -10.18562 -10.17785
 Alpha  occ. eigenvalues --  -10.16480 -10.16412  -1.10791  -1.07122  -1.02028
 Alpha  occ. eigenvalues --   -1.00197  -0.99784  -0.86766  -0.81041  -0.77295
 Alpha  occ. eigenvalues --   -0.75170  -0.72433  -0.68103  -0.64362  -0.62793
 Alpha  occ. eigenvalues --   -0.59326  -0.57141  -0.54488  -0.51893  -0.50017
 Alpha  occ. eigenvalues --   -0.48621  -0.48198  -0.47590  -0.46057  -0.45780
 Alpha  occ. eigenvalues --   -0.43295  -0.42982  -0.42240  -0.40734  -0.40241
 Alpha  occ. eigenvalues --   -0.39846  -0.38960  -0.37799  -0.37621  -0.37311
 Alpha  occ. eigenvalues --   -0.35753  -0.35689  -0.34302  -0.30931  -0.28864
 Alpha  occ. eigenvalues --   -0.27896  -0.26086  -0.24608  -0.23926  -0.23620
 Alpha  occ. eigenvalues --   -0.15600
 Alpha virt. eigenvalues --   -0.03432  -0.02557  -0.00375   0.00316   0.00651
 Alpha virt. eigenvalues --    0.00945   0.01953   0.02845   0.03117   0.03562
 Alpha virt. eigenvalues --    0.04484   0.04645   0.05134   0.05806   0.06376

  Beta  occ. eigenvalues --  -19.16733 -19.15748 -19.11230 -19.07295 -19.06893
  Beta  occ. eigenvalues --  -10.30823 -10.24778 -10.22653 -10.22262 -10.21998
  Beta  occ. eigenvalues --  -10.18854 -10.18807 -10.18594 -10.18524 -10.17715
  Beta  occ. eigenvalues --  -10.16363 -10.16238  -1.10785  -1.07106  -1.02018
  Beta  occ. eigenvalues --   -0.99072  -0.98636  -0.86576  -0.80501  -0.77168
  Beta  occ. eigenvalues --   -0.74956  -0.72347  -0.67226  -0.64204  -0.62505
  Beta  occ. eigenvalues --   -0.59128  -0.57028  -0.54390  -0.51716  -0.49814
  Beta  occ. eigenvalues --   -0.48439  -0.48171  -0.47455  -0.45906  -0.45633
  Beta  occ. eigenvalues --   -0.42965  -0.42645  -0.41986  -0.40644  -0.39742
  Beta  occ. eigenvalues --   -0.38875  -0.38500  -0.37672  -0.37022  -0.35775
  Beta  occ. eigenvalues --   -0.35521  -0.35160  -0.33528  -0.30873  -0.28727
  Beta  occ. eigenvalues --   -0.25509  -0.24931  -0.24011  -0.23259  -0.23022
  Beta virt. eigenvalues --   -0.08943  -0.02630  -0.01371  -0.00353   0.00328
  Beta virt. eigenvalues --    0.00732   0.00966   0.01969   0.02881   0.03137
  Beta virt. eigenvalues --    0.03601   0.04644   0.05040   0.05381   0.06317

 Mulliken charges and spin densities:
               1          2
     1  C    0.156949   0.028691
     2  C    0.020880   0.056392
     3  C   -0.232143   0.010839
     4  C   -0.024100   0.021603
     5  C    0.645948   0.059412
     6  C    0.647321   0.043973
     7  C   -0.459039   0.038541
     8  C   -0.141245   0.138064
     9  C   -0.264684   0.063277
    10  C   -0.625066   0.078839
    11  O   -0.479800   0.239272
    12  O   -0.428302   0.235530
    13  O   -0.231206  -0.000145
    14  H    0.194512  -0.001456
    15  H    0.183823  -0.007841
    16  C   -0.671304   0.010720
    17  O   -0.256285   0.001167
    18  O    0.022499  -0.001687
    19  C   -0.224344   0.001351
    20  H    0.168804  -0.004248
    21  H    0.182221  -0.011606
    22  H    0.297626  -0.000356
    23  H    0.165756   0.000078
    24  H    0.180837  -0.000298
    25  H    0.170343  -0.000110
 Sum of Mulliken charges =  -1.00000   1.00000

 Dipole moment (field-independent basis, Debye):
    X=             -4.4323    Y=             -3.6453    Z=              3.6574  Tot=              6.8051
 Quadrupole moment (field-independent basis, Debye-Ang):
   XX=            -99.3987   YY=           -127.4728   ZZ=           -109.8631
   XY=            -24.1337   XZ=            -10.6615   YZ=            -10.3847

  Exact polarizability: 302.718  19.844 329.296  -3.400  35.025 143.116
 Approx polarizability: 326.750  21.128 374.157   0.150  44.895 167.515

                      1                      2                      3
                      A                      A                      A
 Frequencies --     33.6332                68.0598                90.5020
 Red. masses --      6.1179                 4.7800                 6.7083
 Frc consts  --      0.0041                 0.0130                 0.0324
 IR Inten    --      3.3772                 4.0014                16.8854

                      4                      5                      6
                      A                      A                      A
 Frequencies --    100.1909               124.0394               152.0641
 Red. masses --      4.5487                 3.4736                 1.2759
 Frc consts  --      0.0269                 0.0315                 0.0174
 IR Inten    --      5.9256                 7.4355                 0.3407

                      7                      8                      9
                      A                      A                      A
 Frequencies --    183.8011               215.4212               236.6082
 Red. masses --      6.9084                 6.2647                 5.9168
 Frc consts  --      0.1375                 0.1713                 0.1952
 IR Inten    --      0.4338                 0.3727                 0.1208

                     10                     11                     12
                      A                      A                      A
 Frequencies --    285.7831               295.3300               316.9636
 Red. masses --      7.1095                 9.2412                 4.3298
 Frc consts  --      0.3421                 0.4749                 0.2563
 IR Inten    --      9.4553                 3.0151                28.2790

                     13                     14                     15
                      A                      A                      A
 Frequencies --    327.0938               363.5245               388.0580
 Red. masses --      5.1104                11.4666                 9.3084
 Frc consts  --      0.3221                 0.8928                 0.8259
 IR Inten    --      0.6838                52.9907                 6.4191

                     16                     17                     18
                      A                      A                      A
 Frequencies --    421.4859               434.2620               458.9672
 Red. masses --      1.2353                 3.4327                 9.8628
 Frc consts  --      0.1293                 0.3814                 1.2241
 IR Inten    --    116.5603                19.1726                 1.9865

                     19                     20                     21
                      A                      A                      A
 Frequencies --    477.4572               493.0880               569.6771
 Red. masses --      5.6159                 5.9699                 4.2539
 Frc consts  --      0.7543                 0.8552                 0.8134
 IR Inten    --     16.6713                 3.3888                 2.4334

                     22                     23                     24
                      A                      A                      A
 Frequencies --    572.2701               633.3682               674.0943
 Red. masses --      4.6025                 4.8155                 6.2089
 Frc consts  --      0.8881                 1.1382                 1.6623
 IR Inten    --      6.7584                 7.1989                24.3673

                     25                     26                     27
                      A                      A                      A
 Frequencies --    684.5383               694.7552               748.8891
 Red. masses --      2.9391                 5.2043                 8.4294
 Frc consts  --      0.8115                 1.4801                 2.7854
 IR Inten    --     22.3525                 6.7034               120.6168

                     28                     29                     30
                      A                      A                      A
 Frequencies --    766.7441               790.6788               801.8275
 Red. masses --      6.0732                 8.0052                 5.9780
 Frc consts  --      2.1036                 2.9486                 2.2645
 IR Inten    --     34.1903                 6.8677                21.1824

                     31                     32                     33
                      A                      A                      A
 Frequencies --    820.8547               835.3858               882.6797
 Red. masses --      1.5845                 2.1072                 6.5273
 Frc consts  --      0.6290                 0.8664                 2.9963
 IR Inten    --     19.8617               111.7074                28.8727

                     34                     35                     36
                      A                      A                      A
 Frequencies --    938.5551               946.2176               952.1523
 Red. masses --      1.4437                 1.3257                 5.0192
 Frc consts  --      0.7493                 0.6993                 2.6810
 IR Inten    --     20.0485                 5.1104               141.9897

                     37                     38                     39
                      A                      A                      A
 Frequencies --    988.7037              1095.1398              1121.1669
 Red. masses --      7.0832                 2.2893                 2.7445
 Frc consts  --      4.0795                 1.6177                 2.0326
 IR Inten    --     23.6382                50.5535               335.5349

                     40                     41                     42
                      A                      A                      A
 Frequencies --   1151.2817              1163.2914              1187.6069
 Red. masses --      2.6880                 1.2881                 1.3517
 Frc consts  --      2.0992                 1.0270                 1.1233
 IR Inten    --     68.4235                 3.4210                43.0372

                     43                     44                     45
                      A                      A                      A
 Frequencies --   1205.7490              1215.6605              1237.0298
 Red. masses --      1.5682                 1.8137                 2.8676
 Frc consts  --      1.3432                 1.5792                 2.5854
 IR Inten    --     36.9530               238.6842                19.4143

                     46                     47                     48
                      A                      A                      A
 Frequencies --   1257.2234              1296.8317              1325.1002
 Red. masses --      5.3167                 2.4827                 2.4207
 Frc consts  --      4.9513                 2.4600                 2.5043
 IR Inten    --    515.3111               105.2242                17.4506

                     49                     50                     51
                      A                      A                      A
 Frequencies --   1342.5430              1398.4021              1422.4395
 Red. masses --      5.6423                 3.3201                 5.3175
 Frc consts  --      5.9919                 3.8252                 6.3391
 IR Inten    --      9.7037               122.5374               370.3801

                     52                     53                     54
                      A                      A                      A
 Frequencies --   1461.0816              1473.4406              1474.6099
 Red. masses --      1.2451                 2.1019                 1.1610
 Frc consts  --      1.5661                 2.6886                 1.4875
 IR Inten    --     11.4128               615.3319               133.9921

                     55                     56                     57
                      A                      A                      A
 Frequencies --   1485.7641              1488.7617              1536.5851
 Red. masses --      1.0487                 8.6529                 4.1402
 Frc consts  --      1.3640                11.2996                 5.7595
 IR Inten    --     13.4923                57.4254              1006.0321

                     58                     59                     60
                      A                      A                      A
 Frequencies --   1566.8304              1611.5450              1629.5321
 Red. masses --      5.4987                 6.0889                 6.9622
 Frc consts  --      7.9535                 9.3169                10.8923
 IR Inten    --    141.4690                47.3581                36.1496

                     61                     62                     63
                      A                      A                      A
 Frequencies --   1719.3878              3050.2124              3124.7844
 Red. masses --     11.7829                 1.0296                 1.1073
 Frc consts  --     20.5234                 5.6438                 6.3705
 IR Inten    --    668.8921                51.8857                29.5675

                     64                     65                     66
                      A                      A                      A
 Frequencies --   3149.7782              3157.3868              3157.7534
 Red. masses --      1.0859                 1.1057                 1.0886
 Frc consts  --      6.3474                 6.4944                 6.3958
 IR Inten    --     35.2517                21.2756                20.9350

                     67                     68                     69
                      A                      A                      A
 Frequencies --   3168.2804              3178.1798              3791.4553
 Red. masses --      1.0948                 1.0940                 1.0660
 Frc consts  --      6.4751                 6.5108                 9.0286
 IR Inten    --     35.2948                15.0414               109.1112

 - Thermochemistry -
 -------------------
 Temperature   298.150 Kelvin.  Pressure   1.00000 Atm.
 Atom     1 has atomic number  6 and mass  12.00000

 Molecular mass:   232.03717 amu.
 Principal axes and moments of inertia in atomic units:
                           1         2         3
     Eigenvalues --  2151.251644845.350836550.36516
           X            0.46213   0.88231   0.08928
           Y            0.88494  -0.45226  -0.11108
           Z            0.05762  -0.13034   0.98979
 This molecule is an asymmetric top.
 Rotational symmetry number  1.
 Warning -- assumption of classical behavior for rotation
           may cause significant error
 Rotational temperatures (Kelvin)      0.04026     0.01788     0.01322
 Rotational constants (GHZ):           0.83893     0.37247     0.27552
 Zero-point vibrational energy     463029.9 (Joules/Mol)
                                  110.66681 (Kcal/Mol)
 Warning -- explicit consideration of  22 degrees of freedom as
           vibrations may cause significant error
 Vibrational temperatures:     48.39    97.92   130.21   144.15   178.46
          (Kelvin)            218.79   264.45   309.94   340.43   411.18
                              424.91   456.04   470.62   523.03   558.33
                              606.42   624.81   660.35   686.95   709.44
                              819.64   823.37   911.28   969.87   984.90
                              999.60  1077.48  1103.17  1137.61  1153.65
                             1181.03  1201.93  1269.98  1350.37  1361.40
                             1369.93  1422.52  1575.66  1613.11  1656.44
                             1673.72  1708.70  1734.80  1749.06  1779.81
                             1808.86  1865.85  1906.52  1931.62  2011.99
                             2046.57  2102.17  2119.95  2121.63  2137.68
                             2142.00  2210.80  2254.32  2318.65  2344.53
                             2473.82  4388.58  4495.87  4531.83  4542.78
                             4543.30  4558.45  4572.69  5455.06

 Zero-point correction=                           0.176359 (Hartree/Particle)
 Thermal correction to Energy=                    0.190739
 Thermal correction to Enthalpy=                  0.191683
 Thermal correction to Gibbs Free Energy=         0.134035
 Sum of electronic and zero-point Energies=           -838.419657
 Sum of electronic and thermal Energies=              -838.405277
 Sum of electronic and thermal Enthalpies=            -838.404333
 Sum of electronic and thermal Free Energies=         -838.461981

                     E (Thermal)             CV                S
                      KCal/Mol        Cal/Mol-Kelvin    Cal/Mol-Kelvin
 Total                  119.690             54.720            121.330
 Electronic               0.000              0.000              1.377
 Translational            0.889              2.981             42.227
 Rotational               0.889              2.981             32.590
 Vibrational            117.913             48.759             45.136
 Vibration     1          0.594              1.983              5.603
 Vibration     2          0.598              1.969              4.209
 Vibration     3          0.602              1.956              3.649
 Vibration     4          0.604              1.949              3.451
 Vibration     5          0.610              1.929              3.036
 Vibration     6          0.619              1.900              2.646
 Vibration     7          0.631              1.862              2.289
 Vibration     8          0.645              1.818              1.997
 Vibration     9          0.655              1.785              1.828
 Vibration    10          0.684              1.700              1.499
 Vibration    11          0.690              1.682              1.443
 Vibration    12          0.704              1.641              1.326
 Vibration    13          0.711              1.621              1.274
 Vibration    14          0.737              1.547              1.107
 Vibration    15          0.756              1.496              1.008
 Vibration    16          0.784              1.424              0.887
 Vibration    17          0.795              1.396              0.845
 Vibration    18          0.817              1.341              0.769
 Vibration    19          0.834              1.300              0.717
 Vibration    20          0.849              1.265              0.676
 Vibration    21          0.926              1.097              0.505
 Vibration    22          0.928              1.091              0.500

                           ! Non-Optimized Parameters !
 Normal termination of Gaussian 16 at Sun Feb 11 02:10:50 2024.
