 Q-Chem 5.4, Q-Chem, Inc., Pleasanton, CA (2021)
 Q-Chem 5.4.0 for Intel X86 EM64T Linux

User input:
--------------------------------------------------------------
$molecule
0 1
C                 -2.6091330000     -0.6735440000     -0.2176160000
C                 -1.2951220000      0.0205140000     -0.0269630000
C                 -1.1709940000      1.3244880000      0.2736600000
C                  0.1465720000      1.9715730000      0.4536400000
O                  0.2348980000      3.1601070000      0.7272410000
C                  1.3536450000      1.1326650000      0.2917050000
C                  1.2835840000     -0.1754270000     -0.0085120000
C                  2.4802660000     -1.0602450000     -0.1810590000
C                 -0.0606350000     -0.8152010000     -0.1877770000
O                 -0.1487740000     -2.0009980000     -0.4612520000
H                 -2.7128630000     -1.5026840000      0.4876790000
H                 -3.4402100000      0.0189190000     -0.0795890000
H                 -2.6713070000     -1.1127910000     -1.2170770000
H                 -2.0331080000      1.9713580000      0.4002520000
H                  2.3017080000      1.6419760000      0.4313120000
H                  3.4043010000     -0.5013650000     -0.0292150000
H                  2.4903670000     -1.5039740000     -1.1804250000
H                  2.4468060000     -1.8953710000      0.5239970000
$end
$rem
MAX_SCF_CYCLES=200
BASIS  =  6-311++G(d,p)
GUI  =  2
JOB_TYPE  =  SP
METHOD  =  B3LYP
SOLVENT_METHOD = COSMO
$end
$solvent
dielectric 37.219
opticaldielectric 1.43
$end

--------------------------------------------------------------

             Standard Nuclear Orientation (Angstroms)
    I     Atom           X                Y                Z
 ----------------------------------------------------------------
    1      C       1.1314075860    -2.5519140945     0.0002604907
    2      C       0.3190204192    -1.2930586350     0.0001888911
    3      C      -1.0246333632    -1.2661399631    -0.0000094880
    4      C      -1.7892342535    -0.0002499877    -0.0001134427
    5      O      -3.0120474098    -0.0004581105    -0.0000988108
    6      C      -1.0250154335     1.2658402136    -0.0000771358
    7      C       0.3186354817     1.2931466544     0.0001410704
    8      C       1.1306034557     2.5522857067     0.0003012464
    9      C       1.0779001497     0.0001313570    -0.0000482171
   10      O       2.2980113305     0.0003190595    -0.0005536906
   11      H       1.7870056149    -2.5873788255     0.8746789071
   12      H       0.4876532798    -3.4321559703     0.0005293680
   13      H       1.7864543052    -2.5876779643    -0.8745883905
   14      H      -1.6192676829    -2.1739488119     0.0000041089
   15      H      -1.6199203561     2.1734741664    -0.0000326375
   16      H       0.4865214146     3.4322858044     0.0018140045
   17      H       1.7847523902     2.5889273653    -0.8751851429
   18      H       1.7869854164     2.5873391354     0.8741393031
 ----------------------------------------------------------------

    9    -460.2261872910      1.38e-06  Convergence criterion met
 Total energy in the final basis set =     -460.2261872910
    5    -460.2394825543      5.42e-06  Convergence criterion met
 Total energy in the final basis set =     -460.2394825543

                    Orbital Energies (a.u.)
 --------------------------------------------------------------

 Alpha MOs
 -- Occupied --
-19.1448 -19.1391 -10.2868 -10.2830 -10.2188 -10.2188 -10.2004 -10.2004
-10.1746 -10.1746  -1.0761  -1.0689  -0.8660  -0.8172  -0.7427  -0.7094
 -0.6817  -0.6036  -0.5914  -0.5314  -0.5058  -0.4743  -0.4637  -0.4417
 -0.4393  -0.4280  -0.4252  -0.4248  -0.4048  -0.3973  -0.3918  -0.3855
 -0.3044  -0.2924  -0.2835  -0.2788

          Ground-State Mulliken Net Atomic Charges

     Atom                 Charge (a.u.)
  ----------------------------------------
      1 C                    -0.375477
      2 C                     1.384050
      3 C                    -0.643842
      4 C                    -0.192629
      5 O                    -0.334540
      6 C                    -0.643532
      7 C                     1.383566
      8 C                    -0.375811
      9 C                    -1.528609
     10 O                    -0.265077
     11 H                     0.197324
     12 H                     0.175669
     13 H                     0.197386
     14 H                     0.225535
     15 H                     0.225552
     16 H                     0.175668
     17 H                     0.197490
     18 H                     0.197277
  ----------------------------------------
  Sum of atomic charges =     0.000000

                    Cartesian Multipole Moments
 -----------------------------------------------------------------
    Charge (ESU x 10^10)
                 0.0000
    Dipole Moment (Debye)
         X       1.7407      Y       0.0003      Z       0.0007
       Tot       1.7407
    Quadrupole Moments (Debye-Ang)
        XX     -81.2615     XY      -0.0056     YY     -46.2423
        XZ       0.0021     YZ       0.0000     ZZ     -58.2457

 Total job time:  16.94s(wall), 119.31s(cpu)
        *  Thank you very much for using Q-Chem.  Have a nice day.  *
