 Gaussian 16, Revision A.03,
 Gaussian 16:  ES64L-G16RevA.03 25-Dec-2016

 --------------------------------------
 #P UB3LYP/6-311++G(d,p) nosym opt freq
 --------------------------------------

 --------
 Oxidized
 --------
 Symbolic Z-matrix:
 Charge =  0 Multiplicity = 1

 SCF Done:  E(UB3LYP) =  -460.226199015     A.U. after   14 cycles
 Optimization completed.
    -- Stationary point found.
 Normal termination of Gaussian 16 at Sat Jan  6 05:38:36 2024.

 ----------------------------------------------------------------------
 #P Geom=AllCheck Guess=TCheck SCRF=Check GenChk UB3LYP/6-311++G(d,p) F
 req
 ----------------------------------------------------------------------

 Structure from the checkpoint file:  "039.chk"
 --------
 Oxidized
 --------
 Charge =  0 Multiplicity = 1

                          Input orientation:
 ---------------------------------------------------------------------
 Center     Atomic      Atomic             Coordinates (Angstroms)
 Number     Number       Type             X           Y           Z
 ---------------------------------------------------------------------
      1          6           0       -2.609133   -0.673544   -0.217616
      2          6           0       -1.295122    0.020514   -0.026963
      3          6           0       -1.170994    1.324488    0.273660
      4          6           0        0.146572    1.971573    0.453640
      5          8           0        0.234898    3.160107    0.727241
      6          6           0        1.353645    1.132665    0.291705
      7          6           0        1.283584   -0.175427   -0.008512
      8          6           0        2.480266   -1.060245   -0.181059
      9          6           0       -0.060635   -0.815201   -0.187777
     10          8           0       -0.148774   -2.000998   -0.461252
     11          1           0       -2.712863   -1.502684    0.487679
     12          1           0       -3.440210    0.018919   -0.079589
     13          1           0       -2.671307   -1.112791   -1.217077
     14          1           0       -2.033108    1.971358    0.400252
     15          1           0        2.301708    1.641976    0.431312
     16          1           0        3.404301   -0.501365   -0.029215
     17          1           0        2.490367   -1.503974   -1.180425
     18          1           0        2.446806   -1.895371    0.523997
 ---------------------------------------------------------------------

 SCF Done:  E(UB3LYP) =  -460.226199015     A.U. after    1 cycles

 Alpha  occ. eigenvalues --  -19.14328 -19.13431 -10.28711 -10.28039 -10.22433
 Alpha  occ. eigenvalues --  -10.22432 -10.20746 -10.20745 -10.18738 -10.18738
 Alpha  occ. eigenvalues --   -1.07468  -1.06302  -0.87161  -0.82536  -0.75067
 Alpha  occ. eigenvalues --   -0.71818  -0.68719  -0.61050  -0.59601  -0.53500
 Alpha  occ. eigenvalues --   -0.50627  -0.46922  -0.46919  -0.44839  -0.44549
 Alpha  occ. eigenvalues --   -0.43697  -0.43433  -0.42296  -0.41244  -0.40323
 Alpha  occ. eigenvalues --   -0.40002  -0.39457  -0.30593  -0.29175  -0.28880
 Alpha  occ. eigenvalues --   -0.27550
 Alpha virt. eigenvalues --   -0.13316  -0.02978  -0.01341  -0.00339  -0.00170
 Alpha virt. eigenvalues --    0.01271   0.02317   0.02416   0.02466   0.04603
 Alpha virt. eigenvalues --    0.05300   0.05328   0.06010   0.06338   0.07448

  Beta  occ. eigenvalues --  -19.14328 -19.13431 -10.28711 -10.28039 -10.22433
  Beta  occ. eigenvalues --  -10.22432 -10.20746 -10.20745 -10.18738 -10.18738
  Beta  occ. eigenvalues --   -1.07468  -1.06302  -0.87161  -0.82536  -0.75067
  Beta  occ. eigenvalues --   -0.71818  -0.68719  -0.61050  -0.59601  -0.53500
  Beta  occ. eigenvalues --   -0.50627  -0.46922  -0.46919  -0.44839  -0.44549
  Beta  occ. eigenvalues --   -0.43697  -0.43433  -0.42296  -0.41244  -0.40323
  Beta  occ. eigenvalues --   -0.40002  -0.39457  -0.30593  -0.29175  -0.28880
  Beta  occ. eigenvalues --   -0.27550
  Beta virt. eigenvalues --   -0.13316  -0.02978  -0.01341  -0.00339  -0.00170
  Beta virt. eigenvalues --    0.01271   0.02317   0.02416   0.02466   0.04603
  Beta virt. eigenvalues --    0.05300   0.05328   0.06010   0.06338   0.07448

 Mulliken charges and spin densities:
               1          2
     1  C   -0.315990  -0.000000
     2  C    1.369611  -0.000000
     3  C   -0.574447   0.000000
     4  C   -0.365098  -0.000000
     5  O   -0.231201   0.000000
     6  C   -0.574360   0.000000
     7  C    1.369568  -0.000000
     8  C   -0.315999   0.000000
     9  C   -1.587309   0.000000
    10  O   -0.194271  -0.000000
    11  H    0.184347  -0.000000
    12  H    0.150527  -0.000000
    13  H    0.184378  -0.000000
    14  H    0.190497  -0.000000
    15  H    0.190496   0.000000
    16  H    0.150532  -0.000000
    17  H    0.184409  -0.000000
    18  H    0.184309   0.000000
 Sum of Mulliken charges =  -0.00000   0.00000

 Dipole moment (field-independent basis, Debye):
    X=             -0.0940    Y=             -1.2659    Z=             -0.2906  Tot=              1.3022
 Quadrupole moment (field-independent basis, Debye-Ang):
   XX=            -49.0690   YY=            -76.2697   ZZ=            -59.4158
   XY=             -2.0489   XZ=             -0.2377   YZ=             -4.1178

  Exact polarizability: 101.495   2.623 137.534   1.647  18.073  62.857
 Approx polarizability: 125.000  11.156 275.019   3.402  42.521  99.836

                      1                      2                      3
                      A                      A                      A
 Frequencies --     69.6354               131.5008               134.9519
 Red. masses --      6.5531                 1.6983                 1.1071
 Frc consts  --      0.0187                 0.0173                 0.0119
 IR Inten    --     10.0315                 0.1195                 0.0013

                      4                      5                      6
                      A                      A                      A
 Frequencies --    162.1147               203.0382               269.8377
 Red. masses --      1.6921                 2.6250                 2.6357
 Frc consts  --      0.0262                 0.0638                 0.1131
 IR Inten    --      1.9430                 0.0000                 0.7237

                      7                      8                      9
                      A                      A                      A
 Frequencies --    305.2323               305.5282               397.2296
 Red. masses --      3.6578                 3.7835                 8.7547
 Frc consts  --      0.2008                 0.2081                 0.8139
 IR Inten    --      0.1213                 1.6566                21.0622

                     10                     11                     12
                      A                      A                      A
 Frequencies --    433.8417               446.6322               469.5296
 Red. masses --      3.2169                 8.4476                 5.7564
 Frc consts  --      0.3567                 0.9929                 0.7477
 IR Inten    --      0.0001                 0.0062                 5.4930

                     13                     14                     15
                      A                      A                      A
 Frequencies --    567.1243               616.7437               652.6012
 Red. masses --      5.7118                 3.6974                 2.8562
 Frc consts  --      1.0824                 0.8286                 0.7167
 IR Inten    --      1.3220                 0.0224                 2.6168

                     16                     17                     18
                      A                      A                      A
 Frequencies --    766.7735               787.1191               868.8819
 Red. masses --      4.0170                 7.0448                 1.2493
 Frc consts  --      1.3915                 2.5716                 0.5557
 IR Inten    --      0.1363                 1.1093                 0.0000

                     19                     20                     21
                      A                      A                      A
 Frequencies --    906.6607               932.6497               942.1198
 Red. masses --      3.4706                 1.5552                 3.6307
 Frc consts  --      1.6809                 0.7970                 1.8987
 IR Inten    --     12.9274                42.9329                23.0108

                     22                     23                     24
                      A                      A                      A
 Frequencies --   1037.7490              1050.3034              1056.0823
 Red. masses --      1.5443                 1.6409                 1.4961
 Frc consts  --      0.9799                 1.0665                 0.9831
 IR Inten    --     12.8701                 1.5728                 0.0002

                     25                     26                     27
                      A                      A                      A
 Frequencies --   1060.2144              1192.6394              1214.0914
 Red. masses --      1.5465                 2.7901                 1.7770
 Frc consts  --      1.0242                 2.3382                 1.5433
 IR Inten    --      3.6052                25.0172                11.4451

                     28                     29                     30
                      A                      A                      A
 Frequencies --   1298.0830              1330.7418              1376.3453
 Red. masses --      5.7576                 1.7612                 2.8081
 Frc consts  --      5.7160                 1.8376                 3.1342
 IR Inten    --    128.8047                 8.5723                 5.5172

                     31                     32                     33
                      A                      A                      A
 Frequencies --   1416.0189              1416.8200              1467.3881
 Red. masses --      1.2646                 1.3270                 1.0430
 Frc consts  --      1.4939                 1.5695                 1.3232
 IR Inten    --     14.9262                 8.0238                 0.0495

                     34                     35                     36
                      A                      A                      A
 Frequencies --   1468.2612              1479.0197              1480.7219
 Red. masses --      1.0433                 1.0731                 1.0650
 Frc consts  --      1.3251                 1.3830                 1.3758
 IR Inten    --     18.4120                 2.0517                15.3336

                     37                     38                     39
                      A                      A                      A
 Frequencies --   1662.0355              1692.5102              1715.8942
 Red. masses --      7.3123                10.1631                11.1259
 Frc consts  --     11.9010                17.1529                19.3003
 IR Inten    --     48.9160                 0.4454               500.8393

                     40                     41                     42
                      A                      A                      A
 Frequencies --   1721.5079              3036.4303              3036.6832
 Red. masses --      8.6350                 1.0357                 1.0358
 Frc consts  --     15.0776                 5.6263                 5.6275
 IR Inten    --      0.1721                14.1589                 2.4256

                     43                     44                     45
                      A                      A                      A
 Frequencies --   3087.2985              3087.4497              3121.5743
 Red. masses --      1.0988                 1.0988                 1.1033
 Frc consts  --      6.1705                 6.1713                 6.3340
 IR Inten    --      0.0730                12.4434                17.6759

                     46                     47                     48
                      A                      A                      A
 Frequencies --   3121.7514              3171.8785              3173.3448
 Red. masses --      1.1032                 1.0920                 1.0924
 Frc consts  --      6.3343                 6.4732                 6.4812
 IR Inten    --      4.3007                 8.5420                 1.4156

 - Thermochemistry -
 -------------------
 Temperature   298.150 Kelvin.  Pressure   1.00000 Atm.
 Atom     1 has atomic number  6 and mass  12.00000

 Molecular mass:   136.05243 amu.
 Principal axes and moments of inertia in atomic units:
                           1         2         3
     Eigenvalues --  1065.117011292.101202335.19194
           X            0.07230   0.99710  -0.02390
           Y            0.97196  -0.07581  -0.22258
           Z            0.22374   0.00714   0.97462
 This molecule is an asymmetric top.
 Rotational symmetry number  1.
 Warning -- assumption of classical behavior for rotation
           may cause significant error
 Rotational temperatures (Kelvin)      0.08132     0.06703     0.03709
 Rotational constants (GHZ):           1.69441     1.39675     0.77284
 Zero-point vibrational energy     366910.1 (Joules/Mol)
                                   87.69363 (Kcal/Mol)
 Warning -- explicit consideration of  14 degrees of freedom as
           vibrations may cause significant error
 Vibrational temperatures:    100.19   189.20   194.17   233.25   292.13
          (Kelvin)            388.24   439.16   439.59   571.52   624.20
                              642.60   675.55   815.97   887.36   938.95
                             1103.22  1132.49  1250.13  1304.48  1341.87
                             1355.50  1493.09  1511.15  1519.47  1525.41
                             1715.94  1746.81  1867.65  1914.64  1980.25
                             2037.34  2038.49  2111.24  2112.50  2127.98
                             2130.43  2391.30  2435.14  2468.79  2476.87
                             4368.75  4369.11  4441.93  4442.15  4491.25
                             4491.50  4563.63  4565.74

 Zero-point correction=                           0.139749 (Hartree/Particle)
 Thermal correction to Energy=                    0.149359
 Thermal correction to Enthalpy=                  0.150304
 Thermal correction to Gibbs Free Energy=         0.104991
 Sum of electronic and zero-point Energies=           -460.086450
 Sum of electronic and thermal Energies=              -460.076840
 Sum of electronic and thermal Enthalpies=            -460.075895
 Sum of electronic and thermal Free Energies=         -460.121208

                     E (Thermal)             CV                S
                      KCal/Mol        Cal/Mol-Kelvin    Cal/Mol-Kelvin
 Total                   93.724             35.226             95.369
 Electronic               0.000              0.000              0.000
 Translational            0.889              2.981             40.636
 Rotational               0.889              2.981             29.554
 Vibrational             91.947             29.264             25.180
 Vibration     1          0.598              1.969              4.164
 Vibration     2          0.612              1.922              2.924
 Vibration     3          0.613              1.918              2.874
 Vibration     4          0.622              1.889              2.525
 Vibration     5          0.639              1.836              2.105
 Vibration     6          0.674              1.729              1.597
 Vibration     7          0.696              1.664              1.388
 Vibration     8          0.696              1.663              1.386
 Vibration     9          0.764              1.476              0.973
 Vibration    10          0.795              1.396              0.846
 Vibration    11          0.806              1.368              0.806
 Vibration    12          0.827              1.318              0.739
 Vibration    13          0.923              1.102              0.510
 Vibration    14          0.976              0.996              0.422

                           ! Non-Optimized Parameters !
 Normal termination of Gaussian 16 at Sat Jan  6 05:52:35 2024.
