 Gaussian 16, Revision A.03,
 Gaussian 16:  ES64L-G16RevA.03 25-Dec-2016

 ----------------------------------------------------------------
 #P UB3LYP/6-311++G(d,p) SCRF=(PCM,Solvent=n,n-DiMethylFormamide)
 ----------------------------------------------------------------

 ------------------
 Radical PCM in DMF
 ------------------
 Symbolic Z-matrix:
 Charge = -1 Multiplicity = 2

                         Standard orientation:
 ---------------------------------------------------------------------
 Center     Atomic      Atomic             Coordinates (Angstroms)
 Number     Number       Type             X           Y           Z
 ---------------------------------------------------------------------
      1          6           0       -0.964192   -1.133067   -0.934744
      2          6           0       -2.196092   -1.894434   -0.900909
      3          6           0       -3.328159   -1.405804   -0.321601
      4          6           0       -3.387117   -0.099117    0.302090
      5          6           0       -2.155860    0.685850    0.298987
      6          8           0        0.056580   -1.549603   -1.544550
      7          8           0       -4.454157    0.329846    0.827786
      8          1           0       -2.175141   -2.868049   -1.382202
      9          6           0       -0.995754    0.168804   -0.269067
     10          6           0        0.278884    0.936066   -0.271835
     11          6           0        1.535054    0.231220    0.188592
     12          6           0        2.775120    0.417169   -0.456517
     13          6           0        1.467872   -0.540418    1.351619
     14          6           0        3.905848   -0.186150    0.099049
     15          6           0        3.836690   -0.938484    1.272223
     16          6           0        2.610158   -1.115934    1.903972
     17          8           0        0.340952    2.126353   -0.561180
     18          6           0        2.895884    1.192558   -1.746013
     19          1           0        0.502507   -0.689500    1.822266
     20          1           0        4.861767   -0.069147   -0.403693
     21          1           0        4.735788   -1.389429    1.680360
     22          1           0        2.537280   -1.706566    2.811180
     23          6           0       -2.230959    2.035484    0.964185
     24          1           0       -4.250411   -1.980308   -0.311073
     25          1           0       -2.561913    2.798918    0.250469
     26          1           0       -1.266906    2.363731    1.353252
     27          1           0       -2.975482    2.001986    1.761667
     28          1           0        2.177454    0.823397   -2.482833
     29          1           0        3.902050    1.087657   -2.161079
     30          1           0        2.681744    2.252098   -1.594945
 ---------------------------------------------------------------------

 SCF Done:  E(UB3LYP) =  -804.847022303     A.U. after   19 cycles

 The electronic state is 2-A.
 Alpha  occ. eigenvalues --  -19.11428 -19.08128 -19.08102 -10.26331 -10.22824
 Alpha  occ. eigenvalues --  -10.22201 -10.18943 -10.18574 -10.18342 -10.17863
 Alpha  occ. eigenvalues --  -10.17856 -10.17564 -10.17440 -10.17265 -10.16895
 Alpha  occ. eigenvalues --  -10.16700 -10.16104 -10.15578  -1.04560  -1.00557
 Alpha  occ. eigenvalues --   -1.00213  -0.86561  -0.83211  -0.77671  -0.77529
 Alpha  occ. eigenvalues --   -0.76129  -0.71660  -0.68816  -0.66719  -0.63936
 Alpha  occ. eigenvalues --   -0.61090  -0.58907  -0.56345  -0.54398  -0.50259
 Alpha  occ. eigenvalues --   -0.48960  -0.47631  -0.46954  -0.45887  -0.44534
 Alpha  occ. eigenvalues --   -0.43804  -0.42383  -0.41880  -0.41793  -0.41199
 Alpha  occ. eigenvalues --   -0.40658  -0.40097  -0.39246  -0.38775  -0.38227
 Alpha  occ. eigenvalues --   -0.37398  -0.36525  -0.36169  -0.35587  -0.35494
 Alpha  occ. eigenvalues --   -0.34415  -0.28461  -0.27016  -0.26172  -0.25487
 Alpha  occ. eigenvalues --   -0.25138  -0.24412  -0.23373  -0.16679
 Alpha virt. eigenvalues --   -0.06019  -0.02141  -0.01527  -0.00346   0.00569
 Alpha virt. eigenvalues --    0.00985   0.01225   0.01617   0.02312   0.03048
 Alpha virt. eigenvalues --    0.03417   0.03443   0.04041   0.04496   0.04781

  Beta  occ. eigenvalues --  -19.11387 -19.07472 -19.07389 -10.26329 -10.22721
  Beta  occ. eigenvalues --  -10.22061 -10.18942 -10.18369 -10.18341 -10.17862
  Beta  occ. eigenvalues --  -10.17856 -10.17564 -10.17440 -10.17198 -10.16829
  Beta  occ. eigenvalues --  -10.16577 -10.16104 -10.15591  -1.04482  -0.99459
  Beta  occ. eigenvalues --   -0.98921  -0.86554  -0.82609  -0.77648  -0.77334
  Beta  occ. eigenvalues --   -0.76003  -0.71302  -0.68778  -0.65969  -0.63791
  Beta  occ. eigenvalues --   -0.60964  -0.58804  -0.55962  -0.54272  -0.50118
  Beta  occ. eigenvalues --   -0.48741  -0.47549  -0.46776  -0.45692  -0.44373
  Beta  occ. eigenvalues --   -0.43581  -0.41875  -0.41692  -0.41426  -0.41145
  Beta  occ. eigenvalues --   -0.40280  -0.39709  -0.38733  -0.38120  -0.37815
  Beta  occ. eigenvalues --   -0.36363  -0.36168  -0.35610  -0.35404  -0.34544
  Beta  occ. eigenvalues --   -0.34295  -0.26946  -0.25940  -0.25313  -0.25048
  Beta  occ. eigenvalues --   -0.24661  -0.23863  -0.22886
  Beta virt. eigenvalues --   -0.09621  -0.05468  -0.01522  -0.01355  -0.00306
  Beta virt. eigenvalues --    0.00589   0.01010   0.01246   0.02322   0.02789
  Beta virt. eigenvalues --    0.03072   0.03465   0.03496   0.04521   0.04807

 Mulliken charges and spin densities:
               1          2
     1  C   -0.792035   0.088103
     2  C   -0.289359   0.074634
     3  C    0.096903   0.060086
     4  C   -0.677504   0.079655
     5  C    0.534308   0.142230
     6  O   -0.397721   0.226600
     7  O   -0.476969   0.265416
     8  H    0.194712  -0.008144
     9  C    0.992093   0.050673
    10  C   -0.981369   0.012562
    11  C    1.144661   0.000472
    12  C    0.301516  -0.000052
    13  C   -0.416648  -0.002783
    14  C   -0.265169  -0.004612
    15  C   -0.294058   0.000683
    16  C   -0.440456  -0.001099
    17  O   -0.268694   0.011848
    18  C   -0.421662  -0.002107
    19  H    0.190281  -0.000106
    20  H    0.166917  -0.000025
    21  H    0.185573   0.000064
    22  H    0.196049  -0.000063
    23  C   -0.526953  -0.001346
    24  H    0.193525  -0.005220
    25  H    0.197146   0.009860
    26  H    0.167275   0.001907
    27  H    0.157477   0.000794
    28  H    0.185037  -0.000182
    29  H    0.154430   0.000241
    30  H    0.190695  -0.000088
 Sum of Mulliken charges =  -1.00000   1.00000

 Dipole moment (field-independent basis, Debye):
    X=              9.1214    Y=             -0.7787    Z=              2.2824  Tot=              9.4348
 Quadrupole moment (field-independent basis, Debye-Ang):
   XX=           -148.1229   YY=           -121.0355   ZZ=           -113.6700
   XY=              3.9196   XZ=              9.2541   YZ=             -6.6304

 Normal termination of Gaussian 16 at Wed Jan 24 22:55:28 2024.
