 Q-Chem 5.4, Q-Chem, Inc., Pleasanton, CA (2021)
 Q-Chem 5.4.0 for Intel X86 EM64T Linux

User input:
--------------------------------------------------------------
$molecule
-1 2
O                  2.3215880000      1.6540690000      0.3496470000
C                  1.6625290000      0.4826820000      0.2205650000
C                  2.3751570000     -0.7130220000      0.2555510000
C                  1.6995900000     -1.9339070000      0.1223310000
C                  0.3242810000     -1.9736830000     -0.0449390000
C                 -0.4182780000     -0.7805080000     -0.0836230000
C                 -1.8859690000     -0.8350400000     -0.2626020000
O                 -2.4984870000     -1.9278280000     -0.3826500000
C                 -2.5614070000      0.4351510000     -0.2897280000
C                 -1.9057060000      1.6402070000     -0.1595100000
C                 -0.4915400000      1.7275770000      0.0143260000
O                  0.1140710000      2.8536940000      0.1349750000
C                  0.2476150000      0.4679520000      0.0496520000
H                  1.6000330000      2.3612760000      0.2929000000
H                  3.4509800000     -0.6719370000      0.3867800000
H                  2.2680920000     -2.8593970000      0.1514470000
H                 -0.2124480000     -2.9086500000     -0.1492830000
H                 -3.6391630000      0.4022150000     -0.4207440000
H                 -2.4509370000      2.5791490000     -0.1850960000
$end

$rem
BASIS  =  6-311++G(d,p)
GUI  =  2
JOB_TYPE  =  SP
METHOD  =  B3LYP
SCF_CONVERGENCE  = 8
SOLVENT_METHOD = sm12
$end

$smx
solvent dimethylformamide
charges CM5
$end

--------------------------------------------------------------

             Standard Nuclear Orientation (Angstroms)
    I     Atom           X                Y                Z
 ----------------------------------------------------------------
    1      O       2.3215880000     1.6540690000     0.3496470000
    2      C       1.6625290000     0.4826820000     0.2205650000
    3      C       2.3751570000    -0.7130220000     0.2555510000
    4      C       1.6995900000    -1.9339070000     0.1223310000
    5      C       0.3242810000    -1.9736830000    -0.0449390000
    6      C      -0.4182780000    -0.7805080000    -0.0836230000
    7      C      -1.8859690000    -0.8350400000    -0.2626020000
    8      O      -2.4984870000    -1.9278280000    -0.3826500000
    9      C      -2.5614070000     0.4351510000    -0.2897280000
   10      C      -1.9057060000     1.6402070000    -0.1595100000
   11      C      -0.4915400000     1.7275770000     0.0143260000
   12      O       0.1140710000     2.8536940000     0.1349750000
   13      C       0.2476150000     0.4679520000     0.0496520000
   14      H       1.6000330000     2.3612760000     0.2929000000
   15      H       3.4509800000    -0.6719370000     0.3867800000
   16      H       2.2680920000    -2.8593970000     0.1514470000
   17      H      -0.2124480000    -2.9086500000    -0.1492830000
   18      H      -3.6391630000     0.4022150000    -0.4207440000
   19      H      -2.4509370000     2.5791490000    -0.1850960000
 ----------------------------------------------------------------

   18    -610.5983856219      7.64e-09  Convergence criterion met
 Total energy in the final basis set =     -610.6841689558

                    Orbital Energies (a.u.)
 --------------------------------------------------------------

 Alpha MOs
 -- Occupied --
-19.1363 -19.0965 -19.0836 -10.2446 -10.2378 -10.2304 -10.1881 -10.1868
-10.1854 -10.1780 -10.1763 -10.1757 -10.1746  -1.0596  -1.0090  -1.0061
 -0.8652  -0.8157  -0.7550  -0.7500  -0.6876  -0.6366  -0.6252  -0.5796
 -0.5226  -0.5153  -0.5073  -0.4826  -0.4588  -0.4378  -0.4374  -0.4259
 -0.4079  -0.3993  -0.3970  -0.3873  -0.3832  -0.3675  -0.3550  -0.3383
 -0.2891  -0.2657  -0.2604  -0.2449  -0.2379  -0.1646

 Beta MOs
 -- Occupied --
-19.1361 -19.0906 -19.0767 -10.2445 -10.2358 -10.2295 -10.1877 -10.1862
-10.1855 -10.1775 -10.1749 -10.1744 -10.1739  -1.0584  -0.9992  -0.9943
 -0.8631  -0.8103  -0.7528  -0.7480  -0.6784  -0.6340  -0.6229  -0.5774
 -0.5209  -0.5135  -0.5045  -0.4796  -0.4578  -0.4357  -0.4292  -0.4222
 -0.4039  -0.3967  -0.3862  -0.3836  -0.3657  -0.3605  -0.3532  -0.3299
 -0.2604  -0.2594  -0.2554  -0.2387  -0.2300

          Ground-State Mulliken Net Atomic Charges

     Atom                 Charge (a.u.)    Spin (a.u.)
  --------------------------------------------------------
      1 O                    -0.312272       0.007849
      2 C                    -0.437663       0.031626
      3 C                     0.902872       0.039612
      4 C                     0.944515       0.027103
      5 C                    -0.256121       0.042829
      6 C                    -0.526079       0.040045
      7 C                    -1.187234       0.050440
      8 O                    -0.354498       0.251116
      9 C                     0.196420       0.154246
     10 C                     0.294926       0.065067
     11 C                    -0.913218       0.115157
     12 O                    -0.386961       0.212380
     13 C                    -0.635044      -0.003649
     14 H                     0.345045      -0.004575
     15 H                     0.282903      -0.003286
     16 H                     0.378906      -0.001994
     17 H                     0.143091      -0.003473
     18 H                     0.246186      -0.011850
     19 H                     0.274226      -0.008646
  --------------------------------------------------------
  Sum of atomic charges =    -1.000000

                    Cartesian Multipole Moments
 -----------------------------------------------------------------
    Charge (ESU x 10^10)
                -4.8032
    Dipole Moment (Debye)
         X       2.7725      Y      -1.4276      Z       0.2724
       Tot       3.1303
    Quadrupole Moments (Debye-Ang)
        XX     -97.0779     XY     -16.0237     YY    -102.2124
        XZ      -2.6175     YZ      -2.8377     ZZ     -81.3489

 Total job time:  364.81s(wall), 2049.70s(cpu)
        *  Thank you very much for using Q-Chem.  Have a nice day.  *
