 Gaussian 16, Revision A.03,
 Gaussian 16:  ES64L-G16RevA.03 25-Dec-2016

 --------------------------------------
 #P UB3LYP/6-311++G(d,p) nosym opt freq
 --------------------------------------

 -------
 Radical
 -------
 Symbolic Z-matrix:
 Charge = -1 Multiplicity = 2

 SCF Done:  E(UB3LYP) =  -610.599622545     A.U. after   22 cycles
 Optimization completed.
    -- Stationary point found.
 Normal termination of Gaussian 16 at Mon Jan  8 01:26:09 2024.

 ----------------------------------------------------------------------
 #P Geom=AllCheck Guess=TCheck SCRF=Check GenChk UB3LYP/6-311++G(d,p) F
 req
 ----------------------------------------------------------------------

 Structure from the checkpoint file:  "280-rad.chk"
 -------
 Radical
 -------
 Charge = -1 Multiplicity = 2

                          Input orientation:
 ---------------------------------------------------------------------
 Center     Atomic      Atomic             Coordinates (Angstroms)
 Number     Number       Type             X           Y           Z
 ---------------------------------------------------------------------
      1          8           0        2.321588    1.654069    0.349647
      2          6           0        1.662529    0.482682    0.220565
      3          6           0        2.375157   -0.713022    0.255551
      4          6           0        1.699590   -1.933907    0.122331
      5          6           0        0.324281   -1.973683   -0.044939
      6          6           0       -0.418278   -0.780508   -0.083623
      7          6           0       -1.885969   -0.835040   -0.262602
      8          8           0       -2.498487   -1.927828   -0.382650
      9          6           0       -2.561407    0.435151   -0.289728
     10          6           0       -1.905706    1.640207   -0.159510
     11          6           0       -0.491540    1.727577    0.014326
     12          8           0        0.114071    2.853694    0.134975
     13          6           0        0.247615    0.467952    0.049652
     14          1           0        1.600033    2.361276    0.292900
     15          1           0        3.450980   -0.671937    0.386780
     16          1           0        2.268092   -2.859397    0.151447
     17          1           0       -0.212448   -2.908650   -0.149283
     18          1           0       -3.639163    0.402215   -0.420744
     19          1           0       -2.450937    2.579149   -0.185096
 ---------------------------------------------------------------------

 SCF Done:  E(UB3LYP) =  -610.599622545     A.U. after    1 cycles

 Alpha  occ. eigenvalues --  -19.00124 -18.95884 -18.94525 -10.10920 -10.10043
 Alpha  occ. eigenvalues --  -10.09247 -10.05607 -10.04948 -10.04812 -10.04500
 Alpha  occ. eigenvalues --  -10.03981 -10.03941 -10.03919  -0.92434  -0.87159
 Alpha  occ. eigenvalues --   -0.86777  -0.72987  -0.67936  -0.61990  -0.61467
 Alpha  occ. eigenvalues --   -0.55129  -0.50160  -0.48997  -0.44403  -0.38858
 Alpha  occ. eigenvalues --   -0.38008  -0.37194  -0.34684  -0.32483  -0.30214
 Alpha  occ. eigenvalues --   -0.30003  -0.29067  -0.27308  -0.26392  -0.26003
 Alpha  occ. eigenvalues --   -0.25366  -0.24613  -0.23307  -0.21912  -0.20345
 Alpha  occ. eigenvalues --   -0.15229  -0.12942  -0.12368  -0.10695  -0.10194
 Alpha  occ. eigenvalues --   -0.02742
 Alpha virt. eigenvalues --    0.08956   0.10129   0.10157   0.10436   0.11094
 Alpha virt. eigenvalues --    0.12454   0.12664   0.14565   0.16075   0.16669
 Alpha virt. eigenvalues --    0.17227   0.17408   0.18659   0.19041   0.19397

  Beta  occ. eigenvalues --  -19.00105 -18.95300 -18.93833 -10.10911 -10.09839
  Beta  occ. eigenvalues --  -10.09161 -10.05567 -10.04882 -10.04820 -10.04446
  Beta  occ. eigenvalues --  -10.03930 -10.03845 -10.03725  -0.92318  -0.86185
  Beta  occ. eigenvalues --   -0.85586  -0.72781  -0.67393  -0.61765  -0.61272
  Beta  occ. eigenvalues --   -0.54205  -0.49908  -0.48749  -0.44191  -0.38678
  Beta  occ. eigenvalues --   -0.37847  -0.36924  -0.34378  -0.32385  -0.30005
  Beta  occ. eigenvalues --   -0.29234  -0.28770  -0.26860  -0.26126  -0.25245
  Beta  occ. eigenvalues --   -0.24661  -0.23113  -0.22327  -0.21727  -0.19491
  Beta  occ. eigenvalues --   -0.12386  -0.12237  -0.11875  -0.10063  -0.09456
  Beta virt. eigenvalues --    0.03901   0.08952   0.10165   0.11021   0.11096
  Beta virt. eigenvalues --    0.11599   0.12473   0.12672   0.14572   0.16143
  Beta virt. eigenvalues --    0.16706   0.17430   0.17860   0.19100   0.19557

 Mulliken charges and spin densities:
               1          2
     1  O   -0.372496   0.007050
     2  C   -0.161539   0.029278
     3  C   -0.051135   0.037723
     4  C   -0.246678   0.030986
     5  C   -0.119786   0.031674
     6  C    0.463733   0.049007
     7  C   -0.632298   0.047254
     8  O   -0.397433   0.252259
     9  C    0.029487   0.161781
    10  C   -0.072374   0.059341
    11  C   -0.548956   0.120687
    12  O   -0.463941   0.208737
    13  C    0.512847  -0.000793
    14  H    0.351327  -0.004558
    15  H    0.139440  -0.003350
    16  H    0.129123  -0.002456
    17  H    0.148508  -0.002902
    18  H    0.145120  -0.012865
    19  H    0.147051  -0.008854
 Sum of Mulliken charges =  -1.00000   1.00000

 Dipole moment (field-independent basis, Debye):
    X=              2.2067    Y=             -1.2899    Z=              0.2111  Tot=              2.5648
 Quadrupole moment (field-independent basis, Debye-Ang):
   XX=            -98.8013   YY=           -103.3608   ZZ=            -81.1204
   XY=            -14.7423   XZ=             -2.8090   YZ=             -2.7385

  Exact polarizability: 189.152  -0.992 182.026  13.995   4.541  74.372
 Approx polarizability: 302.373  21.435 326.255  23.866  11.705 115.011

                      1                      2                      3
                      A                      A                      A
 Frequencies --    101.3755               121.8767               185.6194
 Red. masses --      7.3418                 7.5020                 5.4946
 Frc consts  --      0.0445                 0.0657                 0.1115
 IR Inten    --      5.5608                 1.9315                 0.2713

                      4                      5                      6
                      A                      A                      A
 Frequencies --    253.7866               290.9842               338.4029
 Red. masses --      5.1920                 7.3549                 5.2211
 Frc consts  --      0.1970                 0.3669                 0.3523
 IR Inten    --      0.1817                 0.6583                 0.1064

                      7                      8                      9
                      A                      A                      A
 Frequencies --    387.3714               420.4194               463.1532
 Red. masses --      7.9722                10.4611                11.3098
 Frc consts  --      0.7048                 1.0894                 1.4294
 IR Inten    --     27.6143                 2.9651                 3.7429

                     10                     11                     12
                      A                      A                      A
 Frequencies --    465.2341               477.6942               524.7089
 Red. masses --      4.3342                 6.1646                 3.5684
 Frc consts  --      0.5527                 0.8288                 0.5788
 IR Inten    --      0.1732                 3.0935                 0.0630

                     13                     14                     15
                      A                      A                      A
 Frequencies --    535.1340               628.7230               636.3869
 Red. masses --      7.3368                 4.5754                 3.0423
 Frc consts  --      1.2379                 1.0656                 0.7259
 IR Inten    --      0.9096                 3.1804                 0.9013

                     16                     17                     18
                      A                      A                      A
 Frequencies --    643.9424               681.4667               745.4167
 Red. masses --      7.2861                 3.3716                 2.3854
 Frc consts  --      1.7801                 0.9225                 0.7809
 IR Inten    --     19.7754                 6.2184                29.7853

                     19                     20                     21
                      A                      A                      A
 Frequencies --    764.9748               791.1937               795.8947
 Red. masses --      6.7156                 2.1483                 5.5081
 Frc consts  --      2.3154                 0.7923                 2.0557
 IR Inten    --     26.4851                58.4583                 2.5168

                     22                     23                     24
                      A                      A                      A
 Frequencies --    823.8157               875.4259               924.6535
 Red. masses --      1.9444                 1.4568                 1.2730
 Frc consts  --      0.7775                 0.6578                 0.6413
 IR Inten    --     22.3847                 1.6132                 0.0294

                     25                     26                     27
                      A                      A                      A
 Frequencies --    957.9105               959.8150               969.8093
 Red. masses --      6.0298                 1.2654                 1.0532
 Frc consts  --      3.2599                 0.6868                 0.5836
 IR Inten    --     31.7815                 0.8979                74.6736

                     28                     29                     30
                      A                      A                      A
 Frequencies --   1058.2130              1084.9299              1130.9595
 Red. masses --      2.8312                 1.5798                 2.2855
 Frc consts  --      1.8680                 1.0956                 1.7223
 IR Inten    --     32.7174                 1.3351                10.0565

                     31                     32                     33
                      A                      A                      A
 Frequencies --   1165.1094              1185.2229              1249.5501
 Red. masses --      1.1999                 1.8220                 3.9644
 Frc consts  --      0.9597                 1.5080                 3.6470
 IR Inten    --     14.9498                21.8210                 8.8755

                     34                     35                     36
                      A                      A                      A
 Frequencies --   1283.6012              1295.9878              1343.8211
 Red. masses --      1.9588                 4.3091                 4.2054
 Frc consts  --      1.9015                 4.2642                 4.4745
 IR Inten    --    119.2098                 9.5343                23.7322

                     37                     38                     39
                      A                      A                      A
 Frequencies --   1401.4034              1419.5103              1445.1913
 Red. masses --      2.7434                 8.5024                 2.5938
 Frc consts  --      3.1745                10.0941                 3.1918
 IR Inten    --     29.2917               169.1811                16.2636

                     40                     41                     42
                      A                      A                      A
 Frequencies --   1482.6407              1515.2487              1553.8744
 Red. masses --      6.9653                 2.6409                 6.4491
 Frc consts  --      9.0212                 3.5724                 9.1745
 IR Inten    --      8.2747               264.0341               464.6696

                     43                     44                     45
                      A                      A                      A
 Frequencies --   1583.2238              1625.5330              1662.5334
 Red. masses --      2.8213                 5.7658                 2.7352
 Frc consts  --      4.1666                 8.9764                 4.4543
 IR Inten    --      7.5082                91.2175                60.8063

                     46                     47                     48
                      A                      A                      A
 Frequencies --   2879.4777              3136.6428              3140.4176
 Red. masses --      1.0748                 1.0865                 1.0852
 Frc consts  --      5.2508                 6.2982                 6.3060
 IR Inten    --    464.3126                31.0502                20.2322

                     49                     50                     51
                      A                      A                      A
 Frequencies --   3161.1908              3170.8396              3190.0289
 Red. masses --      1.0938                 1.0917                 1.0918
 Frc consts  --      6.4399                 6.4670                 6.5462
 IR Inten    --     39.5143                29.6179                13.5350

 - Thermochemistry -
 -------------------
 Temperature   298.150 Kelvin.  Pressure   1.00000 Atm.
 Atom     1 has atomic number  8 and mass  15.99491

 Molecular mass:   174.03169 amu.
 Principal axes and moments of inertia in atomic units:
                           1         2         3
     Eigenvalues --  1551.929021985.740053537.66907
           X            0.92461  -0.36173  -0.11937
           Y            0.35928   0.93228  -0.04218
           Z            0.12654  -0.00389   0.99195
 This molecule is an asymmetric top.
 Rotational symmetry number  1.
 Warning -- assumption of classical behavior for rotation
           may cause significant error
 Rotational temperatures (Kelvin)      0.05581     0.04362     0.02448
 Rotational constants (GHZ):           1.16290     0.90885     0.51015
 Zero-point vibrational energy     352481.7 (Joules/Mol)
                                   84.24515 (Kcal/Mol)
 Warning -- explicit consideration of  13 degrees of freedom as
           vibrations may cause significant error
 Vibrational temperatures:    145.86   175.35   267.06   365.14   418.66
          (Kelvin)            486.89   557.34   604.89   666.37   669.37
                              687.30   754.94   769.94   904.59   915.62
                              926.49   980.48  1072.49  1100.63  1138.35
                             1145.11  1185.29  1259.54  1330.37  1378.22
                             1380.96  1395.34  1522.53  1560.97  1627.20
                             1676.33  1705.27  1797.82  1846.82  1864.64
                             1933.46  2016.31  2042.36  2079.31  2133.19
                             2180.10  2235.68  2277.91  2338.78  2392.01
                             4142.93  4512.93  4518.36  4548.25  4562.13
                             4589.74

 Zero-point correction=                           0.134253 (Hartree/Particle)
 Thermal correction to Energy=                    0.143546
 Thermal correction to Enthalpy=                  0.144490
 Thermal correction to Gibbs Free Energy=         0.099021
 Sum of electronic and zero-point Energies=           -610.465369
 Sum of electronic and thermal Energies=              -610.456076
 Sum of electronic and thermal Enthalpies=            -610.455132
 Sum of electronic and thermal Free Energies=         -610.500601

                     E (Thermal)             CV                S
                      KCal/Mol        Cal/Mol-Kelvin    Cal/Mol-Kelvin
 Total                   90.077             37.952             95.697
 Electronic               0.000              0.000              1.377
 Translational            0.889              2.981             41.370
 Rotational               0.889              2.981             30.767
 Vibrational             88.299             31.990             22.183
 Vibration     1          0.604              1.948              3.428
 Vibration     2          0.609              1.931              3.070
 Vibration     3          0.632              1.859              2.271
 Vibration     4          0.665              1.756              1.704
 Vibration     5          0.687              1.691              1.468
 Vibration     6          0.719              1.599              1.220
 Vibration     7          0.756              1.497              1.010
 Vibration     8          0.783              1.426              0.891
 Vibration     9          0.821              1.332              0.757
 Vibration    10          0.823              1.327              0.751
 Vibration    11          0.834              1.300              0.716
 Vibration    12          0.880              1.195              0.599
 Vibration    13          0.890              1.172              0.576

 Optimization completed.
    -- Stationary point found.
 Normal termination of Gaussian 16 at Mon Jan  8 01:50:57 2024.
