 Q-Chem 5.4, Q-Chem, Inc., Pleasanton, CA (2021)
 Q-Chem 5.4.0 for Intel X86 EM64T Linux

User input:
--------------------------------------------------------------
$molecule
0 1
C                 -3.0152980000      3.7702920000      0.4075160000
C                 -4.2718310000      3.1954110000      0.5225650000
C                 -4.4402810000      1.8096460000      0.4780320000
C                 -1.8952400000      2.9526560000      0.2493280000
C                 -2.0458720000      1.5557670000      0.2082560000
C                 -3.3239910000      0.9999730000      0.3233700000
C                 -0.5526240000      3.5927190000      0.1259500000
C                  0.6235830000      2.6870990000     -0.0286330000
C                  0.4706560000      1.2904550000     -0.0695020000
C                 -0.8719240000      0.6530030000      0.0410720000
C                  1.8952440000      3.2525740000     -0.1344790000
C                  3.0009250000      2.4286600000     -0.2802870000
C                  2.8665360000      1.0392960000     -0.3286470000
C                  1.6008680000      0.4807680000     -0.2203490000
O                 -0.4220420000      4.8049780000      0.1511600000
O                 -1.0047060000     -0.5595820000     -0.0037320000
H                 -3.4238710000     -0.0776150000      0.2870170000
H                  1.4662920000     -0.5931590000     -0.2529860000
H                 -2.8956840000      4.8456680000      0.4355640000
H                  2.0087280000      4.3285960000     -0.1057870000
H                  3.7383460000      0.4102140000     -0.4420300000
O                  4.2264400000      3.0602270000     -0.4589300000
C                  5.3279920000      2.6877740000      0.2816870000
C                  6.5099020000      3.5289450000     -0.1118440000
O                  5.3077680000      1.8252930000      1.1136050000
O                 -5.3500330000      4.0697280000      0.5984660000
H                  6.3012600000      4.5801160000      0.1004570000
H                  6.6910250000      3.4419940000     -1.1852820000
H                  7.3856610000      3.2045830000      0.4457130000
C                 -6.3171390000      3.9161480000      1.5689240000
C                 -7.3566460000      4.9918340000      1.4217110000
O                 -6.2950930000      3.0497310000      2.3966980000
H                 -5.4264930000      1.3764970000      0.5699120000
H                 -6.8952040000      5.9718630000      1.5639890000
H                 -8.1403050000      4.8402880000      2.1605960000
H                 -7.7771590000      4.9717290000      0.4140750000
$end
$rem
MAX_SCF_CYCLES=200
BASIS  =  6-311++G(d,p)
GUI  =  2
JOB_TYPE  =  SP
METHOD  =  B3LYP
SOLVENT_METHOD = COSMO
$end
$solvent
dielectric 37.219
opticaldielectric 1.43
$end

--------------------------------------------------------------

             Standard Nuclear Orientation (Angstroms)
    I     Atom           X                Y                Z
 ----------------------------------------------------------------
    1      C       2.4838908317    -0.8918238173    -0.3120437095
    2      C       3.6786380551    -0.1898465254    -0.2629869021
    3      C       3.6957970514     1.2043381726    -0.1813914211
    4      C       1.2741425992    -0.1967229969    -0.2742805195
    5      C       1.2729061635     1.2061114258    -0.1863610077
    6      C       2.4909891122     1.8916712379    -0.1413270683
    7      C       0.0001863080    -0.9722709488    -0.3297894463
    8      C      -1.2738471897    -0.1968869484    -0.2738904854
    9      C      -1.2727672243     1.2059492006    -0.1860213908
   10      C       0.0000269215     1.9800780742    -0.1434506504
   11      C      -2.4835242616    -0.8921299823    -0.3113812294
   12      C      -3.6783625113    -0.1903029099    -0.2621364995
   13      C      -3.6956672137     1.2038936933    -0.1806024784
   14      C      -2.4909221658     1.8913550967    -0.1408072758
   15      O       0.0002585067    -2.1887217617    -0.4164295089
   16      O      -0.0000451014     3.1988904067    -0.0763884922
   17      H       2.4733918591     2.9724040867    -0.0765173561
   18      H      -2.4734336651     2.9720974929    -0.0761149253
   19      H       2.4808424750    -1.9718689933    -0.3829017790
   20      H      -2.4803752119    -1.9721715210    -0.3822723559
   21      H      -4.6354593225     1.7367891293    -0.1423168402
   22      O      -4.8434843369    -0.9390059379    -0.3830170993
   23      C      -5.8903271711    -0.7641640169     0.4968703763
   24      C      -7.0139647112    -1.6956239032     0.1374712863
   25      O      -5.8693809797     0.0154622203     1.4068781958
   26      O       4.8439308202    -0.9383016524    -0.3838935840
   27      H      -6.6749166188    -2.7309707599     0.2191226635
   28      H      -7.3193473532    -1.5324188376    -0.8982606800
   29      H      -7.8525886929    -1.5258208134     0.8089704072
   30      C       5.8899511664    -0.7642352215     0.4971352885
   31      C       7.0136148153    -1.6959677047     0.1385248801
   32      O       5.8682490411     0.0148258921     1.4076115585
   33      H       4.6355709521     1.7372910194    -0.1431765259
   34      H       6.6751965546    -2.7312256562     0.2242141100
   35      H       7.8532054623    -1.5237810965     0.8082098650
   36      H       7.3171265071    -1.5360489431    -0.8982356252
 ----------------------------------------------------------------

    9   -1144.8425982602      5.48e-06  Convergence criterion met
 Total energy in the final basis set =    -1144.8425982602
    5   -1144.8680622255      3.51e-06  Convergence criterion met
 Total energy in the final basis set =    -1144.8680622255

                    Orbital Energies (a.u.)
 --------------------------------------------------------------

 Alpha MOs
 -- Occupied --
-19.1970 -19.1970 -19.1403 -19.1403 -19.1383 -19.1344 -10.3307 -10.3306
-10.2905 -10.2873 -10.2681 -10.2681 -10.2165 -10.2164 -10.2118 -10.2118
-10.2050 -10.2050 -10.2042 -10.2041 -10.2037 -10.2037 -10.1830 -10.1830
 -1.1369  -1.1369  -1.0735  -1.0694  -1.0587  -1.0587  -0.9020  -0.8909
 -0.8249  -0.7979  -0.7924  -0.7853  -0.7637  -0.7511  -0.7030  -0.6812
 -0.6744  -0.6336  -0.6316  -0.6060  -0.5923  -0.5546  -0.5438  -0.5247
 -0.5174  -0.5149  -0.5048  -0.5048  -0.5015  -0.4867  -0.4848  -0.4684
 -0.4633  -0.4611  -0.4607  -0.4556  -0.4540  -0.4384  -0.4353  -0.4257
 -0.4244  -0.4224  -0.4081  -0.4075  -0.3993  -0.3950  -0.3915  -0.3833
 -0.3831  -0.3696  -0.3507  -0.3476  -0.3109  -0.3104  -0.2946  -0.2901
 -0.2854  -0.2813  -0.2779  -0.2705

          Ground-State Mulliken Net Atomic Charges

     Atom                 Charge (a.u.)
  ----------------------------------------
      1 C                     0.011170
      2 C                    -0.642786
      3 C                     0.024351
      4 C                     0.460924
      5 C                     0.371225
      6 C                     0.219346
      7 C                    -0.841339
      8 C                     0.461389
      9 C                     0.371222
     10 C                    -0.630478
     11 C                     0.011583
     12 C                    -0.643350
     13 C                     0.021812
     14 C                     0.219399
     15 O                    -0.273678
     16 O                    -0.286688
     17 H                     0.213028
     18 H                     0.212987
     19 H                     0.228111
     20 H                     0.228093
     21 H                     0.263539
     22 O                    -0.039336
     23 C                     0.187318
     24 C                    -0.581736
     25 O                    -0.302074
     26 O                    -0.039417
     27 H                     0.207703
     28 H                     0.208308
     29 H                     0.188682
     30 C                     0.187312
     31 C                    -0.581881
     32 O                    -0.302045
     33 H                     0.262470
     34 H                     0.207735
     35 H                     0.188787
     36 H                     0.208303
  ----------------------------------------
  Sum of atomic charges =    -0.000011

                    Cartesian Multipole Moments
 -----------------------------------------------------------------
    Charge (ESU x 10^10)
                -0.0001
    Dipole Moment (Debye)
         X      -0.0027      Y      -3.0139      Z      -3.5245
       Tot       4.6374
    Quadrupole Moments (Debye-Ang)
        XX     -87.1054     XY      -0.0005     YY    -142.1506
        XZ       0.0085     YZ      -5.0022     ZZ    -146.6947

 Total job time:  124.23s(wall), 781.30s(cpu)
        *  Thank you very much for using Q-Chem.  Have a nice day.  *
