 Q-Chem 5.4, Q-Chem, Inc., Pleasanton, CA (2021)
 Q-Chem 5.4.0 for Intel X86 EM64T Linux

User input:
--------------------------------------------------------------
$molecule
-2 1
C                 -1.5280530000      2.7856010000      0.0070570000
C                 -2.7898740000      2.2140440000     -0.0182240000
C                 -2.8984170000      0.7891840000     -0.0162300000
C                 -0.3349050000      2.0289070000      0.0188100000
C                 -0.4435310000      0.6003540000      0.0050360000
C                 -1.7374490000      0.0330810000     -0.0126450000
C                  0.9584500000      2.7049420000      0.0368730000
C                  2.0967710000      1.8340320000      0.0473820000
C                  1.9896380000      0.4249140000      0.0335640000
C                  0.7326770000     -0.2636540000      0.0160370000
O                  1.0510480000      3.9904910000      0.0358450000
O                  0.6296220000     -1.5484130000      0.0169760000
C                  3.4556110000      2.4945420000      0.0598980000
C                  3.2328120000     -0.4335900000      0.0512400000
H                 -1.4138870000      3.8657760000      0.0252250000
C                 -4.0308120000      3.0798000000      0.0050970000
C                 -4.2552310000      0.1212470000     -0.0707680000
H                  3.3114170000      3.5773690000      0.0703760000
H                  4.0602970000      2.2292810000     -0.8223570000
H                  4.0541140000      2.2088240000      0.9389420000
H                  3.8875570000     -0.2435700000     -0.8135120000
H                  2.9268180000     -1.4821920000      0.0359350000
H                  3.8503950000     -0.2610390000      0.9474480000
H                 -1.7878340000     -1.0519530000     -0.0300710000
H                 -3.7661930000      4.1395460000     -0.0551970000
H                 -4.6256760000      2.9413310000      0.9256440000
H                 -4.7112630000      2.8605700000     -0.8244380000
H                 -4.9145520000      0.4430300000      0.7422150000
H                 -4.1556910000     -0.9661970000     -0.0054050000
H                 -4.7997300000      0.3459740000     -1.0053630000
$end

$rem
BASIS  =  6-311++G(d,p)
GUI  =  2
JOB_TYPE  =  SP
METHOD  =  B3LYP
SCF_CONVERGENCE  = 8
SOLVENT_METHOD = sm12
$end

$smx
solvent dimethylformamide
charges CM5
$end

--------------------------------------------------------------

             Standard Nuclear Orientation (Angstroms)
    I     Atom           X                Y                Z
 ----------------------------------------------------------------
    1      C      -1.5280530000     2.7856010000     0.0070570000
    2      C      -2.7898740000     2.2140440000    -0.0182240000
    3      C      -2.8984170000     0.7891840000    -0.0162300000
    4      C      -0.3349050000     2.0289070000     0.0188100000
    5      C      -0.4435310000     0.6003540000     0.0050360000
    6      C      -1.7374490000     0.0330810000    -0.0126450000
    7      C       0.9584500000     2.7049420000     0.0368730000
    8      C       2.0967710000     1.8340320000     0.0473820000
    9      C       1.9896380000     0.4249140000     0.0335640000
   10      C       0.7326770000    -0.2636540000     0.0160370000
   11      O       1.0510480000     3.9904910000     0.0358450000
   12      O       0.6296220000    -1.5484130000     0.0169760000
   13      C       3.4556110000     2.4945420000     0.0598980000
   14      C       3.2328120000    -0.4335900000     0.0512400000
   15      H      -1.4138870000     3.8657760000     0.0252250000
   16      C      -4.0308120000     3.0798000000     0.0050970000
   17      C      -4.2552310000     0.1212470000    -0.0707680000
   18      H       3.3114170000     3.5773690000     0.0703760000
   19      H       4.0602970000     2.2292810000    -0.8223570000
   20      H       4.0541140000     2.2088240000     0.9389420000
   21      H       3.8875570000    -0.2435700000    -0.8135120000
   22      H       2.9268180000    -1.4821920000     0.0359350000
   23      H       3.8503950000    -0.2610390000     0.9474480000
   24      H      -1.7878340000    -1.0519530000    -0.0300710000
   25      H      -3.7661930000     4.1395460000    -0.0551970000
   26      H      -4.6256760000     2.9413310000     0.9256440000
   27      H      -4.7112630000     2.8605700000    -0.8244380000
   28      H      -4.9145520000     0.4430300000     0.7422150000
   29      H      -4.1556910000    -0.9661970000    -0.0054050000
   30      H      -4.7997300000     0.3459740000    -1.0053630000
 ----------------------------------------------------------------

   17    -692.5212046025      8.15e-09  Convergence criterion met
 Total energy in the final basis set =     -692.8144899337

                    Orbital Energies (a.u.)
 --------------------------------------------------------------

 Alpha MOs
 -- Occupied --
-19.0175 -19.0175 -10.1749 -10.1749 -10.1745 -10.1744 -10.1717 -10.1712
-10.1614 -10.1614 -10.1581 -10.1580 -10.1458 -10.1454 -10.1370 -10.1366
 -0.9360  -0.9330  -0.8472  -0.7951  -0.7662  -0.7585  -0.7168  -0.6969
 -0.6942  -0.6437  -0.6201  -0.5850  -0.5560  -0.5281  -0.4863  -0.4619
 -0.4609  -0.4344  -0.4271  -0.4269  -0.4177  -0.4040  -0.4010  -0.3950
 -0.3878  -0.3814  -0.3773  -0.3722  -0.3675  -0.3667  -0.3534  -0.3394
 -0.3192  -0.3164  -0.3087  -0.3077  -0.2368  -0.2230  -0.2134  -0.2000
 -0.1916  -0.1127

          Ground-State Mulliken Net Atomic Charges

     Atom                 Charge (a.u.)
  ----------------------------------------
      1 C                    -0.907800
      2 C                     3.072658
      3 C                     3.071106
      4 C                    -3.557257
      5 C                    -3.556152
      6 C                    -0.907291
      7 C                    -3.113876
      8 C                    -1.059465
      9 C                    -1.049644
     10 C                    -3.113884
     11 O                    -0.341894
     12 O                    -0.341423
     13 C                     0.758236
     14 C                     0.763732
     15 H                    -0.089933
     16 C                     2.646650
     17 C                     2.640891
     18 H                     0.193831
     19 H                     0.180306
     20 H                     0.187959
     21 H                     0.187705
     22 H                     0.194404
     23 H                     0.180207
     24 H                    -0.089707
     25 H                     0.439710
     26 H                     0.279344
     27 H                     0.306464
     28 H                     0.306410
     29 H                     0.439179
     30 H                     0.279535
  ----------------------------------------
  Sum of atomic charges =    -2.000000

                    Cartesian Multipole Moments
 -----------------------------------------------------------------
    Charge (ESU x 10^10)
                -9.6064
    Dipole Moment (Debye)
         X      -7.1491      Y     -11.7996      Z      -0.2433
       Tot      13.7985
    Quadrupole Moments (Debye-Ang)
        XX    -135.8594     XY     -11.3044     YY    -177.8954
        XZ      -0.4294     YZ      -0.3049     ZZ    -108.9167

 Total job time:  813.04s(wall), 5673.28s(cpu)
        *  Thank you very much for using Q-Chem.  Have a nice day.  *
