 Q-Chem 5.4, Q-Chem, Inc., Pleasanton, CA (2021)
 Q-Chem 5.4.0 for Intel X86 EM64T Linux

User input:
--------------------------------------------------------------
$molecule
0 1
C                 -1.3105170000      1.9523290000      0.5582370000
C                 -2.6547000000      1.3410390000      0.2595630000
C                 -2.7133750000      0.0992180000     -0.2521470000
C                 -1.5094180000     -0.6932270000     -0.5722760000
C                 -0.1841340000     -0.0801650000     -0.3085850000
C                 -0.0885030000      1.1502800000      0.2125340000
O                 -1.2231100000      3.0491280000      1.0715190000
O                 -1.5906020000     -1.8168050000     -1.0435820000
H                  0.6774970000     -0.6858860000     -0.5610370000
I                  1.7651060000      2.0509610000      0.6067340000
C                 -3.8607080000      2.2060010000      0.5605820000
C                 -4.0367370000      3.2730490000     -0.5433330000
C                 -5.1537730000      1.4078200000      0.7629000000
H                 -3.6544650000     -0.3938810000     -0.4655230000
H                 -3.6318280000      2.7402310000      1.4879740000
H                 -4.2588410000      2.8010160000     -1.5050140000
H                 -3.1415920000      3.8867510000     -0.6544100000
H                 -4.8687000000      3.9354010000     -0.2902450000
H                 -5.4821300000      0.9196270000     -0.1595670000
H                 -5.9557360000      2.0813530000      1.0746470000
H                 -5.0406150000      0.6409600000      1.5335880000
$end
$rem
MAX_SCF_CYCLES=200
BASIS  =  6-311++G(d,p)
GUI  =  2
JOB_TYPE  =  SP
METHOD  =  B3LYP
SOLVENT_METHOD = PCM
$end
$pcm
theory = CPCM
$end
$solvent
dielectric 37.219
opticaldielectric 1.43
$end

--------------------------------------------------------------

             Standard Nuclear Orientation (Angstroms)
    I     Atom           X                Y                Z
 ----------------------------------------------------------------
    1      C      -1.3105170000     1.9523290000     0.5582370000
    2      C      -2.6547000000     1.3410390000     0.2595630000
    3      C      -2.7133750000     0.0992180000    -0.2521470000
    4      C      -1.5094180000    -0.6932270000    -0.5722760000
    5      C      -0.1841340000    -0.0801650000    -0.3085850000
    6      C      -0.0885030000     1.1502800000     0.2125340000
    7      O      -1.2231100000     3.0491280000     1.0715190000
    8      O      -1.5906020000    -1.8168050000    -1.0435820000
    9      H       0.6774970000    -0.6858860000    -0.5610370000
   10      I       1.7651060000     2.0509610000     0.6067340000
   11      C      -3.8607080000     2.2060010000     0.5605820000
   12      C      -4.0367370000     3.2730490000    -0.5433330000
   13      C      -5.1537730000     1.4078200000     0.7629000000
   14      H      -3.6544650000    -0.3938810000    -0.4655230000
   15      H      -3.6318280000     2.7402310000     1.4879740000
   16      H      -4.2588410000     2.8010160000    -1.5050140000
   17      H      -3.1415920000     3.8867510000    -0.6544100000
   18      H      -4.8687000000     3.9354010000    -0.2902450000
   19      H      -5.4821300000     0.9196270000    -0.1595670000
   20      H      -5.9557360000     2.0813530000     1.0746470000
   21      H      -5.0406150000     0.6409600000     1.5335880000
 ----------------------------------------------------------------

    9   -7418.4652061619      3.80e-06  Convergence criterion met
 Total energy in the final basis set =    -7418.4652061619

                    Orbital Energies (a.u.)
 --------------------------------------------------------------

 Alpha MOs
 -- Occupied --
********-176.3130-165.7167-165.7147-165.7145 -35.8094 -31.3025 -31.2968
-31.2964 -22.9531 -22.9518 -22.9515 -22.9475 -22.9475 -19.1530 -19.1457
-10.3012 -10.2909 -10.2563 -10.2226 -10.2187 -10.2052 -10.1918 -10.1630
-10.1611  -6.3588  -4.7710  -4.7570  -4.7559  -2.0370  -2.0326  -2.0317
 -2.0197  -2.0196  -1.0876  -1.0757  -0.8758  -0.8306  -0.7737  -0.7190
 -0.6922  -0.6766  -0.6424  -0.5965  -0.5740  -0.5358  -0.5146  -0.4820
 -0.4689  -0.4596  -0.4510  -0.4412  -0.4326  -0.4285  -0.4080  -0.3924
 -0.3860  -0.3638  -0.3528  -0.3446  -0.3382  -0.3018  -0.2983  -0.2887
 -0.2752  -0.2673

          Ground-State Mulliken Net Atomic Charges

     Atom                 Charge (a.u.)
  ----------------------------------------
      1 C                    -1.884405
      2 C                     1.538419
      3 C                    -0.514359
      4 C                    -0.342607
      5 C                     0.027949
      6 C                     0.975255
      7 O                    -0.188166
      8 O                    -0.295194
      9 H                     0.251666
     10 I                     0.055553
     11 C                     0.209485
     12 C                    -0.727898
     13 C                    -0.563300
     14 H                     0.259180
     15 H                     0.216992
     16 H                     0.160305
     17 H                     0.169403
     18 H                     0.161922
     19 H                     0.155145
     20 H                     0.185555
     21 H                     0.149099
  ----------------------------------------
  Sum of atomic charges =     0.000000

                    Cartesian Multipole Moments
 -----------------------------------------------------------------
    Charge (ESU x 10^10)
                 0.0000
    Dipole Moment (Debye)
         X      -1.9375      Y       0.7773      Z       0.0862
       Tot       2.0894
    Quadrupole Moments (Debye-Ang)
        XX     -77.1166     XY      -7.0981     YY    -108.0421
        XZ      -1.7791     YZ      -7.0659     ZZ     -96.4488

 Total job time:  30.09s(wall), 192.10s(cpu)
        *  Thank you very much for using Q-Chem.  Have a nice day.  *
