 Gaussian 16, Revision A.03,
 Gaussian 16:  ES64L-G16RevA.03 25-Dec-2016

 -------------------------------
 #P UB3LYP/genecp nosym opt freq
 -------------------------------

 --------
 Oxidized
 --------
 Symbolic Z-matrix:
 Charge =  0 Multiplicity = 1

 SCF Done:  E(UB3LYP) =  -796.735576463     A.U. after   18 cycles
 Optimization completed.
    -- Stationary point found.
 Normal termination of Gaussian 16 at Sat Jan  6 19:46:54 2024.

 ------------------------------------------------------------------
 #P Geom=AllCheck Guess=TCheck SCRF=Check GenChk UB3LYP/GenECP Freq
 ------------------------------------------------------------------

 Structure from the checkpoint file:  "006.chk"
 --------
 Oxidized
 --------
 Charge =  0 Multiplicity = 1

                          Input orientation:
 ---------------------------------------------------------------------
 Center     Atomic      Atomic             Coordinates (Angstroms)
 Number     Number       Type             X           Y           Z
 ---------------------------------------------------------------------
      1          6           0       -1.310517    1.952329    0.558237
      2          6           0       -2.654700    1.341039    0.259563
      3          6           0       -2.713375    0.099218   -0.252147
      4          6           0       -1.509418   -0.693227   -0.572276
      5          6           0       -0.184134   -0.080165   -0.308585
      6          6           0       -0.088503    1.150280    0.212534
      7          8           0       -1.223110    3.049128    1.071519
      8          8           0       -1.590602   -1.816805   -1.043582
      9          1           0        0.677497   -0.685886   -0.561037
     10         53           0        1.765106    2.050961    0.606734
     11          6           0       -3.860708    2.206001    0.560582
     12          6           0       -4.036737    3.273049   -0.543333
     13          6           0       -5.153773    1.407820    0.762900
     14          1           0       -3.654465   -0.393881   -0.465523
     15          1           0       -3.631828    2.740231    1.487974
     16          1           0       -4.258841    2.801016   -1.505014
     17          1           0       -3.141592    3.886751   -0.654410
     18          1           0       -4.868700    3.935401   -0.290245
     19          1           0       -5.482130    0.919627   -0.159567
     20          1           0       -5.955736    2.081353    1.074647
     21          1           0       -5.040615    0.640960    1.533588
 ---------------------------------------------------------------------

 SCF Done:  E(UB3LYP) =  -796.735576463     A.U. after    1 cycles

 Alpha  occ. eigenvalues --  -19.15387 -19.14404 -10.30264 -10.29100 -10.25976
 Alpha  occ. eigenvalues --  -10.23054 -10.22389 -10.21471 -10.20471 -10.17889
 Alpha  occ. eigenvalues --  -10.17699  -6.86189  -4.88675  -4.87487  -4.87377
 Alpha  occ. eigenvalues --   -1.93490  -1.93107  -1.93023  -1.91995  -1.91993
 Alpha  occ. eigenvalues --   -1.08794  -1.07341  -0.88261  -0.84059  -0.78571
 Alpha  occ. eigenvalues --   -0.73174  -0.71072  -0.69923  -0.65567  -0.60851
 Alpha  occ. eigenvalues --   -0.58539  -0.54015  -0.51788  -0.48920  -0.47082
 Alpha  occ. eigenvalues --   -0.46504  -0.46036  -0.44784  -0.43944  -0.42986
 Alpha  occ. eigenvalues --   -0.41968  -0.40283  -0.39673  -0.37484  -0.36749
 Alpha  occ. eigenvalues --   -0.35725  -0.34122  -0.30721  -0.29980  -0.28811
 Alpha  occ. eigenvalues --   -0.27505  -0.26987
 Alpha virt. eigenvalues --   -0.14335  -0.05351  -0.04423  -0.01561  -0.01173
 Alpha virt. eigenvalues --    0.00225   0.00923   0.01012   0.02280   0.03553
 Alpha virt. eigenvalues --    0.03760   0.04327   0.04806   0.05045   0.06625

  Beta  occ. eigenvalues --  -19.15387 -19.14404 -10.30264 -10.29100 -10.25976
  Beta  occ. eigenvalues --  -10.23054 -10.22389 -10.21471 -10.20471 -10.17889
  Beta  occ. eigenvalues --  -10.17699  -6.86189  -4.88675  -4.87487  -4.87377
  Beta  occ. eigenvalues --   -1.93490  -1.93107  -1.93023  -1.91995  -1.91993
  Beta  occ. eigenvalues --   -1.08794  -1.07341  -0.88261  -0.84059  -0.78571
  Beta  occ. eigenvalues --   -0.73174  -0.71072  -0.69923  -0.65567  -0.60851
  Beta  occ. eigenvalues --   -0.58539  -0.54015  -0.51788  -0.48920  -0.47082
  Beta  occ. eigenvalues --   -0.46504  -0.46036  -0.44784  -0.43944  -0.42986
  Beta  occ. eigenvalues --   -0.41968  -0.40283  -0.39673  -0.37484  -0.36749
  Beta  occ. eigenvalues --   -0.35725  -0.34122  -0.30721  -0.29980  -0.28811
  Beta  occ. eigenvalues --   -0.27505  -0.26987
  Beta virt. eigenvalues --   -0.14335  -0.05351  -0.04423  -0.01561  -0.01173
  Beta virt. eigenvalues --    0.00225   0.00923   0.01012   0.02280   0.03553
  Beta virt. eigenvalues --    0.03760   0.04327   0.04806   0.05045   0.06625

 Mulliken charges and spin densities:
               1          2
     1  C   -2.227844   0.000000
     2  C    1.575173  -0.000000
     3  C   -0.356035   0.000000
     4  C   -0.434306   0.000000
     5  C    0.056910   0.000000
     6  C    1.221790  -0.000000
     7  O   -0.120420  -0.000000
     8  O   -0.214207  -0.000000
     9  H    0.209517   0.000000
    10  I   -0.026625   0.000000
    11  C    0.136894   0.000000
    12  C   -0.680118  -0.000000
    13  C   -0.498102   0.000000
    14  H    0.221566  -0.000000
    15  H    0.218939  -0.000000
    16  H    0.147705  -0.000000
    17  H    0.173356   0.000000
    18  H    0.145551  -0.000000
    19  H    0.138483  -0.000000
    20  H    0.171253   0.000000
    21  H    0.140523  -0.000000
 Sum of Mulliken charges =  -0.00000   0.00000

 Dipole moment (field-independent basis, Debye):
    X=             -1.4714    Y=              0.9405    Z=              0.2116  Tot=              1.7591
 Quadrupole moment (field-independent basis, Debye-Ang):
   XX=            -78.4787   YY=           -102.6253   ZZ=            -94.3030
   XY=             -5.6996   XZ=             -1.5137   YZ=             -5.4256

  Exact polarizability: 175.152  11.671 167.086   7.494  26.182 104.957
 Approx polarizability: 229.233  34.689 330.035  16.516  75.139 181.027

                      1                      2                      3
                      A                      A                      A
 Frequencies --     35.2853                66.7275               114.1198
 Red. masses --      4.3074                 3.9249                 6.6542
 Frc consts  --      0.0032                 0.0103                 0.0511
 IR Inten    --      1.2189                 1.1147                 5.4897

                      4                      5                      6
                      A                      A                      A
 Frequencies --    122.7783               144.2502               200.6478
 Red. masses --      6.2691                 4.3251                 3.1308
 Frc consts  --      0.0557                 0.0530                 0.0743
 IR Inten    --      1.2087                 0.3195                 0.0809

                      7                      8                      9
                      A                      A                      A
 Frequencies --    216.5088               232.2546               246.2111
 Red. masses --      8.5492                 1.7363                 2.0716
 Frc consts  --      0.2361                 0.0552                 0.0740
 IR Inten    --      0.0776                 0.2653                 0.4254

                     10                     11                     12
                      A                      A                      A
 Frequencies --    269.6661               299.8255               340.0986
 Red. masses --      1.0602                 3.8536                 4.4300
 Frc consts  --      0.0454                 0.2041                 0.3019
 IR Inten    --      0.0244                 2.0340                 1.4612

                     13                     14                     15
                      A                      A                      A
 Frequencies --    414.2363               441.4165               460.5904
 Red. masses --      2.7529                 7.1169                 7.9996
 Frc consts  --      0.2783                 0.8170                 0.9999
 IR Inten    --      3.9986                28.5736                 1.4896

                     16                     17                     18
                      A                      A                      A
 Frequencies --    497.3870               551.2209               635.7658
 Red. masses --      4.9173                 3.5768                 5.0637
 Frc consts  --      0.7167                 0.6403                 1.2059
 IR Inten    --      0.1212                 2.3621                 2.7052

                     19                     20                     21
                      A                      A                      A
 Frequencies --    677.5628               738.6852               784.8370
 Red. masses --      3.8178                 5.9206                 6.1736
 Frc consts  --      1.0327                 1.9034                 2.2405
 IR Inten    --      2.6054                42.3654                 0.6345

                     22                     23                     24
                      A                      A                      A
 Frequencies --    799.4711               858.6597               892.1363
 Red. masses --      8.5634                 3.2630                 1.3662
 Frc consts  --      3.2248                 1.4174                 0.6407
 IR Inten    --      3.3296                 1.4493                 1.9305

                     25                     26                     27
                      A                      A                      A
 Frequencies --    915.7672               934.7051               938.8603
 Red. masses --      2.7187                 1.3599                 1.2834
 Frc consts  --      1.3434                 0.7000                 0.6665
 IR Inten    --     30.6877                18.8865                20.0061

                     28                     29                     30
                      A                      A                      A
 Frequencies --    969.6108              1037.1301              1105.6662
 Red. masses --      1.4896                 3.3362                 1.6348
 Frc consts  --      0.8251                 2.1143                 1.1775
 IR Inten    --      0.9873                65.0276                 2.3504

                     31                     32                     33
                      A                      A                      A
 Frequencies --   1123.8772              1165.3196              1206.9541
 Red. masses --      2.2545                 2.3608                 1.9639
 Frc consts  --      1.6778                 1.8889                 1.6856
 IR Inten    --      2.3513                12.4341                21.9282

                     34                     35                     36
                      A                      A                      A
 Frequencies --   1281.3169              1296.7378              1315.5108
 Red. masses --      6.0940                 1.4796                 1.7394
 Frc consts  --      5.8947                 1.4659                 1.7735
 IR Inten    --    215.3501                16.1787                 4.2448

                     37                     38                     39
                      A                      A                      A
 Frequencies --   1325.2583              1388.3847              1402.9439
 Red. masses --      1.3283                 1.4780                 1.3474
 Frc consts  --      1.3745                 1.6785                 1.5625
 IR Inten    --      2.9915                 1.5778                 7.5931

                     40                     41                     42
                      A                      A                      A
 Frequencies --   1421.5816              1489.4050              1493.7007
 Red. masses --      1.2223                 1.0459                 1.0491
 Frc consts  --      1.4554                 1.3670                 1.3791
 IR Inten    --      4.2237                 1.1311                 4.8532

                     43                     44                     45
                      A                      A                      A
 Frequencies --   1508.9593              1513.2435              1621.4855
 Red. masses --      1.0429                 1.0569                 8.7593
 Frc consts  --      1.3991                 1.4260                13.5690
 IR Inten    --     11.3576                10.1073               120.5949

                     46                     47                     48
                      A                      A                      A
 Frequencies --   1677.1716              1711.4556              1727.7143
 Red. masses --      8.5262                10.1640                12.9784
 Frc consts  --     14.1306                17.5407                22.8251
 IR Inten    --      1.5187               242.7211               231.7939

                     49                     50                     51
                      A                      A                      A
 Frequencies --   3024.9977              3028.0590              3043.0641
 Red. masses --      1.0357                 1.0395                 1.0796
 Frc consts  --      5.5837                 5.6159                 5.8904
 IR Inten    --     18.6321                24.7029                 3.2505

                     52                     53                     54
                      A                      A                      A
 Frequencies --   3086.4470              3093.5512              3097.3806
 Red. masses --      1.1013                 1.1012                 1.1018
 Frc consts  --      6.1814                 6.2093                 6.2281
 IR Inten    --      5.5290                36.7465                32.2357

                     55                     56                     57
                      A                      A                      A
 Frequencies --   3114.1305              3189.8937              3198.4690
 Red. masses --      1.1008                 1.0912                 1.0935
 Frc consts  --      6.2900                 6.5420                 6.5908
 IR Inten    --     16.0111                 2.6178                 0.3361

 - Thermochemistry -
 -------------------
 Temperature   298.150 Kelvin.  Pressure   1.00000 Atm.
 Atom     1 has atomic number  6 and mass  12.00000

 Molecular mass:   275.96065 amu.
 Principal axes and moments of inertia in atomic units:
                           1         2         3
     Eigenvalues --  1769.440775591.290187095.90209
           X            0.98588  -0.15916  -0.05195
           Y            0.13523   0.93995  -0.31339
           Z            0.09871   0.30194   0.94820
 This molecule is an asymmetric top.
 Rotational symmetry number  1.
 Warning -- assumption of classical behavior for rotation
           may cause significant error
 Rotational temperatures (Kelvin)      0.04895     0.01549     0.01221
 Rotational constants (GHZ):           1.01995     0.32278     0.25434
 Zero-point vibrational energy     415637.1 (Joules/Mol)
                                   99.33965 (Kcal/Mol)
 Warning -- explicit consideration of  17 degrees of freedom as
           vibrations may cause significant error
 Vibrational temperatures:     50.77    96.01   164.19   176.65   207.54
          (Kelvin)            288.69   311.51   334.16   354.24   387.99
                              431.38   489.33   595.99   635.10   662.69
                              715.63   793.08   914.73   974.86  1062.80
                             1129.21  1150.26  1235.42  1283.59  1317.58
                             1344.83  1350.81  1395.05  1492.20  1590.81
                             1617.01  1676.63  1736.54  1843.53  1865.72
                             1892.73  1906.75  1997.58  2018.52  2045.34
                             2142.92  2149.10  2171.06  2177.22  2332.96
                             2413.08  2462.40  2485.80  4352.30  4356.70
                             4378.29  4440.71  4450.93  4456.44  4480.54
                             4589.55  4601.88

 Zero-point correction=                           0.158308 (Hartree/Particle)
 Thermal correction to Energy=                    0.170485
 Thermal correction to Enthalpy=                  0.171429
 Thermal correction to Gibbs Free Energy=         0.117975
 Sum of electronic and zero-point Energies=           -796.577269
 Sum of electronic and thermal Energies=              -796.565092
 Sum of electronic and thermal Enthalpies=            -796.564147
 Sum of electronic and thermal Free Energies=         -796.617601

                     E (Thermal)             CV                S
                      KCal/Mol        Cal/Mol-Kelvin    Cal/Mol-Kelvin
 Total                  106.981             43.888            112.503
 Electronic               0.000              0.000              0.000
 Translational            0.889              2.981             42.744
 Rotational               0.889              2.981             32.618
 Vibrational            105.203             37.927             37.141
 Vibration     1          0.594              1.982              5.508
 Vibration     2          0.598              1.970              4.248
 Vibration     3          0.607              1.938              3.198
 Vibration     4          0.610              1.930              3.056
 Vibration     5          0.616              1.909              2.747
 Vibration     6          0.638              1.839              2.127
 Vibration     7          0.645              1.816              1.988
 Vibration     8          0.653              1.792              1.861
 Vibration     9          0.661              1.769              1.758
 Vibration    10          0.674              1.729              1.598
 Vibration    11          0.692              1.674              1.418
 Vibration    12          0.720              1.595              1.212
 Vibration    13          0.778              1.439              0.912
 Vibration    14          0.801              1.380              0.822
 Vibration    15          0.818              1.337              0.764
 Vibration    16          0.853              1.256              0.665
 Vibration    17          0.907              1.137              0.542

 Optimization completed.
    -- Stationary point found.
 Normal termination of Gaussian 16 at Sat Jan  6 20:05:02 2024.
