 Q-Chem 5.4, Q-Chem, Inc., Pleasanton, CA (2021)
 Q-Chem 5.4.0 for Intel X86 EM64T Linux

User input:
--------------------------------------------------------------
$molecule
-1 2
C                 -2.1949330000     -3.8644980000      1.2071330000
C                 -0.7561110000     -3.8674730000      1.3897640000
C                 -0.0178930000     -2.7361080000      1.5864910000
C                 -0.6137980000     -1.4186920000      1.6289290000
C                 -2.0602370000     -1.3852650000      1.4374620000
C                 -2.7866120000     -2.5329590000      1.2471670000
O                 -2.8579090000     -4.9159620000      1.0352530000
O                  0.0530510000     -0.3669920000      1.8136910000
Cl                -4.5419950000     -2.4446400000      1.0503480000
C                 -2.6911470000     -0.0290870000      1.4429410000
O                 -2.9231360000      0.6494380000      0.4716580000
O                 -2.9711480000      0.3798080000      2.7044040000
C                 -3.5084010000      1.7016530000      2.8188320000
H                 -0.2867440000     -4.8464510000      1.3624610000
H                  1.0586040000     -2.7815080000      1.7221240000
H                 -3.6597080000      1.8650380000      3.8851970000
H                 -4.4561320000      1.7830530000      2.2817400000
H                 -2.8071200000      2.4356070000      2.4163050000
$end

$rem
BASIS  =  6-311++G(d,p)
GUI  =  2
JOB_TYPE  =  SP
METHOD  =  B3LYP
SCF_CONVERGENCE  = 8
SOLVENT_METHOD = sm12
$end

$smx
solvent dimethylformamide
charges CM5
$end

--------------------------------------------------------------

             Standard Nuclear Orientation (Angstroms)
    I     Atom           X                Y                Z
 ----------------------------------------------------------------
    1      C      -2.1949330000    -3.8644980000     1.2071330000
    2      C      -0.7561110000    -3.8674730000     1.3897640000
    3      C      -0.0178930000    -2.7361080000     1.5864910000
    4      C      -0.6137980000    -1.4186920000     1.6289290000
    5      C      -2.0602370000    -1.3852650000     1.4374620000
    6      C      -2.7866120000    -2.5329590000     1.2471670000
    7      O      -2.8579090000    -4.9159620000     1.0352530000
    8      O       0.0530510000    -0.3669920000     1.8136910000
    9      Cl     -4.5419950000    -2.4446400000     1.0503480000
   10      C      -2.6911470000    -0.0290870000     1.4429410000
   11      O      -2.9231360000     0.6494380000     0.4716580000
   12      O      -2.9711480000     0.3798080000     2.7044040000
   13      C      -3.5084010000     1.7016530000     2.8188320000
   14      H      -0.2867440000    -4.8464510000     1.3624610000
   15      H       1.0586040000    -2.7815080000     1.7221240000
   16      H      -3.6597080000     1.8650380000     3.8851970000
   17      H      -4.4561320000     1.7830530000     2.2817400000
   18      H      -2.8071200000     2.4356070000     2.4163050000
 ----------------------------------------------------------------

   18   -1069.2102448526      6.91e-09  Convergence criterion met
 Total energy in the final basis set =    -1069.2936370511

                    Orbital Energies (a.u.)
 --------------------------------------------------------------

 Alpha MOs
 -- Occupied --
******** -19.1699 -19.1199 -19.0861 -19.0860 -10.3108 -10.2365 -10.2358
-10.2356 -10.2206 -10.1943 -10.1800 -10.1782  -9.4661  -7.2303  -7.2214
 -7.2207  -1.1127  -1.0269  -1.0120  -1.0089  -0.8786  -0.8229  -0.7712
 -0.7231  -0.6937  -0.6325  -0.5865  -0.5660  -0.5208  -0.5017  -0.4836
 -0.4751  -0.4706  -0.4444  -0.4289  -0.4231  -0.4138  -0.4019  -0.3911
 -0.3865  -0.3780  -0.3613  -0.3481  -0.3134  -0.3104  -0.2966  -0.2892
 -0.2618  -0.2524  -0.2477  -0.1731

 Beta MOs
 -- Occupied --
******** -19.1699 -19.1198 -19.0786 -19.0785 -10.3108 -10.2351 -10.2349
-10.2346 -10.2206 -10.1931 -10.1790 -10.1771  -9.4661  -7.2304  -7.2212
 -7.2206  -1.1125  -1.0267  -0.9993  -0.9960  -0.8755  -0.8185  -0.7689
 -0.7219  -0.6841  -0.6293  -0.5827  -0.5648  -0.5191  -0.4995  -0.4830
 -0.4736  -0.4679  -0.4423  -0.4259  -0.4097  -0.4062  -0.3995  -0.3881
 -0.3759  -0.3614  -0.3598  -0.3371  -0.3130  -0.3101  -0.2943  -0.2599
 -0.2509  -0.2453  -0.2409

          Ground-State Mulliken Net Atomic Charges

     Atom                 Charge (a.u.)    Spin (a.u.)
  --------------------------------------------------------
      1 C                    -1.213252       0.095213
      2 C                     0.143546       0.083671
      3 C                     0.330077       0.107177
      4 C                    -1.596196       0.036489
      5 C                    -0.003288       0.090302
      6 C                     0.448044       0.043523
      7 O                    -0.326693       0.274696
      8 O                    -0.334863       0.269740
      9 Cl                    0.663515       0.008512
     10 C                    -0.198928       0.001815
     11 O                    -0.156981       0.002501
     12 O                     0.035110      -0.000955
     13 C                     0.070735       0.001565
     14 H                     0.247020      -0.006617
     15 H                     0.238129      -0.007746
     16 H                     0.262372       0.000286
     17 H                     0.202571       0.000027
     18 H                     0.189081      -0.000197
  --------------------------------------------------------
  Sum of atomic charges =    -1.000000

                    Cartesian Multipole Moments
 -----------------------------------------------------------------
    Charge (ESU x 10^10)
                -4.8032
    Dipole Moment (Debye)
         X       9.2165      Y      11.6390      Z      -4.7672
       Tot      15.5929
    Quadrupole Moments (Debye-Ang)
        XX    -114.9375     XY     -38.9346     YY    -134.2296
        XZ       3.1777     YZ      16.0954     ZZ     -91.8151

 Total job time:  219.47s(wall), 1679.59s(cpu)
        *  Thank you very much for using Q-Chem.  Have a nice day.  *
