 Q-Chem 5.4, Q-Chem, Inc., Pleasanton, CA (2021)
 Q-Chem 5.4.0 for Intel X86 EM64T Linux

User input:
--------------------------------------------------------------
$molecule
-1 2
O                  2.3215880000      1.6540690000      0.3496470000
C                  1.6625290000      0.4826820000      0.2205650000
C                  2.3751570000     -0.7130220000      0.2555510000
C                  1.6995900000     -1.9339070000      0.1223310000
C                  0.3242810000     -1.9736830000     -0.0449390000
C                 -0.4182780000     -0.7805080000     -0.0836230000
C                 -1.8859690000     -0.8350400000     -0.2626020000
O                 -2.4984870000     -1.9278280000     -0.3826500000
C                 -2.5614070000      0.4351510000     -0.2897280000
C                 -1.9057060000      1.6402070000     -0.1595100000
C                 -0.4915400000      1.7275770000      0.0143260000
O                  0.1140710000      2.8536940000      0.1349750000
C                  0.2476150000      0.4679520000      0.0496520000
H                  1.6000330000      2.3612760000      0.2929000000
H                  3.4509800000     -0.6719370000      0.3867800000
H                  2.2680920000     -2.8593970000      0.1514470000
H                 -0.2124480000     -2.9086500000     -0.1492830000
H                 -3.6391630000      0.4022150000     -0.4207440000
H                 -2.4509370000      2.5791490000     -0.1850960000
$end
$rem
MAX_SCF_CYCLES=200
BASIS  =  6-311++G(d,p)
GUI  =  2
JOB_TYPE  =  SP
METHOD  =  B3LYP
SOLVENT_METHOD = PCM
$end
$pcm
theory = CPCM
$end
$solvent
dielectric 37.219
opticaldielectric 1.43
$end

--------------------------------------------------------------

             Standard Nuclear Orientation (Angstroms)
    I     Atom           X                Y                Z
 ----------------------------------------------------------------
    1      O       2.3215880000     1.6540690000     0.3496470000
    2      C       1.6625290000     0.4826820000     0.2205650000
    3      C       2.3751570000    -0.7130220000     0.2555510000
    4      C       1.6995900000    -1.9339070000     0.1223310000
    5      C       0.3242810000    -1.9736830000    -0.0449390000
    6      C      -0.4182780000    -0.7805080000    -0.0836230000
    7      C      -1.8859690000    -0.8350400000    -0.2626020000
    8      O      -2.4984870000    -1.9278280000    -0.3826500000
    9      C      -2.5614070000     0.4351510000    -0.2897280000
   10      C      -1.9057060000     1.6402070000    -0.1595100000
   11      C      -0.4915400000     1.7275770000     0.0143260000
   12      O       0.1140710000     2.8536940000     0.1349750000
   13      C       0.2476150000     0.4679520000     0.0496520000
   14      H       1.6000330000     2.3612760000     0.2929000000
   15      H       3.4509800000    -0.6719370000     0.3867800000
   16      H       2.2680920000    -2.8593970000     0.1514470000
   17      H      -0.2124480000    -2.9086500000    -0.1492830000
   18      H      -3.6391630000     0.4022150000    -0.4207440000
   19      H      -2.4509370000     2.5791490000    -0.1850960000
 ----------------------------------------------------------------

    9    -610.6783556269      5.57e-06  Convergence criterion met
 Total energy in the final basis set =     -610.6783556269

                    Orbital Energies (a.u.)
 --------------------------------------------------------------

 Alpha MOs
 -- Occupied --
-19.1334 -19.0946 -19.0830 -10.2365 -10.2338 -10.2279 -10.1784 -10.1772
-10.1763 -10.1680 -10.1674 -10.1674 -10.1650  -1.0567  -1.0078  -1.0060
 -0.8577  -0.8076  -0.7464  -0.7423  -0.6818  -0.6291  -0.6162  -0.5732
 -0.5145  -0.5085  -0.5010  -0.4763  -0.4498  -0.4323  -0.4318  -0.4241
 -0.4021  -0.3950  -0.3938  -0.3812  -0.3801  -0.3598  -0.3492  -0.3331
 -0.2857  -0.2599  -0.2560  -0.2452  -0.2320  -0.1610

 Beta MOs
 -- Occupied --
-19.1332 -19.0891 -19.0769 -10.2364 -10.2316 -10.2265 -10.1780 -10.1774
-10.1760 -10.1668 -10.1666 -10.1656 -10.1646  -1.0553  -0.9984  -0.9955
 -0.8555  -0.8022  -0.7442  -0.7401  -0.6723  -0.6265  -0.6138  -0.5708
 -0.5130  -0.5063  -0.4979  -0.4734  -0.4489  -0.4296  -0.4235  -0.4195
 -0.3992  -0.3916  -0.3807  -0.3789  -0.3587  -0.3582  -0.3477  -0.3254
 -0.2584  -0.2553  -0.2508  -0.2398  -0.2238

          Ground-State Mulliken Net Atomic Charges

     Atom                 Charge (a.u.)    Spin (a.u.)
  --------------------------------------------------------
      1 O                    -0.411204       0.008733
      2 C                    -0.080277       0.033970
      3 C                    -0.181644       0.039751
      4 C                    -0.371388       0.024302
      5 C                    -0.128031       0.051627
      6 C                     0.407397       0.027702
      7 C                    -0.407539       0.091897
      8 O                    -0.506630       0.222504
      9 C                    -0.079713       0.139128
     10 C                    -0.217495       0.067876
     11 C                    -0.406691       0.139308
     12 O                    -0.538931       0.193970
     13 C                     0.570068      -0.007315
     14 H                     0.371895      -0.004125
     15 H                     0.203439      -0.003463
     16 H                     0.207085      -0.001915
     17 H                     0.167711      -0.003611
     18 H                     0.199543      -0.011174
     19 H                     0.202405      -0.009165
  --------------------------------------------------------
  Sum of atomic charges =    -1.000000

                    Cartesian Multipole Moments
 -----------------------------------------------------------------
    Charge (ESU x 10^10)
                -4.8032
    Dipole Moment (Debye)
         X       3.1659      Y      -1.7186      Z       0.3073
       Tot       3.6154
    Quadrupole Moments (Debye-Ang)
        XX     -95.4868     XY     -19.7568     YY    -103.0581
        XZ      -2.6379     YZ      -3.3434     ZZ     -80.9290

 Total job time:  38.17s(wall), 195.47s(cpu)
        *  Thank you very much for using Q-Chem.  Have a nice day.  *
