 Q-Chem 5.4, Q-Chem, Inc., Pleasanton, CA (2021)
 Q-Chem 5.4.0 for Intel X86 EM64T Linux

User input:
--------------------------------------------------------------
$molecule
-1 2
C                 -1.4480260000      2.3154420000     -3.9428910000
C                 -1.4099550000      0.9415690000     -4.0714330000
C                 -1.1111480000      0.1377780000     -2.9492710000
C                 -1.1924990000      2.9386110000     -2.7008550000
C                 -0.8917540000      2.1331000000     -1.5765060000
C                 -0.8580630000      0.7287220000     -1.7276970000
C                 -1.2519150000      4.3926870000     -2.6012240000
C                 -0.6087380000      2.7220360000     -0.2723350000
C                 -0.9903110000      4.9963790000     -1.3016690000
C                 -0.6457200000      4.1737830000     -0.1594490000
C                 -1.0662930000      6.4277310000     -1.1489490000
C                 -0.7730190000      6.9834960000      0.0973100000
C                 -0.4252690000      6.1920800000      1.1938310000
C                 -0.3443470000      4.8016420000      1.1026930000
O                 -1.5262350000      5.0670920000     -3.6470350000
O                 -0.3449750000      1.9475480000      0.7046230000
H                 -1.6759380000      2.9576910000     -4.7850330000
H                 -1.6096280000      0.4782740000     -5.0333000000
H                 -1.0804630000     -0.9433700000     -3.0486560000
H                 -0.6243970000      0.1385380000     -0.8497920000
H                 -0.2037460000      6.6848960000      2.1325940000
H                 -0.8240400000      8.0566780000      0.2347450000
N                 -1.4672420000      7.2204670000     -2.2133760000
N                  0.0596050000      4.0326280000      2.1830070000
H                 -1.5427470000      6.6785210000     -3.0812260000
H                 -0.0331590000      3.0293480000      1.9896720000
C                  0.0537770000      4.4846460000      3.5586630000
C                  0.8412800000      3.4784860000      4.4055890000
C                 -1.3667030000      4.6895430000      4.1246110000
C                 -1.2487920000      8.6495850000     -2.2979230000
C                  0.2380790000      9.0282440000     -2.4583510000
C                 -2.0835310000      9.2022250000     -3.4587710000
H                  0.5825390000      5.4459700000      3.6174830000
H                  0.8706560000      3.7895100000      5.4544510000
H                  1.8658380000      3.3839180000      4.0376620000
H                  0.3735590000      2.4894470000      4.3581850000
H                 -1.9415320000      5.3675670000      3.4900280000
H                 -1.3334850000      5.1086210000      5.1374290000
H                 -1.8973800000      3.7328820000      4.1630330000
H                 -1.6192600000      9.1193330000     -1.3763950000
H                  0.8370850000      8.5900500000     -1.6570740000
H                  0.3748730000     10.1160690000     -2.4370470000
H                  0.6214270000      8.6497300000     -3.4112790000
H                 -1.7759930000      8.7427470000     -4.4040230000
H                 -1.9553830000     10.2851880000     -3.5509300000
H                 -3.1437900000      8.9847420000     -3.3084600000
$end

$rem
BASIS  =  6-311++G(d,p)
GUI  =  2
JOB_TYPE  =  SP
METHOD  =  B3LYP
SCF_CONVERGENCE  = 8
SOLVENT_METHOD = sm12
$end

$smx
solvent dimethylformamide
charges CM5
$end

--------------------------------------------------------------

             Standard Nuclear Orientation (Angstroms)
    I     Atom           X                Y                Z
 ----------------------------------------------------------------
    1      C      -1.4480260000     2.3154420000    -3.9428910000
    2      C      -1.4099550000     0.9415690000    -4.0714330000
    3      C      -1.1111480000     0.1377780000    -2.9492710000
    4      C      -1.1924990000     2.9386110000    -2.7008550000
    5      C      -0.8917540000     2.1331000000    -1.5765060000
    6      C      -0.8580630000     0.7287220000    -1.7276970000
    7      C      -1.2519150000     4.3926870000    -2.6012240000
    8      C      -0.6087380000     2.7220360000    -0.2723350000
    9      C      -0.9903110000     4.9963790000    -1.3016690000
   10      C      -0.6457200000     4.1737830000    -0.1594490000
   11      C      -1.0662930000     6.4277310000    -1.1489490000
   12      C      -0.7730190000     6.9834960000     0.0973100000
   13      C      -0.4252690000     6.1920800000     1.1938310000
   14      C      -0.3443470000     4.8016420000     1.1026930000
   15      O      -1.5262350000     5.0670920000    -3.6470350000
   16      O      -0.3449750000     1.9475480000     0.7046230000
   17      H      -1.6759380000     2.9576910000    -4.7850330000
   18      H      -1.6096280000     0.4782740000    -5.0333000000
   19      H      -1.0804630000    -0.9433700000    -3.0486560000
   20      H      -0.6243970000     0.1385380000    -0.8497920000
   21      H      -0.2037460000     6.6848960000     2.1325940000
   22      H      -0.8240400000     8.0566780000     0.2347450000
   23      N      -1.4672420000     7.2204670000    -2.2133760000
   24      N       0.0596050000     4.0326280000     2.1830070000
   25      H      -1.5427470000     6.6785210000    -3.0812260000
   26      H      -0.0331590000     3.0293480000     1.9896720000
   27      C       0.0537770000     4.4846460000     3.5586630000
   28      C       0.8412800000     3.4784860000     4.4055890000
   29      C      -1.3667030000     4.6895430000     4.1246110000
   30      C      -1.2487920000     8.6495850000    -2.2979230000
   31      C       0.2380790000     9.0282440000    -2.4583510000
   32      C      -2.0835310000     9.2022250000    -3.4587710000
   33      H       0.5825390000     5.4459700000     3.6174830000
   34      H       0.8706560000     3.7895100000     5.4544510000
   35      H       1.8658380000     3.3839180000     4.0376620000
   36      H       0.3735590000     2.4894470000     4.3581850000
   37      H      -1.9415320000     5.3675670000     3.4900280000
   38      H      -1.3334850000     5.1086210000     5.1374290000
   39      H      -1.8973800000     3.7328820000     4.1630330000
   40      H      -1.6192600000     9.1193330000    -1.3763950000
   41      H       0.8370850000     8.5900500000    -1.6570740000
   42      H       0.3748730000    10.1160690000    -2.4370470000
   43      H       0.6214270000     8.6497300000    -3.4112790000
   44      H      -1.7759930000     8.7427470000    -4.4040230000
   45      H      -1.9553830000    10.2851880000    -3.5509300000
   46      H      -3.1437900000     8.9847420000    -3.3084600000
 ----------------------------------------------------------------

   16   -1035.7016367822      7.03e-09  Convergence criterion met
 Total energy in the final basis set =    -1035.7913558871

                    Orbital Energies (a.u.)
 --------------------------------------------------------------

 Alpha MOs
 -- Occupied --
-19.0745 -19.0745 -14.3036 -14.3035 -10.2256 -10.2256 -10.2113 -10.2112
-10.2103 -10.2103 -10.1798 -10.1793 -10.1763 -10.1759 -10.1756 -10.1755
-10.1751 -10.1747 -10.1691 -10.1686 -10.1619 -10.1619 -10.1608 -10.1608
 -1.0022  -1.0000  -0.9298  -0.9250  -0.8621  -0.8396  -0.7881  -0.7877
 -0.7658  -0.7548  -0.7408  -0.7100  -0.6905  -0.6899  -0.6672  -0.6425
 -0.6351  -0.6045  -0.5918  -0.5812  -0.5688  -0.5314  -0.5306  -0.5081
 -0.4925  -0.4830  -0.4736  -0.4670  -0.4602  -0.4486  -0.4444  -0.4418
 -0.4318  -0.4269  -0.4184  -0.4162  -0.4145  -0.4045  -0.4038  -0.3955
 -0.3895  -0.3872  -0.3870  -0.3790  -0.3762  -0.3710  -0.3637  -0.3561
 -0.3539  -0.3503  -0.3447  -0.3440  -0.3402  -0.3385  -0.3123  -0.2703
 -0.2603  -0.2556  -0.2470  -0.2442  -0.2339  -0.1861  -0.1357

 Beta MOs
 -- Occupied --
-19.0697 -19.0697 -14.3028 -14.3027 -10.2241 -10.2241 -10.2109 -10.2108
-10.2103 -10.2103 -10.1794 -10.1789 -10.1763 -10.1760 -10.1755 -10.1755
-10.1744 -10.1740 -10.1678 -10.1672 -10.1619 -10.1619 -10.1608 -10.1608
 -0.9942  -0.9918  -0.9280  -0.9234  -0.8601  -0.8379  -0.7871  -0.7845
 -0.7647  -0.7530  -0.7394  -0.7076  -0.6904  -0.6894  -0.6611  -0.6410
 -0.6330  -0.6042  -0.5909  -0.5802  -0.5671  -0.5296  -0.5294  -0.5070
 -0.4920  -0.4804  -0.4726  -0.4659  -0.4592  -0.4479  -0.4434  -0.4411
 -0.4298  -0.4238  -0.4172  -0.4134  -0.4100  -0.4029  -0.4001  -0.3940
 -0.3892  -0.3863  -0.3858  -0.3740  -0.3695  -0.3652  -0.3634  -0.3525
 -0.3514  -0.3490  -0.3445  -0.3410  -0.3388  -0.3305  -0.3066  -0.2543
 -0.2542  -0.2473  -0.2422  -0.2401  -0.2297  -0.1738

          Ground-State Mulliken Net Atomic Charges

     Atom                 Charge (a.u.)    Spin (a.u.)
  --------------------------------------------------------
      1 C                     0.121517       0.024294
      2 C                     0.898277       0.035610
      3 C                     0.899221       0.035604
      4 C                    -0.672104       0.038324
      5 C                    -0.673838       0.038350
      6 C                     0.123163       0.024270
      7 C                    -0.977602       0.077931
      8 C                    -0.980367       0.077773
      9 C                    -0.515212      -0.003979
     10 C                    -0.505205      -0.003880
     11 C                    -1.488156       0.030711
     12 C                     0.188961       0.089315
     13 C                     0.185368       0.089483
     14 C                    -1.486250       0.030572
     15 O                    -0.292477       0.178583
     16 O                    -0.292316       0.178548
     17 H                     0.163961      -0.000895
     18 H                     0.354780      -0.002809
     19 H                     0.354639      -0.002806
     20 H                     0.163798      -0.000885
     21 H                     0.341870      -0.007007
     22 H                     0.341615      -0.006988
     23 N                    -0.111239       0.036287
     24 N                    -0.112281       0.036221
     25 H                     0.316130      -0.001563
     26 H                     0.315551      -0.001557
     27 C                     0.121130       0.001742
     28 C                     0.123015      -0.000723
     29 C                    -0.268321       0.001033
     30 C                     0.121277       0.001917
     31 C                    -0.270249       0.000958
     32 C                     0.120565      -0.000739
     33 H                     0.116696       0.002608
     34 H                     0.292766      -0.000075
     35 H                     0.138642      -0.000007
     36 H                     0.154059      -0.000068
     37 H                     0.117435       0.001205
     38 H                     0.276061      -0.000156
     39 H                     0.099981      -0.000349
     40 H                     0.116397       0.002570
     41 H                     0.117081       0.001217
     42 H                     0.276239      -0.000155
     43 H                     0.100000      -0.000348
     44 H                     0.153821      -0.000063
     45 H                     0.292714      -0.000078
     46 H                     0.138886       0.000004
  --------------------------------------------------------
  Sum of atomic charges =    -1.000000

                    Cartesian Multipole Moments
 -----------------------------------------------------------------
    Charge (ESU x 10^10)
                -4.8032
    Dipole Moment (Debye)
         X       4.4830      Y     -17.0433      Z       6.9368
       Tot      18.9391
    Quadrupole Moments (Debye-Ang)
        XX    -161.1582     XY      18.8042     YY    -218.5124
        XZ      -9.9266     YZ      32.1518     ZZ    -172.9302

 Total job time:  2552.10s(wall), 18401.48s(cpu)
        *  Thank you very much for using Q-Chem.  Have a nice day.  *
