 Gaussian 16, Revision A.03,
 Gaussian 16:  ES64L-G16RevA.03 25-Dec-2016

 --------------------------------------
 #P UB3LYP/6-311++G(d,p) nosym opt freq
 --------------------------------------

 -------
 Radical
 -------
 Symbolic Z-matrix:
 Charge = -1 Multiplicity = 2

 SCF Done:  E(UB3LYP) =  -1035.70798176     A.U. after   21 cycles
 Optimization completed.
    -- Stationary point found.
 Normal termination of Gaussian 16 at Wed Dec 27 20:09:38 2023.

 ----------------------------------------------------------------------
 #P Geom=AllCheck Guess=TCheck SCRF=Check GenChk UB3LYP/6-311++G(d,p) F
 req
 ----------------------------------------------------------------------

 Structure from the checkpoint file:  "173-rad.chk"
 -------
 Radical
 -------
 Charge = -1 Multiplicity = 2

                          Input orientation:
 ---------------------------------------------------------------------
 Center     Atomic      Atomic             Coordinates (Angstroms)
 Number     Number       Type             X           Y           Z
 ---------------------------------------------------------------------
      1          6           0       -1.448026    2.315442   -3.942891
      2          6           0       -1.409955    0.941569   -4.071433
      3          6           0       -1.111148    0.137778   -2.949271
      4          6           0       -1.192499    2.938611   -2.700855
      5          6           0       -0.891754    2.133100   -1.576506
      6          6           0       -0.858063    0.728722   -1.727697
      7          6           0       -1.251915    4.392687   -2.601224
      8          6           0       -0.608738    2.722036   -0.272335
      9          6           0       -0.990311    4.996379   -1.301669
     10          6           0       -0.645720    4.173783   -0.159449
     11          6           0       -1.066293    6.427731   -1.148949
     12          6           0       -0.773019    6.983496    0.097310
     13          6           0       -0.425269    6.192080    1.193831
     14          6           0       -0.344347    4.801642    1.102693
     15          8           0       -1.526235    5.067092   -3.647035
     16          8           0       -0.344975    1.947548    0.704623
     17          1           0       -1.675938    2.957691   -4.785033
     18          1           0       -1.609628    0.478274   -5.033300
     19          1           0       -1.080463   -0.943370   -3.048656
     20          1           0       -0.624397    0.138538   -0.849792
     21          1           0       -0.203746    6.684896    2.132594
     22          1           0       -0.824040    8.056678    0.234745
     23          7           0       -1.467242    7.220467   -2.213376
     24          7           0        0.059605    4.032628    2.183007
     25          1           0       -1.542747    6.678521   -3.081226
     26          1           0       -0.033159    3.029348    1.989672
     27          6           0        0.053777    4.484646    3.558663
     28          6           0        0.841280    3.478486    4.405589
     29          6           0       -1.366703    4.689543    4.124611
     30          6           0       -1.248792    8.649585   -2.297923
     31          6           0        0.238079    9.028244   -2.458351
     32          6           0       -2.083531    9.202225   -3.458771
     33          1           0        0.582539    5.445970    3.617483
     34          1           0        0.870656    3.789510    5.454451
     35          1           0        1.865838    3.383918    4.037662
     36          1           0        0.373559    2.489447    4.358185
     37          1           0       -1.941532    5.367567    3.490028
     38          1           0       -1.333485    5.108621    5.137429
     39          1           0       -1.897380    3.732882    4.163033
     40          1           0       -1.619260    9.119333   -1.376395
     41          1           0        0.837085    8.590050   -1.657074
     42          1           0        0.374873   10.116069   -2.437047
     43          1           0        0.621427    8.649730   -3.411279
     44          1           0       -1.775993    8.742747   -4.404023
     45          1           0       -1.955383   10.285188   -3.550930
     46          1           0       -3.143790    8.984742   -3.308460
 ---------------------------------------------------------------------

 SCF Done:  E(UB3LYP) =  -1035.70798176     A.U. after    1 cycles

 Alpha  occ. eigenvalues --  -18.94847 -18.94847 -14.18525 -14.18514 -10.10934
 Alpha  occ. eigenvalues --  -10.10926 -10.09923 -10.09921 -10.08768 -10.08760
 Alpha  occ. eigenvalues --  -10.07154 -10.07148 -10.06509 -10.06501 -10.05843
 Alpha  occ. eigenvalues --  -10.05796 -10.05112 -10.05095 -10.05094 -10.05075
 Alpha  occ. eigenvalues --  -10.04872 -10.04825 -10.04617 -10.04564  -0.87628
 Alpha  occ. eigenvalues --   -0.87343  -0.81334  -0.80923  -0.73788  -0.72053
 Alpha  occ. eigenvalues --   -0.68294  -0.66769  -0.65565  -0.63036  -0.61833
 Alpha  occ. eigenvalues --   -0.59950  -0.59693  -0.58892  -0.54363  -0.52404
 Alpha  occ. eigenvalues --   -0.51724  -0.49432  -0.48156  -0.46265  -0.44520
 Alpha  occ. eigenvalues --   -0.41408  -0.41177  -0.39411  -0.38067  -0.36479
 Alpha  occ. eigenvalues --   -0.36147  -0.35459  -0.34876  -0.34173  -0.33683
 Alpha  occ. eigenvalues --   -0.32875  -0.31787  -0.31601  -0.30369  -0.30027
 Alpha  occ. eigenvalues --   -0.29947  -0.29524  -0.29399  -0.29041  -0.28723
 Alpha  occ. eigenvalues --   -0.28166  -0.27448  -0.26533  -0.26339  -0.25570
 Alpha  occ. eigenvalues --   -0.25234  -0.24832  -0.24629  -0.24605  -0.23867
 Alpha  occ. eigenvalues --   -0.22901  -0.21976  -0.21610  -0.19530  -0.14549
 Alpha  occ. eigenvalues --   -0.13517  -0.13417  -0.12351  -0.11884  -0.10911
 Alpha  occ. eigenvalues --   -0.06354  -0.01087
 Alpha virt. eigenvalues --    0.06625   0.06858   0.07576   0.08235   0.08608
 Alpha virt. eigenvalues --    0.08871   0.09132   0.09583   0.09889   0.10255
 Alpha virt. eigenvalues --    0.10270   0.11201   0.11945   0.12209   0.12274

  Beta  occ. eigenvalues --  -18.94350 -18.94349 -14.18473 -14.18462 -10.10936
  Beta  occ. eigenvalues --  -10.10927 -10.09763 -10.09762 -10.08742 -10.08734
  Beta  occ. eigenvalues --  -10.07154 -10.07148 -10.06506 -10.06498 -10.05797
  Beta  occ. eigenvalues --  -10.05749 -10.05103 -10.05102 -10.05098 -10.05061
  Beta  occ. eigenvalues --  -10.04790 -10.04743 -10.04489 -10.04435  -0.86806
  Beta  occ. eigenvalues --   -0.86493  -0.81187  -0.80795  -0.73585  -0.71912
  Beta  occ. eigenvalues --   -0.68250  -0.66539  -0.65319  -0.62861  -0.61667
  Beta  occ. eigenvalues --   -0.59902  -0.59685  -0.58691  -0.53715  -0.52284
  Beta  occ. eigenvalues --   -0.51533  -0.49377  -0.48039  -0.46182  -0.44358
  Beta  occ. eigenvalues --   -0.41200  -0.41079  -0.39331  -0.38027  -0.36295
  Beta  occ. eigenvalues --   -0.36056  -0.35413  -0.34721  -0.34080  -0.33575
  Beta  occ. eigenvalues --   -0.32821  -0.31663  -0.31556  -0.30334  -0.30013
  Beta  occ. eigenvalues --   -0.29866  -0.29302  -0.28903  -0.28866  -0.28529
  Beta  occ. eigenvalues --   -0.27689  -0.27296  -0.26326  -0.26176  -0.25465
  Beta  occ. eigenvalues --   -0.24808  -0.24593  -0.24569  -0.23788  -0.23251
  Beta  occ. eigenvalues --   -0.22749  -0.21450  -0.20837  -0.18901  -0.13243
  Beta  occ. eigenvalues --   -0.12917  -0.12111  -0.11980  -0.11445  -0.10484
  Beta  occ. eigenvalues --   -0.05233
  Beta virt. eigenvalues --    0.04173   0.06623   0.06865   0.08228   0.08339
  Beta virt. eigenvalues --    0.08612   0.08933   0.09237   0.09586   0.10249
  Beta virt. eigenvalues --    0.10250   0.10836   0.11200   0.11945   0.12217

 Mulliken charges and spin densities:
               1          2
     1  C   -0.143115   0.018676
     2  C   -0.358206   0.037877
     3  C   -0.357980   0.037933
     4  C    0.400407   0.040685
     5  C    0.400546   0.040708
     6  C   -0.142706   0.018647
     7  C   -0.411089   0.083554
     8  C   -0.409863   0.083550
     9  C    0.110254   0.010056
    10  C    0.110993   0.009916
    11  C   -0.439587   0.018991
    12  C    0.011520   0.086601
    13  C    0.012255   0.086810
    14  C   -0.439194   0.018916
    15  O   -0.379025   0.186345
    16  O   -0.379281   0.186293
    17  H    0.146797  -0.000705
    18  H    0.124313  -0.003153
    19  H    0.124310  -0.003157
    20  H    0.146809  -0.000703
    21  H    0.148463  -0.006851
    22  H    0.148317  -0.006862
    23  N   -0.020256   0.024847
    24  N   -0.021052   0.024850
    25  H    0.407709  -0.001438
    26  H    0.407784  -0.001433
    27  C    0.094887   0.000651
    28  C   -0.554195  -0.000812
    29  C   -0.541134   0.000591
    30  C    0.094829   0.000875
    31  C   -0.542208   0.000528
    32  C   -0.554477  -0.000820
    33  H    0.092896   0.003252
    34  H    0.124601  -0.000068
    35  H    0.151666  -0.000115
    36  H    0.138507   0.000019
    37  H    0.143943   0.001659
    38  H    0.102226  -0.000329
    39  H    0.147763  -0.000380
    40  H    0.092821   0.003184
    41  H    0.144000   0.001678
    42  H    0.102223  -0.000329
    43  H    0.147836  -0.000374
    44  H    0.138550   0.000022
    45  H    0.124460  -0.000068
    46  H    0.151682  -0.000117
 Sum of Mulliken charges =  -1.00000   1.00000

 Dipole moment (field-independent basis, Debye):
    X=              4.3823    Y=            -17.9270    Z=              6.3299  Tot=             19.5102
 Quadrupole moment (field-independent basis, Debye-Ang):
   XX=           -161.4452   YY=           -236.4419   ZZ=           -181.5731
   XY=             18.9888   XZ=            -10.7740   YZ=             29.8888

  Exact polarizability: 180.365  -1.854 418.461  44.123  31.266 387.333
 Approx polarizability: 284.085 -10.757 641.403  76.893  40.842 596.686

                      1                      2                      3
                      A                      A                      A
 Frequencies --     25.1795                30.7938                42.1929
 Red. masses --      3.8530                 3.5992                 3.1486
 Frc consts  --      0.0014                 0.0020                 0.0033
 IR Inten    --      4.0991                 0.2697                 0.3528

                      4                      5                      6
                      A                      A                      A
 Frequencies --     53.4757                59.6299                81.9109
 Red. masses --      4.0001                 5.3914                 3.9194
 Frc consts  --      0.0067                 0.0113                 0.0155
 IR Inten    --      0.0865                 2.9395                 0.3227

                      7                      8                      9
                      A                      A                      A
 Frequencies --     96.6052               112.9465               133.9627
 Red. masses --      3.2089                 3.5823                 4.9607
 Frc consts  --      0.0176                 0.0269                 0.0525
 IR Inten    --      2.0818                 0.0671                 0.0798

                     10                     11                     12
                      A                      A                      A
 Frequencies --    143.4139               177.8275               223.2845
 Red. masses --      4.4914                 7.2919                 1.3065
 Frc consts  --      0.0544                 0.1359                 0.0384
 IR Inten    --      2.5698                 0.4860                 0.2475

                     13                     14                     15
                      A                      A                      A
 Frequencies --    225.2906               227.9211               241.8212
 Red. masses --      1.0425                 1.4318                 3.4512
 Frc consts  --      0.0312                 0.0438                 0.1189
 IR Inten    --      0.6095                 0.7598                 0.0695

                     16                     17                     18
                      A                      A                      A
 Frequencies --    250.3957               252.1003               266.3448
 Red. masses --      1.1139                 4.7149                 1.9211
 Frc consts  --      0.0411                 0.1766                 0.0803
 IR Inten    --      1.0256                 2.4359                 3.0045

                     19                     20                     21
                      A                      A                      A
 Frequencies --    272.7523               322.0377               348.7515
 Red. masses --      2.6606                 3.4568                 5.3170
 Frc consts  --      0.1166                 0.2112                 0.3810
 IR Inten    --      0.4589                 0.2938                 1.0042

                     22                     23                     24
                      A                      A                      A
 Frequencies --    376.5419               391.1002               393.5879
 Red. masses --      3.2575                 4.3311                 3.2042
 Frc consts  --      0.2721                 0.3903                 0.2924
 IR Inten    --      1.1964                 3.5838                 2.3820

                     25                     26                     27
                      A                      A                      A
 Frequencies --    415.7647               420.3713               422.3812
 Red. masses --      6.0670                 3.6342                 4.3559
 Frc consts  --      0.6179                 0.3784                 0.4579
 IR Inten    --      3.2680                 3.4326                 3.7383

                     28                     29                     30
                      A                      A                      A
 Frequencies --    441.6682               442.9071               470.0979
 Red. masses --      3.4443                11.2655                 3.7316
 Frc consts  --      0.3959                 1.3020                 0.4859
 IR Inten    --      3.7056                 6.1668                16.1840

                     31                     32                     33
                      A                      A                      A
 Frequencies --    474.3392               501.9716               505.9561
 Red. masses --      2.5982                 6.1628                 4.1990
 Frc consts  --      0.3444                 0.9149                 0.6333
 IR Inten    --     18.9278                 0.1448                 2.1694

                     34                     35                     36
                      A                      A                      A
 Frequencies --    512.3733               595.5989               616.7825
 Red. masses --      5.3806                 3.0565                 5.2286
 Frc consts  --      0.8323                 0.6388                 1.1719
 IR Inten    --     16.0131                28.0853                 0.0011

                     37                     38                     39
                      A                      A                      A
 Frequencies --    631.9177               647.3813               678.8365
 Red. masses --      5.6090                 5.0150                 4.8924
 Frc consts  --      1.3196                 1.2383                 1.3283
 IR Inten    --      8.3775                 0.0275                 9.6067

                     40                     41                     42
                      A                      A                      A
 Frequencies --    710.0586               726.1436               741.7077
 Red. masses --      1.7778                 6.1947                 4.8833
 Frc consts  --      0.5281                 1.9245                 1.5828
 IR Inten    --     26.9976                 0.7361                 0.6834

                     43                     44                     45
                      A                      A                      A
 Frequencies --    742.5744               761.7346               780.2650
 Red. masses --      1.6058                 1.3163                 1.7149
 Frc consts  --      0.5217                 0.4500                 0.6151
 IR Inten    --    165.3346                 0.2486                38.7257

                     46                     47                     48
                      A                      A                      A
 Frequencies --    793.2199               801.5680               807.9543
 Red. masses --      2.3464                 5.0707                 3.1183
 Frc consts  --      0.8699                 1.9196                 1.1993
 IR Inten    --      3.5017                 0.0081                19.5981

                     49                     50                     51
                      A                      A                      A
 Frequencies --    838.7324               842.0271               866.9301
 Red. masses --      2.2199                 2.0506                 1.4530
 Frc consts  --      0.9201                 0.8566                 0.6434
 IR Inten    --      3.7914                17.6883                 1.2626

                     52                     53                     54
                      A                      A                      A
 Frequencies --    869.5569               873.4145               895.5637
 Red. masses --      1.6804                 3.1841                 4.1953
 Frc consts  --      0.7486                 1.4311                 1.9824
 IR Inten    --      5.4233                17.7698                18.3431

                     55                     56                     57
                      A                      A                      A
 Frequencies --    926.0297               926.4970               939.2114
 Red. masses --      1.3028                 1.3007                 2.3505
 Frc consts  --      0.6582                 0.6578                 1.2216
 IR Inten    --      1.5200                 6.1166                 0.8990

                     58                     59                     60
                      A                      A                      A
 Frequencies --    944.7070               951.2104               975.6955
 Red. masses --      1.3566                 1.8222                 2.3505
 Frc consts  --      0.7134                 0.9714                 1.3184
 IR Inten    --      2.0025                 9.8467                11.1924

                     61                     62                     63
                      A                      A                      A
 Frequencies --    981.3142               981.4443              1034.6394
 Red. masses --      1.3504                 1.2650                 2.3201
 Frc consts  --      0.7662                 0.7179                 1.4633
 IR Inten    --      2.0651                 0.2286                 9.9732

                     64                     65                     66
                      A                      A                      A
 Frequencies --   1035.2911              1082.8296              1110.6005
 Red. masses --      2.1824                 2.3259                 2.1249
 Frc consts  --      1.3782                 1.6068                 1.5442
 IR Inten    --     39.5167                 0.5390                25.2397

                     67                     68                     69
                      A                      A                      A
 Frequencies --   1133.0483              1133.7588              1148.7729
 Red. masses --      2.1455                 2.1887                 1.3174
 Frc consts  --      1.6229                 1.6576                 1.0243
 IR Inten    --     23.3476                 0.3707                 7.7831

                     70                     71                     72
                      A                      A                      A
 Frequencies --   1175.0949              1179.0071              1189.3252
 Red. masses --      1.9869                 1.9477                 1.9816
 Frc consts  --      1.6165                 1.5952                 1.6514
 IR Inten    --     13.1292                 2.0429                 3.6917

                     73                     74                     75
                      A                      A                      A
 Frequencies --   1193.3559              1203.3825              1203.9857
 Red. masses --      2.3495                 1.9449                 2.2565
 Frc consts  --      1.9714                 1.6594                 1.9272
 IR Inten    --     78.9945               108.5186                43.6760

                     76                     77                     78
                      A                      A                      A
 Frequencies --   1230.0083              1250.1590              1276.5176
 Red. masses --      3.4347                 1.9754                 2.5914
 Frc consts  --      3.0617                 1.8190                 2.4879
 IR Inten    --      0.0000                34.2440                 0.0511

                     79                     80                     81
                      A                      A                      A
 Frequencies --   1291.6711              1313.7473              1336.1282
 Red. masses --      2.9121                 6.8207                 2.0197
 Frc consts  --      2.8626                 6.9359                 2.1244
 IR Inten    --      6.4448                97.1836               220.1905

                     82                     83                     84
                      A                      A                      A
 Frequencies --   1357.5360              1357.8454              1367.5698
 Red. masses --      1.3742                 1.3507                 6.4563
 Frc consts  --      1.4921                 1.4673                 7.1143
 IR Inten    --      1.3806                 9.3872                 0.5271

                     85                     86                     87
                      A                      A                      A
 Frequencies --   1368.8421              1369.8230              1385.6864
 Red. masses --      1.5076                 1.2978                 1.2490
 Frc consts  --      1.6643                 1.4348                 1.4130
 IR Inten    --      9.3665               115.2252                23.2514

                     88                     89                     90
                      A                      A                      A
 Frequencies --   1385.7939              1389.6869              1394.5343
 Red. masses --      1.2703                 3.5246                 2.8192
 Frc consts  --      1.4373                 4.0105                 3.2302
 IR Inten    --      2.7528                86.7835               359.4873

                     91                     92                     93
                      A                      A                      A
 Frequencies --   1407.6227              1407.9298              1454.6757
 Red. masses --      1.2656                 1.2829                 4.4697
 Frc consts  --      1.4775                 1.4983                 5.5726
 IR Inten    --     23.9841                 7.1453                 5.7040

                     94                     95                     96
                      A                      A                      A
 Frequencies --   1476.4035              1481.3706              1481.4230
 Red. masses --      3.9460                 1.0652                 1.5136
 Frc consts  --      5.0678                 1.3772                 1.9571
 IR Inten    --    148.4485                 5.1277                32.1740

                     97                     98                     99
                      A                      A                      A
 Frequencies --   1481.9913              1487.6731              1488.3168
 Red. masses --      1.2978                 1.0563                 1.0758
 Frc consts  --      1.6794                 1.3774                 1.4040
 IR Inten    --     13.1026                 0.1378                 2.2555

                    100                    101                    102
                      A                      A                      A
 Frequencies --   1494.3288              1495.9092              1509.3061
 Red. masses --      1.0557                 1.0972                 1.0603
 Frc consts  --      1.3890                 1.4466                 1.4232
 IR Inten    --     20.2661                 1.0922                 2.0080

                    103                    104                    105
                      A                      A                      A
 Frequencies --   1509.7636              1514.2662              1547.2996
 Red. masses --      1.0651                 5.5202                 2.1897
 Frc consts  --      1.4303                 7.4578                 3.0888
 IR Inten    --      4.7592               757.0059               404.4360

                    106                    107                    108
                      A                      A                      A
 Frequencies --   1561.1134              1603.4230              1611.3259
 Red. masses --      3.3864                 2.2040                 2.4708
 Frc consts  --      4.8624                 3.3386                 3.7797
 IR Inten    --     19.9998               400.6670                13.3720

                    109                    110                    111
                      A                      A                      A
 Frequencies --   1623.2928              1631.2748              2972.8597
 Red. masses --      5.1957                 7.7057                 1.0828
 Frc consts  --      8.0665                12.0814                 5.6380
 IR Inten    --      4.8099                52.8261                25.2224

                    112                    113                    114
                      A                      A                      A
 Frequencies --   2973.5508              3003.6355              3003.8546
 Red. masses --      1.0829                 1.0390                 1.0389
 Frc consts  --      5.6412                 5.5229                 5.5231
 IR Inten    --     81.9669                77.6772                55.1120

                    115                    116                    117
                      A                      A                      A
 Frequencies --   3016.6010              3016.7980              3065.1285
 Red. masses --      1.0355                 1.0354                 1.0986
 Frc consts  --      5.5516                 5.5523                 6.0810
 IR Inten    --    123.1983                11.9238                13.4009

                    118                    119                    120
                      A                      A                      A
 Frequencies --   3065.2556              3077.2237              3077.4332
 Red. masses --      1.0986                 1.1009                 1.1009
 Frc consts  --      6.0815                 6.1423                 6.1428
 IR Inten    --     24.4343                36.5132               143.2985

                    121                    122                    123
                      A                      A                      A
 Frequencies --   3092.2629              3092.3214              3096.8974
 Red. masses --      1.1011                 1.1011                 1.0995
 Frc consts  --      6.2035                 6.2037                 6.2132
 IR Inten    --     17.1780                48.4473                34.5586

                    124                    125                    126
                      A                      A                      A
 Frequencies --   3097.0358              3133.4187              3152.8828
 Red. masses --      1.0995                 1.0848                 1.0917
 Frc consts  --      6.2138                 6.2754                 6.3938
 IR Inten    --     11.2841                19.2267                64.0752

                    127                    128                    129
                      A                      A                      A
 Frequencies --   3164.5981              3184.1256              3188.5863
 Red. masses --      1.0844                 1.0917                 1.0911
 Frc consts  --      6.3984                 6.5211                 6.5360
 IR Inten    --     42.4499                41.5412                 8.3527

                    130                    131                    132
                      A                      A                      A
 Frequencies --   3190.7788              3284.1720              3285.3607
 Red. masses --      1.0923                 1.0816                 1.0817
 Frc consts  --      6.5524                 6.8733                 6.8793
 IR Inten    --     30.2463                27.9420               272.2497

 - Thermochemistry -
 -------------------
 Temperature   298.150 Kelvin.  Pressure   1.00000 Atm.
 Atom     1 has atomic number  6 and mass  12.00000

 Molecular mass:   322.16813 amu.
 Principal axes and moments of inertia in atomic units:
                           1         2         3
     Eigenvalues --  7619.103078356.96742**********
           X            0.16070   0.08975   0.98292
           Y           -0.56853   0.82247   0.01785
           Z            0.80681   0.56169  -0.18319
 This molecule is an asymmetric top.
 Rotational symmetry number  1.
 Warning -- assumption of classical behavior for rotation
           may cause significant error
 Rotational temperatures (Kelvin)      0.01137     0.01036     0.00565
 Rotational constants (GHZ):           0.23687     0.21596     0.11781
 Zero-point vibrational energy     990555.3 (Joules/Mol)
                                  236.74839 (Kcal/Mol)
 Warning -- explicit consideration of  36 degrees of freedom as
           vibrations may cause significant error
 Vibrational temperatures:     36.23    44.31    60.71    76.94    85.79
          (Kelvin)            117.85   138.99   162.50   192.74   206.34
                              255.85   321.26   324.14   327.93   347.93
                              360.26   362.72   383.21   392.43   463.34
                              501.78   541.76   562.71   566.29   598.19
                              604.82   607.71   635.46   637.24   676.37
                              682.47   722.23   727.96   737.19   856.93
                              887.41   909.19   931.44   976.69  1021.62
                             1044.76  1067.15  1068.40  1095.97  1122.63
                             1141.27  1153.28  1162.47  1206.75  1211.49
                             1247.32  1251.10  1256.65  1288.52  1332.35
                             1333.02  1351.32  1359.22  1368.58  1403.81
                             1411.89  1412.08  1488.62  1489.55  1557.95
                             1597.91  1630.20  1631.23  1652.83  1690.70
                             1696.33  1711.17  1716.97  1731.40  1732.27
                             1769.71  1798.70  1836.62  1858.43  1890.19
                             1922.39  1953.19  1953.64  1967.63  1969.46
                             1970.87  1993.69  1993.85  1999.45  2006.42
                             2025.26  2025.70  2092.95  2124.22  2131.36
                             2131.44  2132.25  2140.43  2141.36  2150.01
                             2152.28  2171.55  2172.21  2178.69  2226.22
                             2246.09  2306.97  2318.34  2335.56  2347.04
                             4277.28  4278.28  4321.56  4321.88  4340.22
                             4340.50  4410.04  4410.22  4427.44  4427.74
                             4449.08  4449.16  4455.74  4455.94  4508.29
                             4536.30  4553.15  4581.25  4587.66  4590.82
                             4725.19  4726.90

 Zero-point correction=                           0.377283 (Hartree/Particle)
 Thermal correction to Energy=                    0.399533
 Thermal correction to Enthalpy=                  0.400477
 Thermal correction to Gibbs Free Energy=         0.324753
 Sum of electronic and zero-point Energies=          -1035.330699
 Sum of electronic and thermal Energies=             -1035.308449
 Sum of electronic and thermal Enthalpies=           -1035.307505
 Sum of electronic and thermal Free Energies=        -1035.383229

                     E (Thermal)             CV                S
                      KCal/Mol        Cal/Mol-Kelvin    Cal/Mol-Kelvin
 Total                  250.711             87.356            159.376
 Electronic               0.000              0.000              1.377
 Translational            0.889              2.981             43.205
 Rotational               0.889              2.981             35.232
 Vibrational            248.933             81.394             79.561
 Vibration     1          0.593              1.985              6.177
 Vibration     2          0.594              1.984              5.778
 Vibration     3          0.595              1.980              5.153
 Vibration     4          0.596              1.976              4.685
 Vibration     5          0.597              1.974              4.469
 Vibration     6          0.600              1.962              3.845
 Vibration     7          0.603              1.952              3.522
 Vibration     8          0.607              1.939              3.218
 Vibration     9          0.613              1.919              2.888
 Vibration    10          0.616              1.910              2.758
 Vibration    11          0.628              1.870              2.351
 Vibration    12          0.649              1.806              1.932
 Vibration    13          0.650              1.803              1.916
 Vibration    14          0.651              1.798              1.895
 Vibration    15          0.658              1.776              1.789
 Vibration    16          0.663              1.762              1.728
 Vibration    17          0.664              1.759              1.716
 Vibration    18          0.672              1.735              1.620
 Vibration    19          0.676              1.724              1.579
 Vibration    20          0.707              1.631              1.300
 Vibration    21          0.726              1.578              1.172
 Vibration    22          0.747              1.520              1.053
 Vibration    23          0.759              1.489              0.996
 Vibration    24          0.761              1.484              0.987
 Vibration    25          0.779              1.436              0.906
 Vibration    26          0.783              1.426              0.891
 Vibration    27          0.785              1.422              0.884
 Vibration    28          0.801              1.379              0.821
 Vibration    29          0.803              1.377              0.818
 Vibration    30          0.827              1.316              0.737
 Vibration    31          0.831              1.307              0.725
 Vibration    32          0.857              1.246              0.653
 Vibration    33          0.861              1.237              0.643
 Vibration    34          0.867              1.223              0.628
 Vibration    35          0.953              1.041              0.457
 Vibration    36          0.976              0.996              0.422

                           ! Non-Optimized Parameters !
 Normal termination of Gaussian 16 at Thu Dec 28 00:56:13 2023.
