 Gaussian 16, Revision A.03,
 Gaussian 16:  ES64L-G16RevA.03 25-Dec-2016

 ----------------------------------------------------------------
 #P UB3LYP/6-311++G(d,p) SCRF=(PCM,Solvent=n,n-DiMethylFormamide)
 ----------------------------------------------------------------

 ------------------
 Quinone PCM in DMF
 ------------------
 Symbolic Z-matrix:
 Charge =  0 Multiplicity = 1

                         Standard orientation:
 ---------------------------------------------------------------------
 Center     Atomic      Atomic             Coordinates (Angstroms)
 Number     Number       Type             X           Y           Z
 ---------------------------------------------------------------------
      1          8           0        5.037195   -0.574160   -0.000091
      2          6           0        3.749237   -0.136579   -0.000078
      3          6           0        3.545514    1.250134   -0.000064
      4          6           0        2.256257    1.752414    0.000018
      5          6           0        1.148966    0.892450    0.000075
      6          6           0       -0.218722    1.462183    0.000088
      7          8           0       -0.416221    2.668213    0.000083
      8          6           0       -1.363166    0.496832    0.000051
      9          6           0       -2.660527    1.006022    0.000078
     10          6           0       -3.749212    0.136544   -0.000024
     11          8           0       -5.037225    0.574152   -0.000162
     12          6           0       -3.545517   -1.250149    0.000045
     13          6           0       -2.256225   -1.752421    0.000029
     14          6           0       -1.148987   -0.892448   -0.000017
     15          6           0        0.218732   -1.462168    0.000017
     16          8           0        0.416232   -2.668197    0.000062
     17          6           0        1.363165   -0.496809    0.000011
     18          6           0        2.660537   -1.006014   -0.000084
     19          1           0        5.059772   -1.537686    0.000387
     20          1           0        4.407222    1.906376   -0.000089
     21          1           0        2.078858    2.820801    0.000028
     22          1           0       -2.794316    2.082885    0.000123
     23          1           0       -5.059808    1.537686   -0.000520
     24          1           0       -4.407238   -1.906369    0.000068
     25          1           0       -2.078871   -2.820814    0.000086
     26          1           0        2.794224   -2.082894   -0.000081
 ---------------------------------------------------------------------

 SCF Done:  E(UB3LYP) =  -839.469788767     A.U. after   15 cycles

 The electronic state is 1-A.
 Alpha  occ. eigenvalues --  -19.17774 -19.17773 -19.13035 -19.13034 -10.28311
 Alpha  occ. eigenvalues --  -10.28310 -10.26698 -10.26697 -10.21370 -10.21369
 Alpha  occ. eigenvalues --  -10.20429 -10.20428 -10.20241 -10.20240 -10.19926
 Alpha  occ. eigenvalues --  -10.19925 -10.19781 -10.19780  -1.09026  -1.09022
 Alpha  occ. eigenvalues --   -1.06580  -1.06400  -0.89559  -0.88309  -0.81212
 Alpha  occ. eigenvalues --   -0.78446  -0.78025  -0.76926  -0.69144  -0.68567
 Alpha  occ. eigenvalues --   -0.64613  -0.64502  -0.59200  -0.58843  -0.56940
 Alpha  occ. eigenvalues --   -0.56700  -0.51391  -0.50299  -0.49842  -0.49616
 Alpha  occ. eigenvalues --   -0.46057  -0.45907  -0.45868  -0.45470  -0.45221
 Alpha  occ. eigenvalues --   -0.43921  -0.42893  -0.42721  -0.42362  -0.41953
 Alpha  occ. eigenvalues --   -0.40625  -0.39294  -0.37947  -0.36924  -0.36617
 Alpha  occ. eigenvalues --   -0.34936  -0.28906  -0.28830  -0.28195  -0.27700
 Alpha  occ. eigenvalues --   -0.26396  -0.25165
 Alpha virt. eigenvalues --   -0.11715  -0.07339  -0.02955  -0.02795  -0.00910
 Alpha virt. eigenvalues --   -0.00388   0.00773   0.00865   0.02052   0.03174
 Alpha virt. eigenvalues --    0.03426   0.03614   0.03615   0.04245   0.04746

  Beta  occ. eigenvalues --  -19.17774 -19.17773 -19.13035 -19.13034 -10.28311
  Beta  occ. eigenvalues --  -10.28310 -10.26698 -10.26697 -10.21370 -10.21369
  Beta  occ. eigenvalues --  -10.20429 -10.20428 -10.20241 -10.20240 -10.19926
  Beta  occ. eigenvalues --  -10.19925 -10.19781 -10.19780  -1.09026  -1.09022
  Beta  occ. eigenvalues --   -1.06580  -1.06400  -0.89559  -0.88309  -0.81212
  Beta  occ. eigenvalues --   -0.78446  -0.78025  -0.76926  -0.69144  -0.68567
  Beta  occ. eigenvalues --   -0.64613  -0.64502  -0.59200  -0.58843  -0.56940
  Beta  occ. eigenvalues --   -0.56700  -0.51391  -0.50299  -0.49842  -0.49616
  Beta  occ. eigenvalues --   -0.46057  -0.45907  -0.45868  -0.45470  -0.45221
  Beta  occ. eigenvalues --   -0.43921  -0.42893  -0.42721  -0.42362  -0.41953
  Beta  occ. eigenvalues --   -0.40625  -0.39294  -0.37947  -0.36924  -0.36617
  Beta  occ. eigenvalues --   -0.34936  -0.28906  -0.28830  -0.28195  -0.27700
  Beta  occ. eigenvalues --   -0.26396  -0.25165
  Beta virt. eigenvalues --   -0.11715  -0.07339  -0.02955  -0.02795  -0.00910
  Beta virt. eigenvalues --   -0.00388   0.00773   0.00865   0.02052   0.03174
  Beta virt. eigenvalues --    0.03426   0.03614   0.03615   0.04245   0.04746

 Mulliken charges and spin densities:
               1          2
     1  O   -0.249647  -0.000000
     2  C   -0.644090   0.000000
     3  C   -0.150360  -0.000000
     4  C    0.211654  -0.000000
     5  C    0.177864   0.000000
     6  C   -0.641796  -0.000000
     7  O   -0.283869  -0.000000
     8  C    0.367165  -0.000000
     9  C    0.307595  -0.000000
    10  C   -0.644073   0.000000
    11  O   -0.249692   0.000000
    12  C   -0.150373   0.000000
    13  C    0.211676  -0.000000
    14  C    0.177857  -0.000000
    15  C   -0.641892   0.000000
    16  O   -0.283859   0.000000
    17  C    0.367274   0.000000
    18  C    0.307588   0.000000
    19  H    0.312381   0.000000
    20  H    0.231294  -0.000000
    21  H    0.191126   0.000000
    22  H    0.170691   0.000000
    23  H    0.312374  -0.000000
    24  H    0.231294   0.000000
    25  H    0.191129   0.000000
    26  H    0.170690  -0.000000
 Sum of Mulliken charges =  -0.00000  -0.00000

 Dipole moment (field-independent basis, Debye):
    X=              0.0007    Y=             -0.0003    Z=              0.0001  Tot=              0.0008
 Quadrupole moment (field-independent basis, Debye-Ang):
   XX=            -84.0911   YY=           -106.7916   ZZ=           -105.1237
   XY=             -9.2883   XZ=              0.0077   YZ=             -0.0033

 Normal termination of Gaussian 16 at Tue Jan 16 05:02:19 2024.
