 Gaussian 16, Revision A.03,
 Gaussian 16:  ES64L-G16RevA.03 25-Dec-2016

 ----------------------------------------------------------------
 #P UB3LYP/6-311++G(d,p) SCRF=(PCM,Solvent=n,n-DiMethylFormamide)
 ----------------------------------------------------------------

 -------
 Reduced
 -------
 Symbolic Z-matrix:
 Charge = -2 Multiplicity = 1

                         Standard orientation:
 ---------------------------------------------------------------------
 Center     Atomic      Atomic             Coordinates (Angstroms)
 Number     Number       Type             X           Y           Z
 ---------------------------------------------------------------------
      1          6           0        2.923183    0.781319    0.020477
      2          6           0        3.826053   -0.263734    0.008196
      3          6           0        3.356292   -1.606476   -0.026474
      4          6           0        1.516924    0.570980   -0.000688
      5          6           0        1.038529   -0.803052   -0.022672
      6          6           0        1.990580   -1.844153   -0.041370
      7          6           0        0.618773    1.691052    0.006435
      8          6           0       -0.759634    1.342695   -0.020171
      9          6           0       -1.241091    0.010926    0.010890
     10          6           0       -0.381587   -1.125677   -0.025089
     11          8           0        0.995648    2.944192    0.057282
     12          8           0       -0.820974   -2.347040   -0.055612
     13          7           0       -1.663029    2.432278   -0.076091
     14          1           0        3.256379    1.815095    0.044222
     15          1           0        4.897133   -0.061105    0.021645
     16          1           0        4.062076   -2.436124   -0.038798
     17          1           0        1.595048   -2.856130   -0.063510
     18          1           0       -1.162410    3.259309    0.247034
     19          1           0       -2.525321    2.232399    0.417657
     20          7           0       -2.688690   -0.155847    0.069243
     21          6           0       -3.253525   -0.622618   -1.194305
     22          6           0       -3.141817   -0.964709    1.198511
     23          1           0       -2.958288    0.068847   -1.988151
     24          1           0       -4.354990   -0.623204   -1.134814
     25          1           0       -2.909809   -1.636066   -1.458030
     26          1           0       -2.754742   -0.526415    2.124055
     27          1           0       -2.793201   -2.006331    1.136752
     28          1           0       -4.243304   -0.941843    1.244084
 ---------------------------------------------------------------------

 SCF Done:  E(UB3LYP) =  -724.882460906     A.U. after   18 cycles

 The electronic state is 1-A.
 Alpha  occ. eigenvalues --  -19.01197 -19.01007 -14.28068 -14.27675 -10.16611
 Alpha  occ. eigenvalues --  -10.16481 -10.16087 -10.15598 -10.15267 -10.14533
 Alpha  occ. eigenvalues --  -10.14174 -10.14165 -10.14086 -10.13955 -10.13136
 Alpha  occ. eigenvalues --  -10.12872  -0.93083  -0.92301  -0.88938  -0.85600
 Alpha  occ. eigenvalues --   -0.81709  -0.74713  -0.71662  -0.68907  -0.68140
 Alpha  occ. eigenvalues --   -0.63771  -0.60808  -0.57023  -0.55283  -0.52211
 Alpha  occ. eigenvalues --   -0.49884  -0.47417  -0.45518  -0.43035  -0.42798
 Alpha  occ. eigenvalues --   -0.42569  -0.41269  -0.40154  -0.39106  -0.37907
 Alpha  occ. eigenvalues --   -0.37449  -0.36332  -0.35930  -0.35138  -0.34418
 Alpha  occ. eigenvalues --   -0.33406  -0.32634  -0.31691  -0.30598  -0.29613
 Alpha  occ. eigenvalues --   -0.27113  -0.22386  -0.21573  -0.21366  -0.19435
 Alpha  occ. eigenvalues --   -0.18200  -0.17435  -0.10443
 Alpha virt. eigenvalues --   -0.00177  -0.00044   0.00791   0.01364   0.01920
 Alpha virt. eigenvalues --    0.02531   0.02582   0.02851   0.04259   0.04792
 Alpha virt. eigenvalues --    0.05067   0.05182   0.05785   0.06509   0.07220

  Beta  occ. eigenvalues --  -19.01197 -19.01007 -14.28068 -14.27675 -10.16611
  Beta  occ. eigenvalues --  -10.16481 -10.16087 -10.15598 -10.15267 -10.14533
  Beta  occ. eigenvalues --  -10.14174 -10.14165 -10.14086 -10.13955 -10.13136
  Beta  occ. eigenvalues --  -10.12872  -0.93083  -0.92301  -0.88938  -0.85600
  Beta  occ. eigenvalues --   -0.81709  -0.74713  -0.71662  -0.68907  -0.68140
  Beta  occ. eigenvalues --   -0.63771  -0.60808  -0.57023  -0.55283  -0.52211
  Beta  occ. eigenvalues --   -0.49884  -0.47417  -0.45518  -0.43035  -0.42798
  Beta  occ. eigenvalues --   -0.42569  -0.41269  -0.40154  -0.39106  -0.37907
  Beta  occ. eigenvalues --   -0.37449  -0.36332  -0.35930  -0.35138  -0.34418
  Beta  occ. eigenvalues --   -0.33406  -0.32634  -0.31691  -0.30598  -0.29613
  Beta  occ. eigenvalues --   -0.27113  -0.22386  -0.21573  -0.21366  -0.19435
  Beta  occ. eigenvalues --   -0.18200  -0.17435  -0.10443
  Beta virt. eigenvalues --   -0.00177  -0.00044   0.00791   0.01364   0.01920
  Beta virt. eigenvalues --    0.02531   0.02582   0.02851   0.04259   0.04792
  Beta virt. eigenvalues --    0.05067   0.05182   0.05785   0.06509   0.07220

 Mulliken charges and spin densities:
               1          2
     1  C   -0.209652  -0.000000
     2  C   -0.365418  -0.000000
     3  C   -0.415125   0.000000
     4  C    0.817669   0.000000
     5  C    0.200411   0.000000
     6  C   -0.078776   0.000000
     7  C   -0.753709   0.000000
     8  C    0.122369  -0.000000
     9  C   -0.216873  -0.000000
    10  C   -0.938718  -0.000000
    11  O   -0.740711  -0.000000
    12  O   -0.623520   0.000000
    13  N   -0.484949  -0.000000
    14  H    0.133496   0.000000
    15  H    0.151044  -0.000000
    16  H    0.151437   0.000000
    17  H    0.137891  -0.000000
    18  H    0.268542  -0.000000
    19  H    0.269168   0.000000
    20  N    0.191101   0.000000
    21  C   -0.238617   0.000000
    22  C   -0.191226   0.000000
    23  H    0.125426  -0.000000
    24  H    0.129506  -0.000000
    25  H    0.154763   0.000000
    26  H    0.129166  -0.000000
    27  H    0.157530   0.000000
    28  H    0.117778  -0.000000
 Sum of Mulliken charges =  -2.00000   0.00000

 Dipole moment (field-independent basis, Debye):
    X=             -3.7898    Y=             -2.9315    Z=              1.2646  Tot=              4.9554
 Quadrupole moment (field-independent basis, Debye-Ang):
   XX=           -125.0366   YY=           -158.3375   ZZ=           -107.3732
   XY=            -12.3162   XZ=             -2.8077   YZ=              2.5715

 Normal termination of Gaussian 16 at Sun Jan 21 08:59:18 2024.
