 Gaussian 16, Revision A.03,
 Gaussian 16:  ES64L-G16RevA.03 25-Dec-2016

 ----------------------------------------------------------------------
 #P UB3LYP/6-311++G(d,p) nosym opt freq SCRF=(PCM,Solvent=n,n-DiMethylF
 ormamide)
 ----------------------------------------------------------------------

 --------
 Oxidized
 --------
 Symbolic Z-matrix:
 Charge =  0 Multiplicity = 1

 SCF Done:  E(UB3LYP) =  -1279.30100105     A.U. after   18 cycles
 SCF Done:  E(UB3LYP) =  -1279.30110170     A.U. after   17 cycles
 SCF Done:  E(UB3LYP) =  -1279.30116539     A.U. after   18 cycles
 SCF Done:  E(UB3LYP) =  -1279.30165115     A.U. after   15 cycles
 SCF Done:  E(UB3LYP) =  -1279.30155729     A.U. after   15 cycles
 SCF Done:  E(UB3LYP) =  -1279.30168400     A.U. after   14 cycles
 SCF Done:  E(UB3LYP) =  -1279.30168894     A.U. after   12 cycles
 SCF Done:  E(UB3LYP) =  -1279.30169427     A.U. after   12 cycles
 SCF Done:  E(UB3LYP) =  -1279.30169503     A.U. after   11 cycles
 SCF Done:  E(UB3LYP) =  -1279.30169603     A.U. after   13 cycles
 SCF Done:  E(UB3LYP) =  -1279.30169994     A.U. after   10 cycles
 SCF Done:  E(UB3LYP) =  -1279.30169996     A.U. after   10 cycles
 SCF Done:  E(UB3LYP) =  -1279.30169997     A.U. after   10 cycles
 SCF Done:  E(UB3LYP) =  -1279.30169998     A.U. after    9 cycles
 SCF Done:  E(UB3LYP) =  -1279.30169999     A.U. after    9 cycles
 SCF Done:  E(UB3LYP) =  -1279.30170001     A.U. after    9 cycles
 SCF Done:  E(UB3LYP) =  -1279.30170003     A.U. after    9 cycles
 SCF Done:  E(UB3LYP) =  -1279.30170007     A.U. after    9 cycles
 SCF Done:  E(UB3LYP) =  -1279.30170009     A.U. after    9 cycles
 Optimization completed.
    -- Stationary point found.
 Normal termination of Gaussian 16 at Sat Feb 10 14:20:30 2024.

 ----------------------------------------------------------------------
 #P Geom=AllCheck Guess=TCheck SCRF=Check GenChk UB3LYP/6-311++G(d,p) F
 req
 ----------------------------------------------------------------------

 Structure from the checkpoint file:  "071.chk"
 --------
 Oxidized
 --------
 Charge =  0 Multiplicity = 1

                          Input orientation:
 ---------------------------------------------------------------------
 Center     Atomic      Atomic             Coordinates (Angstroms)
 Number     Number       Type             X           Y           Z
 ---------------------------------------------------------------------
      1          6           0        1.223072    1.566471   -0.536161
      2          6           0       -0.015425    1.170693    0.195724
      3          6           0       -0.403126   -0.124601    0.210153
      4          6           0        0.398474   -1.144857   -0.517535
      5          6           0        1.694321   -0.773932   -1.226452
      6          6           0        2.074933    0.517597   -1.160923
      7          8           0        1.534211    2.744684   -0.624638
      8          8           0        0.028348   -2.306758   -0.543146
      9         16           0        3.617981    1.134109   -1.938022
     10          6           0        4.448946    2.109771   -0.674084
     11          6           0        4.561324    3.487019   -0.840106
     12          6           0        5.019456    1.446392    0.411775
     13          6           0        5.710268    2.193469    1.363290
     14          6           0        5.268342    4.218940    0.111171
     15          6           0        5.836230    3.574905    1.211153
     16          8           0        3.255177    2.005914   -3.066293
     17          8           0        4.477171   -0.030919   -2.206827
     18          1           0        4.103349    3.969734   -1.692800
     19          1           0        4.933600    0.371645    0.513958
     20          1           0        5.371377    5.291075   -0.005881
     21          1           0        6.156146    1.695046    2.215567
     22          6           0       -1.623172   -0.665997    0.897501
     23          6           0       -0.735765    2.311363    0.852494
     24          1           0        6.379872    4.150584    1.951153
     25          1           0       -2.157823    0.095775    1.457843
     26          1           0       -1.342819   -1.470359    1.582307
     27          1           0       -2.306803   -1.104748    0.165327
     28          1           0       -0.984504    3.074696    0.110936
     29          1           0       -0.088301    2.793656    1.590145
     30          1           0       -1.650297    1.996086    1.346679
     31          6           0        2.398953   -1.911374   -1.901969
     32          1           0        1.736390   -2.772537   -1.941521
     33          1           0        3.296251   -2.186114   -1.341338
     34          1           0        2.723701   -1.643050   -2.905180
 ---------------------------------------------------------------------

 SCF Done:  E(UB3LYP) =  -1279.30170009     A.U. after    2 cycles

 Alpha  occ. eigenvalues --  -89.07158 -19.15144 -19.14701 -19.13517 -19.13281
 Alpha  occ. eigenvalues --  -10.29841 -10.29640 -10.24852 -10.24365 -10.22627
 Alpha  occ. eigenvalues --  -10.22305 -10.22154 -10.20629 -10.20365 -10.19791
 Alpha  occ. eigenvalues --  -10.19661 -10.19591 -10.18005 -10.17946 -10.17899
 Alpha  occ. eigenvalues --   -8.13521  -6.09784  -6.09708  -6.09626  -1.12832
 Alpha  occ. eigenvalues --   -1.08435  -1.08125  -1.02257  -0.88866  -0.88263
 Alpha  occ. eigenvalues --   -0.84123  -0.79508  -0.77471  -0.76113  -0.75400
 Alpha  occ. eigenvalues --   -0.72066  -0.68047  -0.67097  -0.63385  -0.62643
 Alpha  occ. eigenvalues --   -0.59514  -0.59008  -0.55795  -0.55108  -0.51942
 Alpha  occ. eigenvalues --   -0.49720  -0.48914  -0.48782  -0.47728  -0.47305
 Alpha  occ. eigenvalues --   -0.46633  -0.46356  -0.44887  -0.44616  -0.44356
 Alpha  occ. eigenvalues --   -0.43545  -0.43460  -0.41907  -0.41341  -0.40475
 Alpha  occ. eigenvalues --   -0.40257  -0.40046  -0.39514  -0.38956  -0.38441
 Alpha  occ. eigenvalues --   -0.37225  -0.35906  -0.34668  -0.32966  -0.32029
 Alpha  occ. eigenvalues --   -0.31434  -0.30418  -0.29094  -0.28317  -0.28016
 Alpha  occ. eigenvalues --   -0.27642
 Alpha virt. eigenvalues --   -0.14208  -0.06081  -0.04132  -0.03304  -0.01495
 Alpha virt. eigenvalues --   -0.01154  -0.00212   0.00405   0.01207   0.01674
 Alpha virt. eigenvalues --    0.02124   0.02760   0.02808   0.03248   0.03593

  Beta  occ. eigenvalues --  -89.07158 -19.15144 -19.14701 -19.13517 -19.13281
  Beta  occ. eigenvalues --  -10.29841 -10.29640 -10.24852 -10.24365 -10.22627
  Beta  occ. eigenvalues --  -10.22305 -10.22154 -10.20629 -10.20365 -10.19791
  Beta  occ. eigenvalues --  -10.19661 -10.19591 -10.18005 -10.17946 -10.17899
  Beta  occ. eigenvalues --   -8.13521  -6.09784  -6.09708  -6.09626  -1.12832
  Beta  occ. eigenvalues --   -1.08435  -1.08125  -1.02257  -0.88866  -0.88263
  Beta  occ. eigenvalues --   -0.84123  -0.79508  -0.77471  -0.76113  -0.75400
  Beta  occ. eigenvalues --   -0.72066  -0.68047  -0.67097  -0.63385  -0.62643
  Beta  occ. eigenvalues --   -0.59514  -0.59008  -0.55795  -0.55108  -0.51942
  Beta  occ. eigenvalues --   -0.49720  -0.48914  -0.48782  -0.47728  -0.47305
  Beta  occ. eigenvalues --   -0.46633  -0.46356  -0.44887  -0.44616  -0.44356
  Beta  occ. eigenvalues --   -0.43545  -0.43460  -0.41907  -0.41341  -0.40475
  Beta  occ. eigenvalues --   -0.40257  -0.40046  -0.39514  -0.38956  -0.38441
  Beta  occ. eigenvalues --   -0.37225  -0.35906  -0.34668  -0.32966  -0.32029
  Beta  occ. eigenvalues --   -0.31434  -0.30418  -0.29094  -0.28317  -0.28016
  Beta  occ. eigenvalues --   -0.27642
  Beta virt. eigenvalues --   -0.14208  -0.06081  -0.04132  -0.03304  -0.01495
  Beta virt. eigenvalues --   -0.01154  -0.00212   0.00405   0.01207   0.01674
  Beta virt. eigenvalues --    0.02124   0.02760   0.02808   0.03248   0.03593

 Mulliken charges and spin densities:
               1          2
     1  C   -0.482944  -0.000000
     2  C    0.172231  -0.000000
     3  C    0.420328   0.000000
     4  C   -1.040383  -0.000000
     5  C    0.659389   0.000000
     6  C    0.268665   0.000000
     7  O   -0.188019   0.000000
     8  O   -0.216640   0.000000
     9  S    0.579618  -0.000000
    10  C    0.299590  -0.000000
    11  C   -0.201714  -0.000000
    12  C    0.003159   0.000000
    13  C   -0.471039   0.000000
    14  C   -0.376382  -0.000000
    15  C   -0.310747   0.000000
    16  O   -0.189726   0.000000
    17  O   -0.150812   0.000000
    18  H    0.254985   0.000000
    19  H    0.245526   0.000000
    20  H    0.221954  -0.000000
    21  H    0.224155  -0.000000
    22  C   -0.499514  -0.000000
    23  C   -0.579984   0.000000
    24  H    0.199663   0.000000
    25  H    0.132836   0.000000
    26  H    0.192987  -0.000000
    27  H    0.194567  -0.000000
    28  H    0.201431   0.000000
    29  H    0.194251   0.000000
    30  H    0.135716  -0.000000
    31  C   -0.516199   0.000000
    32  H    0.187269   0.000000
    33  H    0.226996   0.000000
    34  H    0.208785   0.000000
 Sum of Mulliken charges =  -0.00000   0.00000

 Dipole moment (field-independent basis, Debye):
    X=             -2.2599    Y=              0.8348    Z=              7.3138  Tot=              7.7003
 Quadrupole moment (field-independent basis, Debye-Ang):
   XX=           -122.3472   YY=           -124.6705   ZZ=           -136.5526
   XY=              3.8217   XZ=             27.8004   YZ=             12.2098

  Exact polarizability: 259.364  51.689 367.286   4.251  15.134 233.645
 Approx polarizability: 272.665  55.737 470.099  15.319   2.544 269.750

                      1                      2                      3
                      A                      A                      A
 Frequencies --     17.5420                30.8177                33.4106
 Red. masses --      4.2133                 5.7583                 4.2954
 Frc consts  --      0.0008                 0.0032                 0.0028
 IR Inten    --      1.1716                 0.7673                 1.0138

                      4                      5                      6
                      A                      A                      A
 Frequencies --     46.4307                53.2698                73.0387
 Red. masses --      2.5679                 1.6840                 1.7785
 Frc consts  --      0.0033                 0.0028                 0.0056
 IR Inten    --      8.2637                 1.7296                 0.2301

                      7                      8                      9
                      A                      A                      A
 Frequencies --     80.4507               107.0878               111.5890
 Red. masses --      1.5528                 1.4591                 1.5553
 Frc consts  --      0.0059                 0.0099                 0.0114
 IR Inten    --      3.6641                 0.5869                 1.3173

                     10                     11                     12
                      A                      A                      A
 Frequencies --    159.0440               173.8159               182.8509
 Red. masses --      7.1411                 5.7734                 6.3826
 Frc consts  --      0.1064                 0.1028                 0.1257
 IR Inten    --      1.4138                 6.4742                 6.3862

                     13                     14                     15
                      A                      A                      A
 Frequencies --    216.8094               233.6621               257.7775
 Red. masses --      5.6911                 5.3243                 9.7719
 Frc consts  --      0.1576                 0.1713                 0.3826
 IR Inten    --      0.6177                 2.2006                 0.0716

                     16                     17                     18
                      A                      A                      A
 Frequencies --    301.3800               320.3514               330.5504
 Red. masses --      5.8099                 3.7906                 5.1878
 Frc consts  --      0.3109                 0.2292                 0.3340
 IR Inten    --      2.5302                 4.0215                 5.2779

                     19                     20                     21
                      A                      A                      A
 Frequencies --    360.3684               374.7119               396.2486
 Red. masses --      2.8870                 4.4679                 4.2314
 Frc consts  --      0.2209                 0.3696                 0.3914
 IR Inten    --      3.3005                 8.9590                 2.6516

                     22                     23                     24
                      A                      A                      A
 Frequencies --    409.3778               416.1096               420.2258
 Red. masses --      2.8868                 5.8419                 6.2377
 Frc consts  --      0.2850                 0.5960                 0.6490
 IR Inten    --      0.5088                 0.3732                29.3833

                     25                     26                     27
                      A                      A                      A
 Frequencies --    440.1015               462.6265               497.1835
 Red. masses --      6.5725                 6.0380                 6.6517
 Frc consts  --      0.7500                 0.7614                 0.9688
 IR Inten    --      9.1973                34.7326                24.9444

                     28                     29                     30
                      A                      A                      A
 Frequencies --    506.7858               563.0732               565.2341
 Red. masses --      6.7532                 5.7183                 5.9686
 Frc consts  --      1.0219                 1.0682                 1.1235
 IR Inten    --     60.3435                53.8735                46.9732

                     31                     32                     33
                      A                      A                      A
 Frequencies --    594.3969               625.0589               690.6238
 Red. masses --      7.3946                 6.4581                 3.6254
 Frc consts  --      1.5393                 1.4866                 1.0188
 IR Inten    --    247.8260                 0.5152                 4.7303

                     34                     35                     36
                      A                      A                      A
 Frequencies --    698.7217               710.4870               721.7973
 Red. masses --      2.0983                 5.8689                 5.6165
 Frc consts  --      0.6036                 1.7455                 1.7240
 IR Inten    --     67.4999                10.0934                80.4803

                     37                     38                     39
                      A                      A                      A
 Frequencies --    757.0896               771.0652               790.5046
 Red. masses --      2.0883                 3.2732                 6.4621
 Frc consts  --      0.7053                 1.1466                 2.3792
 IR Inten    --     53.3372                52.7677                 6.7327

                     40                     41                     42
                      A                      A                      A
 Frequencies --    851.3619               858.0200               927.0795
 Red. masses --      1.2487                 2.7240                 2.9208
 Frc consts  --      0.5332                 1.1815                 1.4791
 IR Inten    --      0.2364                65.3979                20.1424

                     43                     44                     45
                      A                      A                      A
 Frequencies --    942.8853               996.8993              1011.8709
 Red. masses --      1.3400                 1.3867                 5.6499
 Frc consts  --      0.7019                 0.8120                 3.4083
 IR Inten    --      0.7981                 0.4757                13.4641

                     46                     47                     48
                      A                      A                      A
 Frequencies --   1015.7748              1019.8590              1022.8223
 Red. masses --      2.2272                 1.3207                 1.5302
 Frc consts  --      1.3539                 0.8093                 0.9432
 IR Inten    --     15.7612                 0.0409                 2.6387

                     49                     50                     51
                      A                      A                      A
 Frequencies --   1034.5619              1041.1421              1055.8289
 Red. masses --      4.1679                 1.6115                 2.8436
 Frc consts  --      2.6284                 1.0292                 1.8677
 IR Inten    --     61.7465                 3.9683               125.1566

                     52                     53                     54
                      A                      A                      A
 Frequencies --   1059.6250              1064.6548              1099.5645
 Red. masses --      1.5925                 1.9281                 1.6942
 Frc consts  --      1.0535                 1.2877                 1.2069
 IR Inten    --      0.0797                25.1019                38.0674

                     55                     56                     57
                      A                      A                      A
 Frequencies --   1102.9331              1108.9145              1122.9246
 Red. masses --      3.5409                 2.9139                 2.7017
 Frc consts  --      2.5378                 2.1112                 2.0072
 IR Inten    --    191.3657                40.9760                58.6299

                     58                     59                     60
                      A                      A                      A
 Frequencies --   1181.1491              1195.4123              1215.3483
 Red. masses --      1.1112                 1.1560                 5.8131
 Frc consts  --      0.9134                 0.9733                 5.0590
 IR Inten    --      0.2634                 4.3764               107.0550

                     61                     62                     63
                      A                      A                      A
 Frequencies --   1234.0249              1268.2234              1330.2337
 Red. masses --      9.7000                10.2354                 3.2405
 Frc consts  --      8.7030                 9.6995                 3.3784
 IR Inten    --    453.3832               250.4598                 6.4189

                     64                     65                     66
                      A                      A                      A
 Frequencies --   1330.5646              1343.9338              1396.7967
 Red. masses --      4.1476                 1.7690                 1.1741
 Frc consts  --      4.3263                 1.8825                 1.3497
 IR Inten    --     16.4051                 7.4268                26.3030

                     67                     68                     69
                      A                      A                      A
 Frequencies --   1405.8104              1412.2670              1461.5001
 Red. masses --      1.3773                 1.1938                 1.0888
 Frc consts  --      1.6038                 1.4029                 1.3702
 IR Inten    --     43.1165                 4.7141                27.6165

                     70                     71                     72
                      A                      A                      A
 Frequencies --   1461.8807              1463.9866              1465.4427
 Red. masses --      1.0514                 1.0443                 1.0446
 Frc consts  --      1.3239                 1.3187                 1.3217
 IR Inten    --     29.4635                 1.9131                22.2067

                     73                     74                     75
                      A                      A                      A
 Frequencies --   1473.2472              1474.8590              1481.2682
 Red. masses --      1.0576                 2.1126                 1.1046
 Frc consts  --      1.3524                 2.7075                 1.4280
 IR Inten    --     18.8085                24.4165                 6.8671

                     76                     77                     78
                      A                      A                      A
 Frequencies --   1505.1398              1616.9312              1623.0591
 Red. masses --      2.0166                 5.3705                 5.8504
 Frc consts  --      2.6917                 8.2727                 9.0805
 IR Inten    --      5.1453                 2.7693                 0.1727

                     79                     80                     81
                      A                      A                      A
 Frequencies --   1635.8505              1687.4727              1689.4634
 Red. masses --      9.0586                 9.5109                 9.7335
 Frc consts  --     14.2823                15.9568                16.3689
 IR Inten    --    165.2243               364.7336               557.1359

                     82                     83                     84
                      A                      A                      A
 Frequencies --   1700.6090              3042.8435              3045.2116
 Red. masses --     12.6998                 1.0403                 1.0421
 Frc consts  --     21.6399                 5.6749                 5.6937
 IR Inten    --    176.1298                10.4121                 8.1771

                     85                     86                     87
                      A                      A                      A
 Frequencies --   3055.8883              3088.3235              3089.2013
 Red. masses --      1.0435                 1.0989                 1.0985
 Frc consts  --      5.7412                 6.1751                 6.1768
 IR Inten    --      0.3137                11.3276                10.3278

                     88                     89                     90
                      A                      A                      A
 Frequencies --   3121.6689              3150.8580              3160.8764
 Red. masses --      1.0896                 1.1000                 1.1035
 Frc consts  --      6.2561                 6.4342                 6.4959
 IR Inten    --      7.7562                 3.3701                 8.5219

                     91                     92                     93
                      A                      A                      A
 Frequencies --   3167.4428              3176.8920              3186.6556
 Red. masses --      1.0945                 1.0869                 1.0895
 Frc consts  --      6.4696                 6.4629                 6.5183
 IR Inten    --     29.8952                 0.6206                10.4981

                     94                     95                     96
                      A                      A                      A
 Frequencies --   3194.0787              3201.8912              3215.2489
 Red. masses --      1.0934                 1.0966                 1.0936
 Frc consts  --      6.5723                 6.6239                 6.6609
 IR Inten    --     11.5699                 9.7027                 4.7734

 - Thermochemistry -
 -------------------
 Temperature   298.150 Kelvin.  Pressure   1.00000 Atm.
 Atom     1 has atomic number  6 and mass  12.00000

 Molecular mass:   290.06128 amu.
 Principal axes and moments of inertia in atomic units:
                           1         2         3
     Eigenvalues --  3460.348657729.184689161.16008
           X            0.83968  -0.41514   0.35015
           Y            0.54283   0.66123  -0.51779
           Z           -0.01657   0.62485   0.78057
 This molecule is an asymmetric top.
 Rotational symmetry number  1.
 Warning -- assumption of classical behavior for rotation
           may cause significant error
 Rotational temperatures (Kelvin)      0.02503     0.01121     0.00945
 Rotational constants (GHZ):           0.52155     0.23350     0.19700
 Zero-point vibrational energy     674633.7 (Joules/Mol)
                                  161.24133 (Kcal/Mol)
 Warning -- explicit consideration of  31 degrees of freedom as
           vibrations may cause significant error
 Vibrational temperatures:     25.24    44.34    48.07    66.80    76.64
          (Kelvin)            105.09   115.75   154.08   160.55   228.83
                              250.08   263.08   311.94   336.19   370.88
                              433.62   460.91   475.59   518.49   539.13
                              570.11   589.00   598.69   604.61   633.21
                              665.62   715.34   729.15   810.14   813.25
                              855.20   899.32   993.65  1005.30  1022.23
                             1038.51  1089.28  1109.39  1137.36  1224.92
                             1234.50  1333.86  1356.60  1434.32  1455.86
                             1461.47  1467.35  1471.61  1488.50  1497.97
                             1519.10  1524.56  1531.80  1582.03  1586.87
                             1595.48  1615.64  1699.41  1719.93  1748.62
                             1775.49  1824.69  1913.91  1914.39  1933.62
                             2009.68  2022.65  2031.94  2102.77  2103.32
                             2106.35  2108.45  2119.67  2121.99  2131.21
                             2165.56  2326.40  2335.22  2353.62  2427.90
                             2430.76  2446.80  4377.97  4381.38  4396.74
                             4443.41  4444.67  4491.39  4533.38  4547.80
                             4557.24  4570.84  4584.89  4595.57  4606.81
                             4626.03

 Zero-point correction=                           0.256954 (Hartree/Particle)
 Thermal correction to Energy=                    0.276699
 Thermal correction to Enthalpy=                  0.277643
 Thermal correction to Gibbs Free Energy=         0.206081
 Sum of electronic and zero-point Energies=          -1279.044746
 Sum of electronic and thermal Energies=             -1279.025001
 Sum of electronic and thermal Enthalpies=           -1279.024057
 Sum of electronic and thermal Free Energies=        -1279.095619

                     E (Thermal)             CV                S
                      KCal/Mol        Cal/Mol-Kelvin    Cal/Mol-Kelvin
 Total                  173.631             72.427            150.615
 Electronic               0.000              0.000              0.000
 Translational            0.889              2.981             42.892
 Rotational               0.889              2.981             33.860
 Vibrational            171.854             66.466             73.863
 Vibration     1          0.593              1.986              6.895
 Vibration     2          0.594              1.984              5.776
 Vibration     3          0.594              1.983              5.616
 Vibration     4          0.595              1.979              4.964
 Vibration     5          0.596              1.976              4.692
 Vibration     6          0.599              1.967              4.070
 Vibration     7          0.600              1.962              3.880
 Vibration     8          0.606              1.944              3.321
 Vibration     9          0.607              1.940              3.241
 Vibration    10          0.621              1.892              2.561
 Vibration    11          0.627              1.875              2.394
 Vibration    12          0.630              1.863              2.299
 Vibration    13          0.646              1.815              1.986
 Vibration    14          0.654              1.789              1.851
 Vibration    15          0.667              1.750              1.677
 Vibration    16          0.693              1.671              1.409
 Vibration    17          0.706              1.635              1.308
 Vibration    18          0.713              1.614              1.257
 Vibration    19          0.735              1.554              1.121
 Vibration    20          0.746              1.524              1.060
 Vibration    21          0.763              1.478              0.977
 Vibration    22          0.774              1.450              0.929
 Vibration    23          0.779              1.435              0.905
 Vibration    24          0.783              1.426              0.891
 Vibration    25          0.800              1.383              0.826
 Vibration    26          0.820              1.333              0.758
 Vibration    27          0.853              1.256              0.665
 Vibration    28          0.862              1.235              0.641
 Vibration    29          0.919              1.111              0.518
 Vibration    30          0.921              1.106              0.513
 Vibration    31          0.952              1.044              0.459

                           ! Non-Optimized Parameters !
 Normal termination of Gaussian 16 at Sat Feb 10 16:14:22 2024.
