 Gaussian 16, Revision A.03,
 Gaussian 16:  ES64L-G16RevA.03 25-Dec-2016

 --------------------------------------
 #P UB3LYP/6-311++G(d,p) nosym opt freq
 --------------------------------------

 -------
 Radical
 -------
 Symbolic Z-matrix:
 Charge = -1 Multiplicity = 2

 SCF Done:  E(UB3LYP) =  -5721.74330742     A.U. after   23 cycles
 SCF Done:  E(UB3LYP) =  -5721.75164354     A.U. after   17 cycles
 SCF Done:  E(UB3LYP) =  -5721.75231400     A.U. after   15 cycles
 SCF Done:  E(UB3LYP) =  -5721.75237576     A.U. after   14 cycles
 SCF Done:  E(UB3LYP) =  -5721.75237875     A.U. after   12 cycles
 Optimization completed.
    -- Stationary point found.
 Normal termination of Gaussian 16 at Tue Dec 26 20:27:36 2023.

 ----------------------------------------------------------------------
 #P Geom=AllCheck Guess=TCheck SCRF=Check GenChk UB3LYP/6-311++G(d,p) F
 req
 ----------------------------------------------------------------------

 Structure from the checkpoint file:  "234-rad.chk"
 -------
 Radical
 -------
 Charge = -1 Multiplicity = 2

                          Input orientation:
 ---------------------------------------------------------------------
 Center     Atomic      Atomic             Coordinates (Angstroms)
 Number     Number       Type             X           Y           Z
 ---------------------------------------------------------------------
      1          6           0        5.725685   -5.235024    1.120804
      2          6           0        6.663053   -5.106868    0.116376
      3          6           0        6.539407   -4.071681   -0.835499
      4          6           0        4.639334   -4.346452    1.216010
      5          6           0        4.516291   -3.306087    0.258430
      6          6           0        5.479792   -3.190556   -0.757450
      7          6           0        3.662120   -4.517563    2.301703
      8          6           0        2.573276   -3.562843    2.332516
      9          6           0        2.469548   -2.557560    1.393246
     10          6           0        3.397307   -2.349755    0.314496
     11          8           0        3.772715   -5.441008    3.151532
     12          8           0        3.274908   -1.422221   -0.527013
     13          1           0        5.801142   -6.021478    1.861079
     14          1           0        5.362507   -2.388270   -1.475147
     15         35           0        8.117211   -6.370155    0.065278
     16         35           0        7.813267   -3.838169   -2.261767
     17          6           0        1.559998   -3.717057    3.435017
     18          1           0        1.641048   -1.855129    1.441380
     19          1           0        2.039906   -3.656641    4.417561
     20          1           0        1.084931   -4.703023    3.393709
     21          1           0        0.786526   -2.947390    3.369379
 ---------------------------------------------------------------------

 SCF Done:  E(UB3LYP) =  -5721.75237875     A.U. after    2 cycles

 Alpha  occ. eigenvalues -- -482.73236-482.73230 -62.38521 -62.38514 -56.20550
 Alpha  occ. eigenvalues --  -56.20543 -56.20176 -56.20170 -56.20158 -56.20151
 Alpha  occ. eigenvalues --  -18.95532 -18.95379 -10.13257 -10.13197 -10.10265
 Alpha  occ. eigenvalues --  -10.10188 -10.07551 -10.07532 -10.06714 -10.06633
 Alpha  occ. eigenvalues --  -10.05916 -10.05382 -10.04503  -8.59489  -8.59482
 Alpha  occ. eigenvalues --   -6.42609  -6.42602  -6.41360  -6.41353  -6.41315
 Alpha  occ. eigenvalues --   -6.41309  -2.53706  -2.53699  -2.53353  -2.53346
 Alpha  occ. eigenvalues --   -2.53322  -2.53315  -2.52327  -2.52326  -2.52320
 Alpha  occ. eigenvalues --   -2.52319  -0.88021  -0.87672  -0.77984  -0.71757
 Alpha  occ. eigenvalues --   -0.70542  -0.68600  -0.63816  -0.62983  -0.58684
 Alpha  occ. eigenvalues --   -0.54659  -0.51166  -0.48460  -0.44732  -0.39663
 Alpha  occ. eigenvalues --   -0.37758  -0.36629  -0.33571  -0.32880  -0.31783
 Alpha  occ. eigenvalues --   -0.31449  -0.29848  -0.29473  -0.27965  -0.27649
 Alpha  occ. eigenvalues --   -0.26795  -0.26683  -0.25233  -0.24365  -0.23578
 Alpha  occ. eigenvalues --   -0.21749  -0.20987  -0.20138  -0.18186  -0.15270
 Alpha  occ. eigenvalues --   -0.14756  -0.13431  -0.12274  -0.11560  -0.03391
 Alpha virt. eigenvalues --    0.05839   0.06876   0.08605   0.08629   0.09064
 Alpha virt. eigenvalues --    0.09652   0.11080   0.12090   0.12340   0.12621
 Alpha virt. eigenvalues --    0.13232   0.13478   0.13740   0.14314   0.15350

  Beta  occ. eigenvalues -- -482.73236-482.73229 -62.38521 -62.38514 -56.20550
  Beta  occ. eigenvalues --  -56.20543 -56.20174 -56.20167 -56.20158 -56.20151
  Beta  occ. eigenvalues --  -18.94858 -18.94706 -10.13211 -10.13138 -10.10167
  Beta  occ. eigenvalues --  -10.10054 -10.07573 -10.07540 -10.06635 -10.06541
  Beta  occ. eigenvalues --  -10.05774 -10.05392 -10.04378  -8.59488  -8.59481
  Beta  occ. eigenvalues --   -6.42610  -6.42603  -6.41356  -6.41348  -6.41315
  Beta  occ. eigenvalues --   -6.41308  -2.53706  -2.53699  -2.53351  -2.53344
  Beta  occ. eigenvalues --   -2.53322  -2.53316  -2.52325  -2.52324  -2.52318
  Beta  occ. eigenvalues --   -2.52317  -0.86876  -0.86500  -0.77856  -0.71390
  Beta  occ. eigenvalues --   -0.70487  -0.68344  -0.63672  -0.62793  -0.58366
  Beta  occ. eigenvalues --   -0.53954  -0.51065  -0.48144  -0.44433  -0.39536
  Beta  occ. eigenvalues --   -0.37513  -0.36365  -0.33474  -0.32840  -0.31140
  Beta  occ. eigenvalues --   -0.31058  -0.29584  -0.29148  -0.27742  -0.27233
  Beta  occ. eigenvalues --   -0.26705  -0.25450  -0.24181  -0.23278  -0.22978
  Beta  occ. eigenvalues --   -0.21412  -0.20979  -0.19442  -0.18175  -0.14195
  Beta  occ. eigenvalues --   -0.12933  -0.12331  -0.11643  -0.10938
  Beta virt. eigenvalues --    0.03246   0.05884   0.07428   0.08604   0.09091
  Beta virt. eigenvalues --    0.09657   0.09783   0.11088   0.12100   0.12353
  Beta virt. eigenvalues --    0.12716   0.13265   0.13479   0.13744   0.14431

 Mulliken charges and spin densities:
               1          2
     1  C   -0.049023   0.011899
     2  C    0.028942   0.024582
     3  C   -0.011491   0.038193
     4  C    0.275857   0.032457
     5  C    0.660937   0.087393
     6  C   -0.102820  -0.000838
     7  C   -0.772105   0.083055
     8  C    0.909179   0.076313
     9  C   -0.337328   0.101113
    10  C   -1.074600   0.045018
    11  O   -0.372319   0.251386
    12  O   -0.385191   0.244898
    13  H    0.226922  -0.002023
    14  H    0.221493  -0.002320
    15  Br  -0.220297   0.000810
    16  Br  -0.225624   0.001192
    17  C   -0.336962   0.006483
    18  H    0.119306  -0.009335
    19  H    0.158978   0.004970
    20  H    0.158713   0.005043
    21  H    0.127432  -0.000291
 Sum of Mulliken charges =  -1.00000   1.00000

 Dipole moment (field-independent basis, Debye):
    X=            -22.1797    Y=             18.3026    Z=             -3.2882  Tot=             28.9437
 Quadrupole moment (field-independent basis, Debye-Ang):
   XX=           -237.6126   YY=           -207.4376   ZZ=           -139.2860
   XY=             93.7767   XZ=             -7.7365   YZ=             25.2997

  Exact polarizability: 239.888 -54.812 183.130 -72.985 -33.838 203.582
 Approx polarizability: 337.970 -79.189 315.651 -83.467 -86.067 326.989

                      1                      2                      3
                      A                      A                      A
 Frequencies --     42.8179                64.0319               113.9522
 Red. masses --     13.9185                 5.0884                 1.1322
 Frc consts  --      0.0150                 0.0123                 0.0087
 IR Inten    --      0.2573                 2.9957                 0.3282

                      4                      5                      6
                      A                      A                      A
 Frequencies --    123.7758               125.6737               132.6561
 Red. masses --     51.4260                 6.4630                10.8274
 Frc consts  --      0.4642                 0.0601                 0.1123
 IR Inten    --      0.7138                 6.6774                 0.3218

                      7                      8                      9
                      A                      A                      A
 Frequencies --    188.4127               205.4366               221.3208
 Red. masses --      4.1179                 5.7519                13.4900
 Frc consts  --      0.0861                 0.1430                 0.3893
 IR Inten    --      0.3949                 0.0600                 1.2305

                     10                     11                     12
                      A                      A                      A
 Frequencies --    236.1743               293.9451               301.1823
 Red. masses --     16.9064                 3.4080                 7.3402
 Frc consts  --      0.5556                 0.1735                 0.3923
 IR Inten    --      0.1620                 0.8706                 1.4341

                     13                     14                     15
                      A                      A                      A
 Frequencies --    386.9907               400.6092               405.2868
 Red. masses --      5.1285                 9.0446                 7.5757
 Frc consts  --      0.4525                 0.8552                 0.7332
 IR Inten    --      2.4135                16.5048                 3.5066

                     16                     17                     18
                      A                      A                      A
 Frequencies --    441.5300               464.6525               502.3974
 Red. masses --      3.4195                 9.5084                 7.9593
 Frc consts  --      0.3928                 1.2095                 1.1836
 IR Inten    --      2.7320                 6.8595                 2.6081

                     19                     20                     21
                      A                      A                      A
 Frequencies --    533.9654               581.1375               626.9981
 Red. masses --      6.9130                 7.1561                 4.9748
 Frc consts  --      1.1613                 1.4239                 1.1523
 IR Inten    --      0.1812                23.7105                 0.0179

                     22                     23                     24
                      A                      A                      A
 Frequencies --    658.4484               680.9208               692.9730
 Red. masses --      4.4982                 6.4898                 4.0736
 Frc consts  --      1.1490                 1.7729                 1.1525
 IR Inten    --      3.7054                19.3074                 3.6882

                     25                     26                     27
                      A                      A                      A
 Frequencies --    747.6937               777.7492               845.0200
 Red. masses --      6.5193                 5.5762                 6.0184
 Frc consts  --      2.1473                 1.9873                 2.5320
 IR Inten    --     27.7334                 1.1201                40.0342

                     28                     29                     30
                      A                      A                      A
 Frequencies --    872.4461               911.4084               936.4765
 Red. masses --      1.4676                 1.3492                 1.4133
 Frc consts  --      0.6582                 0.6603                 0.7302
 IR Inten    --     26.1916                 0.0005                15.9973

                     31                     32                     33
                      A                      A                      A
 Frequencies --    966.5876              1020.4114              1048.8373
 Red. masses --      4.5074                 1.7368                 1.4951
 Frc consts  --      2.4812                 1.0655                 0.9691
 IR Inten    --     38.6635                17.1453                 1.2352

                     34                     35                     36
                      A                      A                      A
 Frequencies --   1094.9429              1114.2740              1165.0636
 Red. masses --      1.7412                 4.3224                 5.0315
 Frc consts  --      1.2300                 3.1620                 4.0239
 IR Inten    --     11.1507                13.1937                 4.0622

                     37                     38                     39
                      A                      A                      A
 Frequencies --   1202.0498              1233.6115              1250.5399
 Red. masses --      6.5183                 1.2673                 2.1107
 Frc consts  --      5.5492                 1.1363                 1.9448
 IR Inten    --     18.6619                 4.3505                26.5909

                     40                     41                     42
                      A                      A                      A
 Frequencies --   1338.6805              1350.5912              1396.2946
 Red. masses --      9.8635                 4.0100                 1.3744
 Frc consts  --     10.4144                 4.3096                 1.5787
 IR Inten    --      1.5314                27.7499                23.4965

                     43                     44                     45
                      A                      A                      A
 Frequencies --   1428.4138              1441.9925              1465.7059
 Red. masses --      4.4449                 3.2322                 1.0460
 Frc consts  --      5.3434                 3.9598                 1.3240
 IR Inten    --     72.4067                54.6782                 4.8456

                     46                     47                     48
                      A                      A                      A
 Frequencies --   1477.3253              1510.9272              1518.6568
 Red. masses --      1.3216                 9.2906                 4.6637
 Frc consts  --      1.6994                12.4963                 6.3373
 IR Inten    --     34.4143               176.0387               394.2332

                     49                     50                     51
                      A                      A                      A
 Frequencies --   1530.8585              1591.5449              1620.8464
 Red. masses --      5.4805                 7.7492                 7.5098
 Frc consts  --      7.5674                11.5650                11.6241
 IR Inten    --     44.7403                34.2103                21.0540

                     52                     53                     54
                      A                      A                      A
 Frequencies --   3011.0055              3053.8030              3085.0551
 Red. masses --      1.0346                 1.0988                 1.1024
 Frc consts  --      5.5265                 6.0372                 6.1819
 IR Inten    --     90.0454                28.6595                24.2053

                     55                     56                     57
                      A                      A                      A
 Frequencies --   3137.7865              3196.4908              3198.5275
 Red. masses --      1.0887                 1.0899                 1.0902
 Frc consts  --      6.3152                 6.5612                 6.5716
 IR Inten    --     38.0389                 1.7889                 8.8640

 - Thermochemistry -
 -------------------
 Temperature   298.150 Kelvin.  Pressure   1.00000 Atm.
 Atom     1 has atomic number  6 and mass  12.00000

 Molecular mass:   327.87345 amu.
 Principal axes and moments of inertia in atomic units:
                           1         2         3
     Eigenvalues --  3156.854478469.32851**********
           X            0.82460  -0.15548   0.54392
           Y           -0.25461   0.75660   0.60227
           Z           -0.50518  -0.63512   0.58431
 This molecule is an asymmetric top.
 Rotational symmetry number  1.
 Warning -- assumption of classical behavior for rotation
           may cause significant error
 Rotational temperatures (Kelvin)      0.02744     0.01023     0.00746
 Rotational constants (GHZ):           0.57169     0.21309     0.15538
 Zero-point vibrational energy     358681.8 (Joules/Mol)
                                   85.72700 (Kcal/Mol)
 Warning -- explicit consideration of  20 degrees of freedom as
           vibrations may cause significant error
 Vibrational temperatures:     61.61    92.13   163.95   178.09   180.82
          (Kelvin)            190.86   271.08   295.58   318.43   339.80
                              422.92   433.33   556.79   576.39   583.12
                              635.26   668.53   722.84   768.26   836.13
                              902.11   947.36   979.69   997.03  1075.76
                             1119.01  1215.80  1255.26  1311.31  1347.38
                             1390.70  1468.14  1509.04  1575.38  1603.19
                             1676.27  1729.48  1774.89  1799.25  1926.06
                             1943.20  2008.96  2055.17  2074.71  2108.82
                             2125.54  2173.89  2185.01  2202.56  2289.88
                             2332.04  4332.17  4393.74  4438.71  4514.57
                             4599.04  4601.97

 Zero-point correction=                           0.136615 (Hartree/Particle)
 Thermal correction to Energy=                    0.150132
 Thermal correction to Enthalpy=                  0.151076
 Thermal correction to Gibbs Free Energy=         0.093724
 Sum of electronic and zero-point Energies=          -5721.615764
 Sum of electronic and thermal Energies=             -5721.602247
 Sum of electronic and thermal Enthalpies=           -5721.601302
 Sum of electronic and thermal Free Energies=        -5721.658654

                     E (Thermal)             CV                S
                      KCal/Mol        Cal/Mol-Kelvin    Cal/Mol-Kelvin
 Total                   94.209             49.439            120.707
 Electronic               0.000              0.000              1.377
 Translational            0.889              2.981             43.258
 Rotational               0.889              2.981             34.095
 Vibrational             92.432             43.478             41.977
 Vibration     1          0.595              1.980              5.124
 Vibration     2          0.597              1.971              4.329
 Vibration     3          0.607              1.938              3.200
 Vibration     4          0.610              1.929              3.041
 Vibration     5          0.611              1.927              3.011
 Vibration     6          0.613              1.921              2.907
 Vibration     7          0.633              1.856              2.243
 Vibration     8          0.640              1.832              2.084
 Vibration     9          0.648              1.809              1.948
 Vibration    10          0.655              1.785              1.832
 Vibration    11          0.689              1.685              1.451
 Vibration    12          0.693              1.671              1.410
 Vibration    13          0.755              1.498              1.012
 Vibration    14          0.766              1.469              0.960
 Vibration    15          0.770              1.459              0.943
 Vibration    16          0.801              1.380              0.822
 Vibration    17          0.822              1.328              0.753
 Vibration    18          0.858              1.245              0.652
 Vibration    19          0.889              1.175              0.578
 Vibration    20          0.938              1.072              0.483

                           ! Non-Optimized Parameters !
 Normal termination of Gaussian 16 at Tue Dec 26 21:05:44 2023.
