 Gaussian 16, Revision A.03,
 Gaussian 16:  ES64L-G16RevA.03 25-Dec-2016

 ----------------------------------------------------------------
 #P UB3LYP/6-311++G(d,p) SCRF=(PCM,Solvent=n,n-DiMethylFormamide)
 ----------------------------------------------------------------

 ------------------
 Quinone PCM in DMF
 ------------------
 Symbolic Z-matrix:
 Charge =  0 Multiplicity = 1

                         Standard orientation:
 ---------------------------------------------------------------------
 Center     Atomic      Atomic             Coordinates (Angstroms)
 Number     Number       Type             X           Y           Z
 ---------------------------------------------------------------------
      1          6           0       -1.287885    1.362361    0.368353
      2          6           0       -2.577319    1.918148   -0.119245
      3          6           0       -3.526771    1.147466   -0.664308
      4          6           0       -3.340095   -0.316542   -0.800300
      5          6           0       -2.066571   -0.894145   -0.284334
      6          6           0       -1.123206   -0.118979    0.264297
      7          8           0       -0.418596    2.090852    0.805821
      8          8           0       -4.185787   -1.027492   -1.311531
      9         16           0        0.351102   -0.937064    0.981948
     10          6           0        1.754355   -0.288634    0.063274
     11          6           0        2.156063   -0.949008   -1.097506
     12          6           0        2.429186    0.829123    0.549409
     13          6           0        3.533073    1.299308   -0.157169
     14          6           0        3.258071   -0.462478   -1.795872
     15          6           0        3.943222    0.658187   -1.326173
     16          8           0        0.445110   -0.507922    2.376112
     17          8           0        0.206385   -2.354529    0.633330
     18          1           0       -2.683749    2.992245   -0.014382
     19          1           0       -4.465094    1.546641   -1.032719
     20          1           0       -1.942501   -1.968837   -0.363575
     21          1           0        1.627998   -1.834234   -1.428763
     22          1           0        2.091492    1.311373    1.456498
     23          1           0        4.073609    2.164613    0.207889
     24          1           0        3.587637   -0.965356   -2.697416
     25          1           0        4.803344    1.030458   -1.871111
 ---------------------------------------------------------------------

 SCF Done:  E(UB3LYP) =  -1161.31698940     A.U. after   17 cycles

 The electronic state is 1-A.
 Alpha  occ. eigenvalues --  -89.07740 -19.16025 -19.15996 -19.14313 -19.14172
 Alpha  occ. eigenvalues --  -10.31079 -10.30533 -10.25492 -10.24012 -10.22926
 Alpha  occ. eigenvalues --  -10.22626 -10.22456 -10.20796 -10.20640 -10.20026
 Alpha  occ. eigenvalues --  -10.19809 -10.19766  -8.14116  -6.10382  -6.10308
 Alpha  occ. eigenvalues --   -6.10215  -1.13862  -1.09319  -1.08976  -1.03542
 Alpha  occ. eigenvalues --   -0.89156  -0.88702  -0.82270  -0.79425  -0.77664
 Alpha  occ. eigenvalues --   -0.73761  -0.70385  -0.65471  -0.63992  -0.63563
 Alpha  occ. eigenvalues --   -0.60030  -0.56085  -0.54541  -0.53375  -0.51801
 Alpha  occ. eigenvalues --   -0.50055  -0.49490  -0.49329  -0.47224  -0.46976
 Alpha  occ. eigenvalues --   -0.46787  -0.46549  -0.45254  -0.44901  -0.43883
 Alpha  occ. eigenvalues --   -0.42891  -0.40009  -0.39332  -0.37361  -0.36754
 Alpha  occ. eigenvalues --   -0.35609  -0.34253  -0.33216  -0.33044  -0.32076
 Alpha  occ. eigenvalues --   -0.30948  -0.29548  -0.28617  -0.28114
 Alpha virt. eigenvalues --   -0.15495  -0.06945  -0.04545  -0.03672  -0.02347
 Alpha virt. eigenvalues --   -0.00847   0.00306   0.00795   0.01371   0.01921
 Alpha virt. eigenvalues --    0.02204   0.03216   0.03360   0.03463   0.04916

  Beta  occ. eigenvalues --  -89.07740 -19.16025 -19.15996 -19.14313 -19.14172
  Beta  occ. eigenvalues --  -10.31079 -10.30533 -10.25492 -10.24012 -10.22926
  Beta  occ. eigenvalues --  -10.22626 -10.22456 -10.20796 -10.20640 -10.20026
  Beta  occ. eigenvalues --  -10.19809 -10.19766  -8.14116  -6.10382  -6.10308
  Beta  occ. eigenvalues --   -6.10215  -1.13862  -1.09319  -1.08976  -1.03542
  Beta  occ. eigenvalues --   -0.89156  -0.88702  -0.82270  -0.79425  -0.77664
  Beta  occ. eigenvalues --   -0.73761  -0.70385  -0.65471  -0.63992  -0.63563
  Beta  occ. eigenvalues --   -0.60030  -0.56085  -0.54541  -0.53375  -0.51801
  Beta  occ. eigenvalues --   -0.50055  -0.49490  -0.49329  -0.47224  -0.46976
  Beta  occ. eigenvalues --   -0.46787  -0.46549  -0.45254  -0.44901  -0.43883
  Beta  occ. eigenvalues --   -0.42891  -0.40009  -0.39332  -0.37361  -0.36754
  Beta  occ. eigenvalues --   -0.35609  -0.34253  -0.33216  -0.33044  -0.32076
  Beta  occ. eigenvalues --   -0.30948  -0.29548  -0.28617  -0.28114
  Beta virt. eigenvalues --   -0.15495  -0.06945  -0.04545  -0.03672  -0.02347
  Beta virt. eigenvalues --   -0.00847   0.00306   0.00795   0.01371   0.01921
  Beta virt. eigenvalues --    0.02204   0.03216   0.03360   0.03463   0.04916

 Mulliken charges and spin densities:
               1          2
     1  C   -0.545297   0.000000
     2  C   -0.252275  -0.000000
     3  C    0.231844   0.000000
     4  C   -0.494645  -0.000000
     5  C   -0.075151   0.000000
     6  C    0.525101  -0.000000
     7  O   -0.208912  -0.000000
     8  O   -0.252683   0.000000
     9  S    0.449910   0.000000
    10  C    0.607388   0.000000
    11  C   -0.054750  -0.000000
    12  C   -0.277883  -0.000000
    13  C   -0.421477  -0.000000
    14  C   -0.494589   0.000000
    15  C   -0.321752  -0.000000
    16  O   -0.169809  -0.000000
    17  O   -0.208472  -0.000000
    18  H    0.256162   0.000000
    19  H    0.256604  -0.000000
    20  H    0.291597  -0.000000
    21  H    0.249804  -0.000000
    22  H    0.270976  -0.000000
    23  H    0.221373  -0.000000
    24  H    0.217634   0.000000
    25  H    0.199302   0.000000
 Sum of Mulliken charges =  -0.00000   0.00000

 Dipole moment (field-independent basis, Debye):
    X=              1.0616    Y=              4.4631    Z=             -4.9241  Tot=              6.7300
 Quadrupole moment (field-independent basis, Debye-Ang):
   XX=            -91.2917   YY=           -109.3688   ZZ=           -111.9702
   XY=             -7.7134   XZ=            -11.4293   YZ=              1.6629

 Normal termination of Gaussian 16 at Wed Jan 24 22:52:17 2024.
