 Gaussian 16, Revision A.03,
 Gaussian 16:  ES64L-G16RevA.03 25-Dec-2016

 --------------------------------------
 #P UB3LYP/6-311++G(d,p) nosym opt freq
 --------------------------------------

 --------
 Oxidized
 --------
 Symbolic Z-matrix:
 Charge =  0 Multiplicity = 1

 SCF Done:  E(UB3LYP) =  -1161.30012455     A.U. after   18 cycles
 SCF Done:  E(UB3LYP) =  -1161.30012452     A.U. after   11 cycles
 SCF Done:  E(UB3LYP) =  -1161.30012456     A.U. after   10 cycles
 Optimization completed.
    -- Stationary point found.
 Normal termination of Gaussian 16 at Wed Jan 10 04:56:12 2024.

 ----------------------------------------------------------------------
 #P Geom=AllCheck Guess=TCheck SCRF=Check GenChk UB3LYP/6-311++G(d,p) F
 req
 ----------------------------------------------------------------------

 Structure from the checkpoint file:  "066.chk"
 --------
 Oxidized
 --------
 Charge =  0 Multiplicity = 1

                          Input orientation:
 ---------------------------------------------------------------------
 Center     Atomic      Atomic             Coordinates (Angstroms)
 Number     Number       Type             X           Y           Z
 ---------------------------------------------------------------------
      1          6           0        1.209547   -0.645689    1.847619
      2          6           0        0.811880   -1.672020    0.848722
      3          6           0       -0.276268   -1.537122    0.080452
      4          6           0       -1.142030   -0.338518    0.182759
      5          6           0       -0.737436    0.716011    1.155374
      6          6           0        0.354556    0.577618    1.917094
      7          8           0        2.169034   -0.818664    2.573707
      8          8           0       -2.145290   -0.210680   -0.494832
      9         16           0        0.837481    1.982265    2.990229
     10          6           0        0.795890    1.339687    4.669189
     11          6           0       -0.398542    1.416710    5.384921
     12          6           0        1.960601    0.817951    5.228066
     13          6           0        1.918924    0.353648    6.540155
     14          6           0       -0.425143    0.942384    6.693797
     15          6           0        0.730491    0.412690    7.268145
     16          8           0        2.211962    2.337121    2.641556
     17          8           0       -0.253167    2.954153    2.857539
     18          1           0        1.458517   -2.541244    0.800563
     19          1           0       -0.579420   -2.286305   -0.642279
     20          1           0       -1.359613    1.602801    1.211356
     21          1           0       -1.276365    1.858052    4.930109
     22          1           0        2.869728    0.779953    4.643722
     23          1           0        2.815921   -0.051288    6.993610
     24          1           0       -1.343091    0.998263    7.266971
     25          1           0        0.705750    0.048763    8.289075
 ---------------------------------------------------------------------

 SCF Done:  E(UB3LYP) =  -1161.30012456     A.U. after    1 cycles

 Alpha  occ. eigenvalues --  -89.06986 -19.16274 -19.16227 -19.13196 -19.13154
 Alpha  occ. eigenvalues --  -10.31370 -10.30807 -10.25680 -10.24299 -10.23747
 Alpha  occ. eigenvalues --  -10.23597 -10.23038 -10.21267 -10.20941 -10.20785
 Alpha  occ. eigenvalues --  -10.20542 -10.20407  -8.13347  -6.09587  -6.09551
 Alpha  occ. eigenvalues --   -6.09466  -1.12836  -1.09521  -1.09154  -1.02400
 Alpha  occ. eigenvalues --   -0.89550  -0.89287  -0.82963  -0.79763  -0.78184
 Alpha  occ. eigenvalues --   -0.74137  -0.70637  -0.65983  -0.64509  -0.64087
 Alpha  occ. eigenvalues --   -0.60337  -0.56275  -0.54952  -0.53430  -0.52114
 Alpha  occ. eigenvalues --   -0.50131  -0.49770  -0.49361  -0.47572  -0.47207
 Alpha  occ. eigenvalues --   -0.47090  -0.46226  -0.45644  -0.45362  -0.44146
 Alpha  occ. eigenvalues --   -0.43541  -0.40375  -0.39857  -0.37981  -0.35625
 Alpha  occ. eigenvalues --   -0.34885  -0.33736  -0.33298  -0.32573  -0.32145
 Alpha  occ. eigenvalues --   -0.31076  -0.29512  -0.29001  -0.28541
 Alpha virt. eigenvalues --   -0.15941  -0.07473  -0.05117  -0.04173  -0.02812
 Alpha virt. eigenvalues --   -0.01641  -0.01014   0.00332   0.01071   0.01331
 Alpha virt. eigenvalues --    0.01699   0.02827   0.03237   0.03732   0.04510

  Beta  occ. eigenvalues --  -89.06986 -19.16274 -19.16227 -19.13196 -19.13154
  Beta  occ. eigenvalues --  -10.31370 -10.30807 -10.25680 -10.24299 -10.23747
  Beta  occ. eigenvalues --  -10.23597 -10.23038 -10.21267 -10.20941 -10.20785
  Beta  occ. eigenvalues --  -10.20542 -10.20407  -8.13347  -6.09587  -6.09551
  Beta  occ. eigenvalues --   -6.09466  -1.12836  -1.09521  -1.09154  -1.02400
  Beta  occ. eigenvalues --   -0.89550  -0.89287  -0.82963  -0.79763  -0.78184
  Beta  occ. eigenvalues --   -0.74137  -0.70637  -0.65983  -0.64509  -0.64087
  Beta  occ. eigenvalues --   -0.60337  -0.56275  -0.54952  -0.53430  -0.52114
  Beta  occ. eigenvalues --   -0.50131  -0.49770  -0.49361  -0.47572  -0.47207
  Beta  occ. eigenvalues --   -0.47090  -0.46226  -0.45644  -0.45362  -0.44146
  Beta  occ. eigenvalues --   -0.43541  -0.40375  -0.39857  -0.37981  -0.35625
  Beta  occ. eigenvalues --   -0.34885  -0.33736  -0.33298  -0.32573  -0.32145
  Beta  occ. eigenvalues --   -0.31076  -0.29512  -0.29001  -0.28541
  Beta virt. eigenvalues --   -0.15941  -0.07473  -0.05117  -0.04173  -0.02812
  Beta virt. eigenvalues --   -0.01641  -0.01014   0.00332   0.01071   0.01331
  Beta virt. eigenvalues --    0.01699   0.02827   0.03237   0.03732   0.04510

 Mulliken charges and spin densities:
               1          2
     1  C   -0.522191   0.000000
     2  C   -0.216021   0.000000
     3  C    0.234298   0.000000
     4  C   -0.562907   0.000000
     5  C   -0.110575   0.000000
     6  C    0.459439  -0.000000
     7  O   -0.159970   0.000000
     8  O   -0.197748  -0.000000
     9  S    0.346853   0.000000
    10  C    0.604204  -0.000000
    11  C   -0.051677  -0.000000
    12  C   -0.286380   0.000000
    13  C   -0.390214   0.000000
    14  C   -0.478540  -0.000000
    15  C   -0.286435  -0.000000
    16  O   -0.081510  -0.000000
    17  O   -0.128205  -0.000000
    18  H    0.232472  -0.000000
    19  H    0.232175  -0.000000
    20  H    0.295144  -0.000000
    21  H    0.241331  -0.000000
    22  H    0.277031   0.000000
    23  H    0.193263  -0.000000
    24  H    0.186876   0.000000
    25  H    0.169290   0.000000
 Sum of Mulliken charges =  -0.00000  -0.00000

 Dipole moment (field-independent basis, Debye):
    X=             -0.6939    Y=             -4.5676    Z=              2.4838  Tot=              5.2453
 Quadrupole moment (field-independent basis, Debye-Ang):
   XX=           -113.7880   YY=           -115.2263   ZZ=            -76.3852
   XY=             -5.8350   XZ=             -6.7605   YZ=             -6.8436

  Exact polarizability: 171.971 -11.686 130.165  36.604   3.871 207.183
 Approx polarizability: 352.641 -35.162 195.785  81.992 -19.953 302.190

                      1                      2                      3
                      A                      A                      A
 Frequencies --     30.9438                38.4898                59.3186
 Red. masses --      7.0688                 5.1038                 5.0400
 Frc consts  --      0.0040                 0.0045                 0.0104
 IR Inten    --      0.2822                 0.4784                 2.0904

                      4                      5                      6
                      A                      A                      A
 Frequencies --     88.7176               136.1233               151.9155
 Red. masses --      7.8011                 7.6205                 9.3430
 Frc consts  --      0.0362                 0.0832                 0.1270
 IR Inten    --      4.8430                 7.8216                 1.4152

                      7                      8                      9
                      A                      A                      A
 Frequencies --    180.8781               207.7960               232.4000
 Red. masses --      6.7620                 5.6721                 8.5896
 Frc consts  --      0.1303                 0.1443                 0.2733
 IR Inten    --      0.6682                 0.6886                 0.5119

                     10                     11                     12
                      A                      A                      A
 Frequencies --    274.5914               282.0649               302.7562
 Red. masses --      8.4111                 6.7027                 8.4163
 Frc consts  --      0.3737                 0.3142                 0.4545
 IR Inten    --      0.3723                 0.5815                 2.3307

                     13                     14                     15
                      A                      A                      A
 Frequencies --    377.6460               411.2447               423.1600
 Red. masses --      5.1585                 2.8789                 6.6470
 Frc consts  --      0.4335                 0.2869                 0.7013
 IR Inten    --      2.9672                 0.0497                 7.3737

                     16                     17                     18
                      A                      A                      A
 Frequencies --    426.9488               451.7431               466.9109
 Red. masses --      8.7505                 5.6686                 8.3364
 Frc consts  --      0.9398                 0.6816                 1.0708
 IR Inten    --     21.2744                 9.8661                 1.6981

                     19                     20                     21
                      A                      A                      A
 Frequencies --    511.8168               539.2651               592.0584
 Red. masses --      5.4961                 6.3251                 6.3222
 Frc consts  --      0.8483                 1.0837                 1.3057
 IR Inten    --     28.0767                57.5009                93.3997

                     22                     23                     24
                      A                      A                      A
 Frequencies --    614.1780               626.6076               648.0447
 Red. masses --      3.1062                 6.4315                 7.5949
 Frc consts  --      0.6904                 1.4878                 1.8792
 IR Inten    --     17.9822                 0.3503                35.5572

                     25                     26                     27
                      A                      A                      A
 Frequencies --    701.8396               720.6261               767.5148
 Red. masses --      2.0254                 6.5496                 1.6573
 Frc consts  --      0.5878                 2.0040                 0.5752
 IR Inten    --     42.4887                55.2198                22.0024

                     28                     29                     30
                      A                      A                      A
 Frequencies --    787.8499               793.0623               822.9662
 Red. masses --      4.1065                 5.4268                 5.6998
 Frc consts  --      1.5018                 2.0110                 2.2744
 IR Inten    --      0.3078                 2.6098                19.9387

                     31                     32                     33
                      A                      A                      A
 Frequencies --    848.5000               855.5540               947.5108
 Red. masses --      2.0485                 1.2441                 1.3538
 Frc consts  --      0.8689                 0.5365                 0.7161
 IR Inten    --     46.2031                 0.2246                 0.2846

                     34                     35                     36
                      A                      A                      A
 Frequencies --    963.5904               983.4865               994.1097
 Red. masses --      1.4802                 4.0803                 1.3826
 Frc consts  --      0.8098                 2.3253                 0.8050
 IR Inten    --     22.6270                 9.9637                 0.0843

                     37                     38                     39
                      A                      A                      A
 Frequencies --   1012.0972              1014.6944              1015.2584
 Red. masses --      1.3159                 5.6466                 1.2806
 Frc consts  --      0.7942                 3.4254                 0.7777
 IR Inten    --      0.0655                 3.9943                 0.1709

                     40                     41                     42
                      A                      A                      A
 Frequencies --   1041.1070              1071.2872              1101.8409
 Red. masses --      3.3869                 3.3428                 1.5686
 Frc consts  --      2.1630                 2.2603                 1.1220
 IR Inten    --      7.9643                55.3618                 7.6429

                     43                     44                     45
                      A                      A                      A
 Frequencies --   1106.0151              1118.7997              1185.9913
 Red. masses --      1.5858                 6.0048                 1.1213
 Frc consts  --      1.1429                 4.4285                 0.9293
 IR Inten    --     80.7898               165.0855                 0.2392

                     46                     47                     48
                      A                      A                      A
 Frequencies --   1201.0942              1202.5555              1276.8660
 Red. masses --      1.2183                 1.5051                 3.3317
 Frc consts  --      1.0355                 1.2824                 3.2004
 IR Inten    --      9.9791                 7.1836               123.7797

                     49                     50                     51
                      A                      A                      A
 Frequencies --   1286.0911              1330.7536              1333.9498
 Red. masses --     11.3746                 2.2045                 2.5311
 Frc consts  --     11.0848                 2.3001                 2.6536
 IR Inten    --    121.3853                22.2199                 6.3461

                     52                     53                     54
                      A                      A                      A
 Frequencies --   1347.8892              1386.3784              1476.9965
 Red. masses --      1.9346                 1.8437                 2.1478
 Frc consts  --      2.0709                 2.0879                 2.7606
 IR Inten    --      2.7348                 1.9426                16.8796

                     55                     56                     57
                      A                      A                      A
 Frequencies --   1506.4639              1621.5222              1624.2043
 Red. masses --      2.0114                 5.2968                 5.7619
 Frc consts  --      2.6895                 8.2055                 8.9556
 IR Inten    --      3.1717                 3.5049                 0.3269

                     58                     59                     60
                      A                      A                      A
 Frequencies --   1638.0166              1675.4896              1728.1445
 Red. masses --      8.5437                 8.2946                10.4128
 Frc consts  --     13.5063                13.7192                18.3221
 IR Inten    --     22.2080                 1.5812                13.4576

                     61                     62                     63
                      A                      A                      A
 Frequencies --   1733.7789              3170.5704              3178.9932
 Red. masses --     11.7555                 1.0866                 1.0876
 Frc consts  --     20.8199                 6.4354                 6.4761
 IR Inten    --    416.6714                 0.6830                 0.2160

                     64                     65                     66
                      A                      A                      A
 Frequencies --   3183.0127              3189.6636              3191.7750
 Red. masses --      1.0901                 1.0921                 1.0948
 Frc consts  --      6.5069                 6.5465                 6.5711
 IR Inten    --      8.9732                 7.0005                 9.3431

                     67                     68                     69
                      A                      A                      A
 Frequencies --   3196.2313              3203.6840              3220.2599
 Red. masses --      1.0993                 1.0946                 1.0935
 Frc consts  --      6.6167                 6.6189                 6.6809
 IR Inten    --      1.9419                 4.6169                 4.0989

 - Thermochemistry -
 -------------------
 Temperature   298.150 Kelvin.  Pressure   1.00000 Atm.
 Atom     1 has atomic number  6 and mass  12.00000

 Molecular mass:   248.01433 amu.
 Principal axes and moments of inertia in atomic units:
                           1         2         3
     Eigenvalues --  2329.785946193.938206551.65821
           X            0.25002  -0.51041   0.82278
           Y            0.25448   0.85453   0.45278
           Z            0.93420  -0.09617  -0.34354
 This molecule is an asymmetric top.
 Rotational symmetry number  1.
 Warning -- assumption of classical behavior for rotation
           may cause significant error
 Rotational temperatures (Kelvin)      0.03718     0.01398     0.01322
 Rotational constants (GHZ):           0.77464     0.29137     0.27546
 Zero-point vibrational energy     459567.6 (Joules/Mol)
                                  109.83930 (Kcal/Mol)
 Warning -- explicit consideration of  22 degrees of freedom as
           vibrations may cause significant error
 Vibrational temperatures:     44.52    55.38    85.35   127.64   195.85
          (Kelvin)            218.57   260.24   298.97   334.37   395.08
                              405.83   435.60   543.35   591.69   608.83
                              614.28   649.96   671.78   736.39   775.88
                              851.84   883.67   901.55   932.39  1009.79
                             1036.82  1104.28  1133.54  1141.04  1184.06
                             1220.80  1230.95  1363.26  1386.39  1415.02
                             1430.30  1456.18  1459.92  1460.73  1497.92
                             1541.34  1585.30  1591.31  1609.70  1706.38
                             1728.11  1730.21  1837.13  1850.40  1914.66
                             1919.26  1939.31  1994.69  2125.07  2167.47
                             2333.01  2336.87  2356.74  2410.66  2486.41
                             2494.52  4561.74  4573.86  4579.65  4589.21
                             4592.25  4598.66  4609.39  4633.24

 Zero-point correction=                           0.175040 (Hartree/Particle)
 Thermal correction to Energy=                    0.189381
 Thermal correction to Enthalpy=                  0.190326
 Thermal correction to Gibbs Free Energy=         0.132312
 Sum of electronic and zero-point Energies=          -1161.125084
 Sum of electronic and thermal Energies=             -1161.110743
 Sum of electronic and thermal Enthalpies=           -1161.109799
 Sum of electronic and thermal Free Energies=        -1161.167812

                     E (Thermal)             CV                S
                      KCal/Mol        Cal/Mol-Kelvin    Cal/Mol-Kelvin
 Total                  118.839             54.507            122.099
 Electronic               0.000              0.000              0.000
 Translational            0.889              2.981             42.426
 Rotational               0.889              2.981             32.914
 Vibrational            117.061             48.545             46.760
 Vibration     1          0.594              1.984              5.768
 Vibration     2          0.594              1.982              5.335
 Vibration     3          0.597              1.974              4.480
 Vibration     4          0.602              1.957              3.688
 Vibration     5          0.614              1.917              2.858
 Vibration     6          0.619              1.901              2.648
 Vibration     7          0.630              1.866              2.319
 Vibration     8          0.641              1.829              2.063
 Vibration     9          0.653              1.791              1.860
 Vibration    10          0.677              1.720              1.567
 Vibration    11          0.681              1.707              1.521
 Vibration    12          0.694              1.668              1.402
 Vibration    13          0.748              1.518              1.049
 Vibration    14          0.775              1.446              0.922
 Vibration    15          0.785              1.420              0.881
 Vibration    16          0.789              1.412              0.869
 Vibration    17          0.810              1.357              0.791
 Vibration    18          0.824              1.323              0.746
 Vibration    19          0.867              1.224              0.629
 Vibration    20          0.894              1.163              0.567
 Vibration    21          0.950              1.049              0.464
 Vibration    22          0.974              1.002              0.426

 Optimization completed.
    -- Stationary point found.
 Normal termination of Gaussian 16 at Wed Jan 10 05:21:09 2024.
