 Q-Chem 5.4, Q-Chem, Inc., Pleasanton, CA (2021)
 Q-Chem 5.4.0 for Intel X86 EM64T Linux

User input:
--------------------------------------------------------------
$molecule
-1 2
Cl                 3.0043150000     -0.8511890000     -0.1888820000
C                  1.3132820000     -0.3365110000     -0.0815040000
C                  1.0288330000      0.9974100000     -0.0260450000
C                 -0.3351400000      1.4787530000      0.0625630000
O                 -0.6120430000      2.7073470000      0.1144470000
C                 -1.3575070000      0.4531190000      0.0874050000
C                 -1.0394580000     -0.8733070000      0.0303460000
Cl                -2.3427650000     -2.0711040000      0.0653450000
C                  0.3171630000     -1.4033500000     -0.0593610000
O                  0.5926080000     -2.6188390000     -0.1107650000
H                  1.8190580000      1.7379970000     -0.0468030000
H                 -2.3883470000      0.7796740000      0.1532530000
$end
$rem
MAX_SCF_CYCLES=200
BASIS  =  6-311++G(d,p)
GUI  =  2
JOB_TYPE  =  SP
METHOD  =  B3LYP
SOLVENT_METHOD = COSMO
$end
$solvent
dielectric 37.219
opticaldielectric 1.43
$end

--------------------------------------------------------------

             Standard Nuclear Orientation (Angstroms)
    I     Atom           X                Y                Z
 ----------------------------------------------------------------
    1      Cl      2.7457708164    -0.9788701185     0.0000169029
    2      C       1.2079506146    -0.1007328214     0.0000009119
    3      C       1.2242715632     1.2642088605     0.0000013338
    4      C      -0.0015252292     2.0371170245     0.0000013890
    5      O      -0.0010563697     3.2975971781    -0.0000052321
    6      C      -1.2259818296     1.2635004895    -0.0000095577
    7      C      -1.2078401733    -0.1015957378    -0.0000073819
    8      Cl     -2.7445920948    -0.9807687870     0.0000212527
    9      C       0.0000424909    -0.9203954283    -0.0000462300
   10      O       0.0010387472    -2.1677625898    -0.0000317859
   11      H       2.1591984774     1.8112620705     0.0000168586
   12      H      -2.1606003844     1.8113082932    -0.0000121481
 ----------------------------------------------------------------

   10   -1300.8997398648      8.32e-06  Convergence criterion met
 Total energy in the final basis set =    -1300.8997398648
    5   -1300.9800544478      5.33e-06  Convergence criterion met
 Total energy in the final basis set =    -1300.9800544478

                    Orbital Energies (a.u.)
 --------------------------------------------------------------

 Alpha MOs
 -- Occupied --
********-101.5553 -19.1000 -19.0955 -10.2517 -10.2410 -10.2384 -10.2383
-10.1819 -10.1819  -9.4697  -9.4697  -7.2341  -7.2341  -7.2250  -7.2250
 -7.2242  -7.2242  -1.0304  -1.0176  -0.8846  -0.8710  -0.8092  -0.7373
 -0.7013  -0.6045  -0.5844  -0.5078  -0.4897  -0.4599  -0.4406  -0.4357
 -0.4291  -0.4074  -0.3979  -0.3880  -0.3662  -0.3450  -0.3235  -0.3165
 -0.2894  -0.2686  -0.2595  -0.2586  -0.1816

 Beta MOs
 -- Occupied --
********-101.5553 -19.0932 -19.0884 -10.2502 -10.2398 -10.2373 -10.2373
-10.1806 -10.1806  -9.4697  -9.4697  -7.2341  -7.2341  -7.2249  -7.2249
 -7.2242  -7.2242  -1.0187  -1.0052  -0.8810  -0.8701  -0.8053  -0.7348
 -0.6906  -0.6003  -0.5800  -0.5055  -0.4853  -0.4566  -0.4350  -0.4238
 -0.4227  -0.4028  -0.3859  -0.3699  -0.3634  -0.3315  -0.3230  -0.3161
 -0.2626  -0.2622  -0.2531  -0.2517

          Ground-State Mulliken Net Atomic Charges

     Atom                 Charge (a.u.)    Spin (a.u.)
  --------------------------------------------------------
      1 Cl                    0.212655       0.003207
      2 C                     1.084932       0.080419
      3 C                    -0.484489       0.085990
      4 C                    -0.633082       0.124103
      5 O                    -0.510332       0.245655
      6 C                    -0.482076       0.086215
      7 C                     1.084827       0.081338
      8 Cl                    0.212704       0.003290
      9 C                    -1.539670       0.058450
     10 O                    -0.395335       0.245811
     11 H                     0.224931      -0.007222
     12 H                     0.224936      -0.007256
  --------------------------------------------------------
  Sum of atomic charges =    -1.000000

                    Cartesian Multipole Moments
 -----------------------------------------------------------------
    Charge (ESU x 10^10)
                -4.8032
    Dipole Moment (Debye)
         X      -0.0019      Y      -0.5346      Z      -0.0005
       Tot       0.5346
    Quadrupole Moments (Debye-Ang)
        XX     -79.6764     XY       0.0100     YY    -114.3455
        XZ      -0.0008     YZ       0.0001     ZZ     -73.8249

 Total job time:  17.05s(wall), 117.11s(cpu)
        *  Thank you very much for using Q-Chem.  Have a nice day.  *
