 Gaussian 16, Revision A.03,
 Gaussian 16:  ES64L-G16RevA.03 25-Dec-2016

 ----------------------------------------------------------------------
 #P UB3LYP/6-311++G(d,p) nosym opt freq SCRF=(PCM,Solvent=n,n-DiMethylF
 ormamide)
 ----------------------------------------------------------------------

 -------
 Reduced
 -------
 Symbolic Z-matrix:
 Charge = -2 Multiplicity = 1

 SCF Done:  E(UB3LYP) =  -1145.07969023     A.U. after   18 cycles
 SCF Done:  E(UB3LYP) =  -1145.07349352     A.U. after   15 cycles
 SCF Done:  E(UB3LYP) =  -1145.07806628     A.U. after   15 cycles
 SCF Done:  E(UB3LYP) =  -1145.08155361     A.U. after   13 cycles
 SCF Done:  E(UB3LYP) =  -1145.08213155     A.U. after   14 cycles
 SCF Done:  E(UB3LYP) =  -1145.08282108     A.U. after   12 cycles
 SCF Done:  E(UB3LYP) =  -1145.08273648     A.U. after   14 cycles
 SCF Done:  E(UB3LYP) =  -1145.08296069     A.U. after   13 cycles
 SCF Done:  E(UB3LYP) =  -1145.08307146     A.U. after   12 cycles
 SCF Done:  E(UB3LYP) =  -1145.08311293     A.U. after   12 cycles
 SCF Done:  E(UB3LYP) =  -1145.08327093     A.U. after   11 cycles
 SCF Done:  E(UB3LYP) =  -1145.08327328     A.U. after   11 cycles
 SCF Done:  E(UB3LYP) =  -1145.08327426     A.U. after   10 cycles
 SCF Done:  E(UB3LYP) =  -1145.08327459     A.U. after   10 cycles
 SCF Done:  E(UB3LYP) =  -1145.08327492     A.U. after   10 cycles
 SCF Done:  E(UB3LYP) =  -1145.08327538     A.U. after   11 cycles
 SCF Done:  E(UB3LYP) =  -1145.08327576     A.U. after   11 cycles
 SCF Done:  E(UB3LYP) =  -1145.08327586     A.U. after    9 cycles
 SCF Done:  E(UB3LYP) =  -1145.08327587     A.U. after    7 cycles
 Optimization completed.
    -- Stationary point found.
 Normal termination of Gaussian 16 at Sun Feb 11 04:26:47 2024.

 ----------------------------------------------------------------------
 #P Geom=AllCheck Guess=TCheck SCRF=Check GenChk UB3LYP/6-311++G(d,p) F
 req
 ----------------------------------------------------------------------

 Structure from the checkpoint file:  "146-an.chk"
 -------
 Reduced
 -------
 Charge = -2 Multiplicity = 1

                          Input orientation:
 ---------------------------------------------------------------------
 Center     Atomic      Atomic             Coordinates (Angstroms)
 Number     Number       Type             X           Y           Z
 ---------------------------------------------------------------------
      1          6           0        2.449909    3.028972    1.402747
      2          6           0        2.234860    1.556689    1.609484
      3          8           0        1.732396    1.050395    2.589272
      4          8           0        2.767700    0.846657    0.589029
      5          6           0        2.439439   -0.518434    0.467349
      6          6           0        3.468131   -1.387422    0.728457
      7          6           0        3.268210   -2.782628    0.565873
      8          6           0        2.044069   -3.239052    0.149457
      9          6           0        0.959797   -2.359894   -0.136995
     10          6           0       -0.277144   -2.931264   -0.589077
     11          8           0       -0.435071   -4.216303   -0.728253
     12          6           0       -1.326514   -1.999842   -0.892457
     13          6           0       -2.561235   -2.513848   -1.383315
     14          6           0       -3.616457   -1.700172   -1.707181
     15          6           0       -3.486648   -0.297255   -1.538072
     16          6           0       -2.309329    0.224967   -1.065394
     17          8           0       -2.263798    1.631690   -1.005743
     18          6           0       -2.200319    2.233060    0.205957
     19          6           0       -1.843994    3.685477    0.061822
     20          8           0       -2.487929    1.680409    1.245410
     21          6           0       -1.161035   -0.562376   -0.729811
     22          6           0        0.083029    0.020042   -0.275575
     23          8           0        0.237896    1.299339   -0.140096
     24          6           0        1.140917   -0.922734    0.018656
     25          1           0        1.845552    3.345044    0.551247
     26          1           0        2.155245    3.579478    2.294286
     27          1           0        3.498076    3.230468    1.170242
     28          1           0        4.421364   -0.989179    1.056804
     29          1           0        4.080165   -3.471589    0.773854
     30          1           0        1.862072   -4.298653    0.017197
     31          1           0       -2.630061   -3.589031   -1.497345
     32          1           0       -4.545866   -2.113941   -2.084302
     33          1           0       -4.301777    0.376626   -1.775787
     34          1           0       -1.978835    4.199933    1.011560
     35          1           0       -0.801102    3.749818   -0.252061
     36          1           0       -2.461713    4.154550   -0.707239
 ---------------------------------------------------------------------

 SCF Done:  E(UB3LYP) =  -1145.08327587     A.U. after    2 cycles

 Alpha  occ. eigenvalues --  -19.15599 -19.15558 -19.10443 -19.10372 -19.01867
 Alpha  occ. eigenvalues --  -19.01807 -10.29950 -10.29916 -10.21820 -10.21820
 Alpha  occ. eigenvalues --  -10.18607 -10.17524 -10.16617 -10.16566 -10.15418
 Alpha  occ. eigenvalues --  -10.15417 -10.15287 -10.15285 -10.15160 -10.15136
 Alpha  occ. eigenvalues --  -10.14794 -10.14776 -10.14370 -10.14350  -1.10023
 Alpha  occ. eigenvalues --   -1.09931  -1.01630  -1.01575  -0.93739  -0.93107
 Alpha  occ. eigenvalues --   -0.83619  -0.83006  -0.76482  -0.75912  -0.75742
 Alpha  occ. eigenvalues --   -0.71793  -0.71757  -0.71549  -0.65047  -0.62899
 Alpha  occ. eigenvalues --   -0.62029  -0.60080  -0.58871  -0.52977  -0.52931
 Alpha  occ. eigenvalues --   -0.49867  -0.49713  -0.48231  -0.48175  -0.47040
 Alpha  occ. eigenvalues --   -0.46619  -0.46436  -0.46400  -0.44582  -0.44431
 Alpha  occ. eigenvalues --   -0.43144  -0.42516  -0.40571  -0.40377  -0.39393
 Alpha  occ. eigenvalues --   -0.39203  -0.38614  -0.38352  -0.37420  -0.37068
 Alpha  occ. eigenvalues --   -0.36938  -0.36455  -0.35689  -0.34469  -0.33666
 Alpha  occ. eigenvalues --   -0.32885  -0.32817  -0.31345  -0.30611  -0.30569
 Alpha  occ. eigenvalues --   -0.30000  -0.27664  -0.27605  -0.23317  -0.22967
 Alpha  occ. eigenvalues --   -0.22325  -0.22297  -0.20114  -0.19298  -0.11150
 Alpha virt. eigenvalues --   -0.03184  -0.00466  -0.00146   0.00541   0.00613
 Alpha virt. eigenvalues --    0.00945   0.01050   0.01835   0.02290   0.02447
 Alpha virt. eigenvalues --    0.03248   0.03390   0.03822   0.04509   0.04852

  Beta  occ. eigenvalues --  -19.15599 -19.15558 -19.10443 -19.10372 -19.01867
  Beta  occ. eigenvalues --  -19.01807 -10.29950 -10.29916 -10.21820 -10.21820
  Beta  occ. eigenvalues --  -10.18607 -10.17524 -10.16617 -10.16566 -10.15418
  Beta  occ. eigenvalues --  -10.15417 -10.15287 -10.15285 -10.15160 -10.15136
  Beta  occ. eigenvalues --  -10.14794 -10.14776 -10.14370 -10.14350  -1.10023
  Beta  occ. eigenvalues --   -1.09931  -1.01630  -1.01575  -0.93739  -0.93107
  Beta  occ. eigenvalues --   -0.83619  -0.83006  -0.76482  -0.75912  -0.75742
  Beta  occ. eigenvalues --   -0.71793  -0.71757  -0.71549  -0.65047  -0.62899
  Beta  occ. eigenvalues --   -0.62029  -0.60080  -0.58871  -0.52977  -0.52931
  Beta  occ. eigenvalues --   -0.49867  -0.49713  -0.48231  -0.48175  -0.47040
  Beta  occ. eigenvalues --   -0.46619  -0.46436  -0.46400  -0.44582  -0.44431
  Beta  occ. eigenvalues --   -0.43144  -0.42516  -0.40571  -0.40377  -0.39393
  Beta  occ. eigenvalues --   -0.39203  -0.38614  -0.38352  -0.37420  -0.37068
  Beta  occ. eigenvalues --   -0.36938  -0.36455  -0.35689  -0.34469  -0.33666
  Beta  occ. eigenvalues --   -0.32885  -0.32817  -0.31345  -0.30611  -0.30569
  Beta  occ. eigenvalues --   -0.30000  -0.27664  -0.27605  -0.23317  -0.22967
  Beta  occ. eigenvalues --   -0.22325  -0.22297  -0.20114  -0.19298  -0.11150
  Beta virt. eigenvalues --   -0.03184  -0.00466  -0.00146   0.00541   0.00613
  Beta virt. eigenvalues --    0.00945   0.01050   0.01835   0.02290   0.02447
  Beta virt. eigenvalues --    0.03248   0.03390   0.03822   0.04509   0.04852

 Mulliken charges and spin densities:
               1          2
     1  C   -0.434228  -0.000000
     2  C   -0.036622   0.000000
     3  O   -0.290624   0.000000
     4  O    0.007500  -0.000000
     5  C   -0.258441   0.000000
     6  C    0.069107  -0.000000
     7  C   -0.486869  -0.000000
     8  C   -0.208773   0.000000
     9  C    0.402809   0.000000
    10  C   -0.733583  -0.000000
    11  O   -0.662008   0.000000
    12  C    0.405638  -0.000000
    13  C   -0.195388   0.000000
    14  C   -0.495657   0.000000
    15  C    0.055643   0.000000
    16  C   -0.256618  -0.000000
    17  O    0.000930   0.000000
    18  C   -0.040851   0.000000
    19  C   -0.426176  -0.000000
    20  O   -0.291528   0.000000
    21  C    0.347812  -0.000000
    22  C   -0.342832  -0.000000
    23  O   -0.566811   0.000000
    24  C    0.351928   0.000000
    25  H    0.209838  -0.000000
    26  H    0.166068  -0.000000
    27  H    0.172315   0.000000
    28  H    0.171386   0.000000
    29  H    0.171309  -0.000000
    30  H    0.153179   0.000000
    31  H    0.153461  -0.000000
    32  H    0.170837   0.000000
    33  H    0.171647   0.000000
    34  H    0.165132   0.000000
    35  H    0.209215   0.000000
    36  H    0.171257  -0.000000
 Sum of Mulliken charges =  -2.00000   0.00000

 Dipole moment (field-independent basis, Debye):
    X=              2.7300    Y=             14.8420    Z=             -0.9934  Tot=             15.1236
 Quadrupole moment (field-independent basis, Debye-Ang):
   XX=           -162.6652   YY=           -203.9112   ZZ=           -169.1899
   XY=             -2.4162   XZ=             -0.0715   YZ=            -12.9835

  Exact polarizability: 558.077 -27.812 476.162 112.470  23.931 268.287
 Approx polarizability: 627.445 -25.624 540.402 122.344  13.196 306.209

                      1                      2                      3
                      A                      A                      A
 Frequencies --     35.2131                42.9802                61.4649
 Red. masses --      5.0586                 5.9308                 3.6842
 Frc consts  --      0.0037                 0.0065                 0.0082
 IR Inten    --      0.2983                 2.9755                 7.8744

                      4                      5                      6
                      A                      A                      A
 Frequencies --     65.2765                87.2224               113.6479
 Red. masses --      6.0539                 5.2499                 4.5188
 Frc consts  --      0.0152                 0.0235                 0.0344
 IR Inten    --      8.3509                10.8656                10.5282

                      7                      8                      9
                      A                      A                      A
 Frequencies --    116.0911               118.7347               126.5054
 Red. masses --      4.1780                 1.2564                 1.2964
 Frc consts  --      0.0332                 0.0104                 0.0122
 IR Inten    --      4.3154                 2.8234                 6.8011

                     10                     11                     12
                      A                      A                      A
 Frequencies --    134.4890               165.1984               180.1645
 Red. masses --      3.0635                 7.0738                 8.5460
 Frc consts  --      0.0326                 0.1137                 0.1634
 IR Inten    --      3.1491                 4.6650                 8.4475

                     13                     14                     15
                      A                      A                      A
 Frequencies --    214.5013               220.7396               275.6032
 Red. masses --      4.8210                 7.3687                 5.2474
 Frc consts  --      0.1307                 0.2115                 0.2348
 IR Inten    --      1.3700                17.2523                 3.3739

                     16                     17                     18
                      A                      A                      A
 Frequencies --    288.4625               315.1808               316.9808
 Red. masses --      5.0726                 6.4688                 6.3438
 Frc consts  --      0.2487                 0.3786                 0.3755
 IR Inten    --      2.0043                 0.3142                 0.4151

                     19                     20                     21
                      A                      A                      A
 Frequencies --    326.3403               342.5270               381.7565
 Red. masses --      3.8564                 6.1955                 6.6587
 Frc consts  --      0.2420                 0.4283                 0.5718
 IR Inten    --     10.3954                 8.2641                 8.1816

                     22                     23                     24
                      A                      A                      A
 Frequencies --    400.4857               401.6488               453.4095
 Red. masses --      7.6270                 9.6394                 6.7557
 Frc consts  --      0.7207                 0.9162                 0.8183
 IR Inten    --      0.1467                 7.4976                21.9967

                     25                     26                     27
                      A                      A                      A
 Frequencies --    473.9035               499.0306               499.9641
 Red. masses --      5.6107                 6.1062                 5.2775
 Frc consts  --      0.7424                 0.8959                 0.7772
 IR Inten    --      0.8598                10.6338                 6.8362

                     28                     29                     30
                      A                      A                      A
 Frequencies --    525.0347               545.0998               555.6648
 Red. masses --      5.5497                 5.0247                 3.4438
 Frc consts  --      0.9014                 0.8796                 0.6265
 IR Inten    --     13.2208                 1.9370                 3.8790

                     31                     32                     33
                      A                      A                      A
 Frequencies --    564.5412               576.0901               581.6750
 Red. masses --      3.3294                 4.4352                 5.3460
 Frc consts  --      0.6252                 0.8673                 1.0657
 IR Inten    --     55.1213                28.4255                 9.0058

                     34                     35                     36
                      A                      A                      A
 Frequencies --    607.9447               625.3298               675.2825
 Red. masses --      6.0560                 4.5986                 5.7283
 Frc consts  --      1.3188                 1.0595                 1.5390
 IR Inten    --     54.8767                23.5891                 0.7100

                     37                     38                     39
                      A                      A                      A
 Frequencies --    686.3483               697.3084               727.0533
 Red. masses --      3.4989                 6.7719                 2.3962
 Frc consts  --      0.9711                 1.9400                 0.7463
 IR Inten    --     69.5921                 0.9721                 8.0909

                     40                     41                     42
                      A                      A                      A
 Frequencies --    729.2054               766.9950               777.5874
 Red. masses --      3.1399                 2.1565                 2.1935
 Frc consts  --      0.9837                 0.7474                 0.7814
 IR Inten    --     43.3501                84.9019                 7.4137

                     43                     44                     45
                      A                      A                      A
 Frequencies --    789.0063               819.5759               820.6044
 Red. masses --      5.6258                 4.7752                 4.6420
 Frc consts  --      2.0635                 1.8898                 1.8417
 IR Inten    --     12.2258                21.9896                21.9433

                     46                     47                     48
                      A                      A                      A
 Frequencies --    864.5833               869.4947               909.1416
 Red. masses --      1.7262                 1.6215                 4.2393
 Frc consts  --      0.7602                 0.7223                 2.0645
 IR Inten    --      7.9110                 4.1170               129.0004

                     49                     50                     51
                      A                      A                      A
 Frequencies --    921.2111               933.2374               965.9927
 Red. masses --      5.5806                 6.4444                 5.1636
 Frc consts  --      2.7903                 3.3069                 2.8389
 IR Inten    --      7.4578                 4.0481               282.1226

                     52                     53                     54
                      A                      A                      A
 Frequencies --    976.5555               980.8617              1004.3226
 Red. masses --      1.2856                 1.2789                 2.3596
 Frc consts  --      0.7224                 0.7249                 1.4023
 IR Inten    --      1.1413                 2.7186                 5.7474

                     55                     56                     57
                      A                      A                      A
 Frequencies --   1026.8001              1040.6837              1045.8850
 Red. masses --      1.9213                 2.3069                 1.7784
 Frc consts  --      1.1935                 1.4721                 1.1462
 IR Inten    --    475.8834                 9.7689               189.9165

                     58                     59                     60
                      A                      A                      A
 Frequencies --   1051.0084              1063.9015              1064.5480
 Red. masses --      2.0326                 1.8998                 2.1333
 Frc consts  --      1.3229                 1.2669                 1.4244
 IR Inten    --     97.0008               381.1288                71.8298

                     61                     62                     63
                      A                      A                      A
 Frequencies --   1121.1605              1146.1020              1156.4258
 Red. masses --      1.6148                 3.3970                 1.2269
 Frc consts  --      1.1960                 2.6290                 0.9667
 IR Inten    --    318.9836               127.8581                91.1902

                     64                     65                     66
                      A                      A                      A
 Frequencies --   1187.0637              1203.9206              1210.4434
 Red. masses --      4.0532                 4.9876                 2.3779
 Frc consts  --      3.3651                 4.2593                 2.0527
 IR Inten    --     90.2078               188.2888               180.6207

                     67                     68                     69
                      A                      A                      A
 Frequencies --   1229.4917              1234.2413              1237.2054
 Red. masses --      2.4625                 3.8233                 3.7830
 Frc consts  --      2.1932                 3.4315                 3.4117
 IR Inten    --    473.3613               734.7984               668.6195

                     70                     71                     72
                      A                      A                      A
 Frequencies --   1299.4143              1329.9147              1340.6357
 Red. masses --      7.5855                 5.6994                 3.8977
 Frc consts  --      7.5462                 5.9392                 4.1275
 IR Inten    --    296.0847               659.0659              2560.6062

                     73                     74                     75
                      A                      A                      A
 Frequencies --   1347.7396              1380.5467              1383.7284
 Red. masses --      2.3767                 1.3551                 1.3543
 Frc consts  --      2.5435                 1.5217                 1.5278
 IR Inten    --      4.7104                18.1652                56.7507

                     76                     77                     78
                      A                      A                      A
 Frequencies --   1426.7909              1432.0213              1459.7301
 Red. masses --      3.0939                 5.0217                 4.6321
 Frc consts  --      3.7109                 6.0673                 5.8154
 IR Inten    --     43.9736               259.9314               341.1206

                     79                     80                     81
                      A                      A                      A
 Frequencies --   1461.4391              1462.4790              1469.1913
 Red. masses --      1.0788                 1.1186                 1.0521
 Frc consts  --      1.3575                 1.4096                 1.3380
 IR Inten    --     12.8512                46.5400                20.8133

                     82                     83                     84
                      A                      A                      A
 Frequencies --   1470.6665              1474.7297              1489.1478
 Red. masses --      1.0885                 2.6952                 5.4302
 Frc consts  --      1.3871                 3.4535                 7.0948
 IR Inten    --     23.7582               130.7759                47.2918

                     85                     86                     87
                      A                      A                      A
 Frequencies --   1536.7156              1581.6973              1612.8863
 Red. masses --      6.1800                 8.1135                 5.8415
 Frc consts  --      8.5985                11.9593                 8.9533
 IR Inten    --    107.5220                38.5142               110.7827

                     88                     89                     90
                      A                      A                      A
 Frequencies --   1613.8923              1743.8959              1745.9504
 Red. masses --      5.6353                11.1127                11.0481
 Frc consts  --      8.6480                19.9118                19.8428
 IR Inten    --     19.5709                 6.0685              1002.3521

                     91                     92                     93
                      A                      A                      A
 Frequencies --   3051.1250              3052.1975              3118.8991
 Red. masses --      1.0360                 1.0362                 1.0992
 Frc consts  --      5.6824                 5.6873                 6.2997
 IR Inten    --     15.9678                14.5031                 5.5514

                     94                     95                     96
                      A                      A                      A
 Frequencies --   3120.7594              3148.9195              3149.5070
 Red. masses --      1.0989                 1.1044                 1.1042
 Frc consts  --      6.3057                 6.4519                 6.4532
 IR Inten    --      8.4039                21.3261                11.8541

                     97                     98                     99
                      A                      A                      A
 Frequencies --   3155.2690              3155.5593              3177.9230
 Red. masses --      1.0863                 1.0865                 1.0913
 Frc consts  --      6.3719                 6.3745                 6.4936
 IR Inten    --     47.8872                21.6099                22.1110

                    100                    101                    102
                      A                      A                      A
 Frequencies --   3178.2093              3187.2275              3188.2749
 Red. masses --      1.0914                 1.0932                 1.0933
 Frc consts  --      6.4955                 6.5432                 6.5476
 IR Inten    --     22.8389                74.7055                25.5808

 - Thermochemistry -
 -------------------
 Temperature   298.150 Kelvin.  Pressure   1.00000 Atm.
 Atom     1 has atomic number  6 and mass  12.00000

 Molecular mass:   324.06339 amu.
 Principal axes and moments of inertia in atomic units:
                           1         2         3
     Eigenvalues --  5991.504636794.44834**********
           X            0.94243   0.03151  -0.33292
           Y           -0.11507   0.96531  -0.23437
           Z            0.31398   0.25919   0.91336
 This molecule is an asymmetric top.
 Rotational symmetry number  1.
 Warning -- assumption of classical behavior for rotation
           may cause significant error
 Rotational temperatures (Kelvin)      0.01446     0.01275     0.00721
 Rotational constants (GHZ):           0.30122     0.26562     0.15018
 Zero-point vibrational energy     675407.0 (Joules/Mol)
                                  161.42615 (Kcal/Mol)
 Warning -- explicit consideration of  34 degrees of freedom as
           vibrations may cause significant error
 Vibrational temperatures:     50.66    61.84    88.43    93.92   125.49
          (Kelvin)            163.51   167.03   170.83   182.01   193.50
                              237.68   259.22   308.62   317.60   396.53
                              415.03   453.47   456.06   469.53   492.82
                              549.26   576.21   577.88   652.36   681.84
                              717.99   719.34   755.41   784.28   799.48
                              812.25   828.87   836.90   874.70   899.71
                              971.58   987.50  1003.27  1046.07  1049.16
                             1103.53  1118.77  1135.20  1179.19  1180.67
                             1243.94  1251.01  1308.05  1325.42  1342.72
                             1389.85  1405.05  1411.24  1445.00  1477.34
                             1497.31  1504.80  1512.17  1530.72  1531.65
                             1613.10  1648.99  1663.84  1707.92  1732.17
                             1741.56  1768.96  1775.80  1780.06  1869.57
                             1913.45  1928.88  1939.10  1986.30  1990.88
                             2052.83  2060.36  2100.23  2102.68  2104.18
                             2113.84  2115.96  2121.81  2142.55  2210.99
                             2275.71  2320.58  2322.03  2509.08  2512.03
                             4389.89  4391.43  4487.40  4490.08  4530.59
                             4531.44  4539.73  4540.15  4572.32  4572.73
                             4585.71  4587.22

 Zero-point correction=                           0.257249 (Hartree/Particle)
 Thermal correction to Energy=                    0.277527
 Thermal correction to Enthalpy=                  0.278472
 Thermal correction to Gibbs Free Energy=         0.208253
 Sum of electronic and zero-point Energies=          -1144.826027
 Sum of electronic and thermal Energies=             -1144.805748
 Sum of electronic and thermal Enthalpies=           -1144.804804
 Sum of electronic and thermal Free Energies=        -1144.875023

                     E (Thermal)             CV                S
                      KCal/Mol        Cal/Mol-Kelvin    Cal/Mol-Kelvin
 Total                  174.151             78.319            147.787
 Electronic               0.000              0.000              0.000
 Translational            0.889              2.981             43.223
 Rotational               0.889              2.981             34.547
 Vibrational            172.374             72.358             70.018
 Vibration     1          0.594              1.982              5.512
 Vibration     2          0.595              1.980              5.117
 Vibration     3          0.597              1.973              4.410
 Vibration     4          0.597              1.971              4.291
 Vibration     5          0.601              1.958              3.721
 Vibration     6          0.607              1.938              3.206
 Vibration     7          0.608              1.936              3.164
 Vibration     8          0.609              1.934              3.121
 Vibration     9          0.611              1.927              2.998
 Vibration    10          0.613              1.919              2.881
 Vibration    11          0.624              1.885              2.489
 Vibration    12          0.629              1.867              2.327
 Vibration    13          0.644              1.819              2.005
 Vibration    14          0.647              1.809              1.953
 Vibration    15          0.677              1.718              1.561
 Vibration    16          0.685              1.695              1.483
 Vibration    17          0.703              1.645              1.335
 Vibration    18          0.704              1.641              1.326
 Vibration    19          0.710              1.623              1.278
 Vibration    20          0.722              1.590              1.200
 Vibration    21          0.751              1.509              1.032
 Vibration    22          0.766              1.469              0.961
 Vibration    23          0.767              1.467              0.957
 Vibration    24          0.812              1.353              0.786
 Vibration    25          0.831              1.308              0.727
 Vibration    26          0.854              1.252              0.661
 Vibration    27          0.855              1.250              0.658
 Vibration    28          0.880              1.195              0.598
 Vibration    29          0.900              1.150              0.554
 Vibration    30          0.911              1.127              0.533
 Vibration    31          0.920              1.108              0.515
 Vibration    32          0.933              1.083              0.493
 Vibration    33          0.938              1.071              0.482
 Vibration    34          0.967              1.015              0.436

 Optimization completed.
    -- Stationary point found.
 Normal termination of Gaussian 16 at Sun Feb 11 06:52:46 2024.
