 Gaussian 16, Revision A.03,
 Gaussian 16:  ES64L-G16RevA.03 25-Dec-2016

 --------------------------------------
 #P UB3LYP/6-311++G(d,p) nosym opt freq
 --------------------------------------

 -------
 Reduced
 -------
 Symbolic Z-matrix:
 Charge = -2 Multiplicity = 1

 SCF Done:  E(UB3LYP) =  -953.933544654     A.U. after   78 cycles
 SCF Done:  E(UB3LYP) =  -953.976566144     A.U. after   29 cycles
 SCF Done:  E(UB3LYP) =  -953.998099791     A.U. after   34 cycles
 SCF Done:  E(UB3LYP) =  -954.011188526     A.U. after   24 cycles
 SCF Done:  E(UB3LYP) =  -954.011755549     A.U. after   27 cycles
 SCF Done:  E(UB3LYP) =  -954.014101050     A.U. after   20 cycles
 SCF Done:  E(UB3LYP) =  -954.014311894     A.U. after   19 cycles
 SCF Done:  E(UB3LYP) =  -954.013825911     A.U. after   21 cycles
 SCF Done:  E(UB3LYP) =  -954.014566769     A.U. after   19 cycles
 SCF Done:  E(UB3LYP) =  -954.014795125     A.U. after   19 cycles
 SCF Done:  E(UB3LYP) =  -954.014781705     A.U. after   19 cycles
 SCF Done:  E(UB3LYP) =  -954.014819220     A.U. after   18 cycles
 SCF Done:  E(UB3LYP) =  -954.014817215     A.U. after   18 cycles
 SCF Done:  E(UB3LYP) =  -954.014826309     A.U. after   17 cycles
 SCF Done:  E(UB3LYP) =  -954.014827162     A.U. after   16 cycles
 SCF Done:  E(UB3LYP) =  -954.014827973     A.U. after   16 cycles
 SCF Done:  E(UB3LYP) =  -954.014828452     A.U. after   17 cycles
 SCF Done:  E(UB3LYP) =  -954.014828821     A.U. after   17 cycles
 Optimization completed.
    -- Stationary point found.
 Normal termination of Gaussian 16 at Thu Dec 21 23:30:00 2023.

 ----------------------------------------------------------------------
 #P Geom=AllCheck Guess=TCheck SCRF=Check GenChk UB3LYP/6-311++G(d,p) F
 req
 ----------------------------------------------------------------------

 Structure from the checkpoint file:  "191-an.chk"
 -------
 Reduced
 -------
 Charge = -2 Multiplicity = 1

                          Input orientation:
 ---------------------------------------------------------------------
 Center     Atomic      Atomic             Coordinates (Angstroms)
 Number     Number       Type             X           Y           Z
 ---------------------------------------------------------------------
      1          6           0        4.877704   -2.940430   -0.310103
      2          6           0        5.639991   -2.093457   -1.066948
      3          6           0        5.088510   -0.857556   -1.522301
      4          6           0        3.534113   -2.626709    0.044021
      5          6           0        2.936716   -1.367502   -0.405466
      6          6           0        3.786893   -0.515910   -1.199455
      7          6           0        2.815836   -3.567932    0.834323
      8          6           0        1.465640   -3.240198    1.183847
      9          6           0        0.867451   -2.008494    0.749927
     10          6           0        1.585919   -1.045207   -0.052593
     11          6           0        0.696791   -4.160414    1.982637
     12          6           0       -0.603498   -3.854070    2.324208
     13          6           0       -0.496781   -1.727356    1.130361
     14          6           0       -1.200450   -2.636458    1.897549
     15          8           0        3.360694   -4.702177    1.236365
     16          8           0        0.975792    0.061585   -0.413684
     17          8           0        1.273339   -5.327803    2.390170
     18          1           0        5.262401   -3.886817    0.052991
     19          1           0        6.665114   -2.347387   -1.329306
     20          1           0        5.702568   -0.196498   -2.120577
     21          8           0        3.241638    0.676004   -1.633535
     22          1           0        2.231801   -5.265868    1.982633
     23          8           0       -1.075013   -0.565716    0.727068
     24          1           0       -2.225807   -2.398739    2.169157
     25          1           0       -1.164887   -4.563245    2.927591
     26          1           0       -0.289916   -0.111253    0.174497
     27          6           0        4.027126    1.536712   -2.406476
     28          1           0        3.394410    2.400372   -2.628035
     29          1           0        4.349068    1.076178   -3.354219
     30          1           0        4.927097    1.880174   -1.871666
 ---------------------------------------------------------------------

 SCF Done:  E(UB3LYP) =  -954.014828821     A.U. after    1 cycles

 Alpha  occ. eigenvalues --  -18.92780 -18.85390 -18.84854 -18.80057 -18.80016
 Alpha  occ. eigenvalues --  -10.02836 -10.00069  -9.96210  -9.96182  -9.95607
 Alpha  occ. eigenvalues --   -9.94762  -9.93425  -9.93261  -9.92145  -9.91916
 Alpha  occ. eigenvalues --   -9.91104  -9.91075  -9.91020  -9.90869  -9.90678
 Alpha  occ. eigenvalues --   -0.84607  -0.77143  -0.76863  -0.70829  -0.70447
 Alpha  occ. eigenvalues --   -0.60556  -0.57889  -0.53243  -0.52753  -0.48749
 Alpha  occ. eigenvalues --   -0.47396  -0.46312  -0.41497  -0.38095  -0.37858
 Alpha  occ. eigenvalues --   -0.33790  -0.32095  -0.30060  -0.27964  -0.26532
 Alpha  occ. eigenvalues --   -0.25496  -0.24777  -0.24063  -0.23316  -0.21715
 Alpha  occ. eigenvalues --   -0.20590  -0.19808  -0.16619  -0.16513  -0.15555
 Alpha  occ. eigenvalues --   -0.15169  -0.14533  -0.14173  -0.13434  -0.12576
 Alpha  occ. eigenvalues --   -0.12360  -0.10950  -0.10583  -0.10201  -0.09339
 Alpha  occ. eigenvalues --   -0.08417  -0.07182  -0.07145  -0.03358   0.00213
 Alpha  occ. eigenvalues --    0.00675   0.01367   0.01847   0.03036   0.05731
 Alpha  occ. eigenvalues --    0.12136
 Alpha virt. eigenvalues --    0.14165   0.16284   0.17663   0.17955   0.18022
 Alpha virt. eigenvalues --    0.19534   0.20227   0.21070   0.21540   0.21822
 Alpha virt. eigenvalues --    0.22524   0.23372   0.23813   0.25539   0.25876

  Beta  occ. eigenvalues --  -18.92780 -18.85390 -18.84854 -18.80057 -18.80016
  Beta  occ. eigenvalues --  -10.02836 -10.00069  -9.96210  -9.96182  -9.95607
  Beta  occ. eigenvalues --   -9.94762  -9.93425  -9.93261  -9.92145  -9.91916
  Beta  occ. eigenvalues --   -9.91104  -9.91075  -9.91020  -9.90869  -9.90678
  Beta  occ. eigenvalues --   -0.84607  -0.77143  -0.76863  -0.70829  -0.70447
  Beta  occ. eigenvalues --   -0.60556  -0.57889  -0.53243  -0.52753  -0.48749
  Beta  occ. eigenvalues --   -0.47396  -0.46312  -0.41497  -0.38095  -0.37858
  Beta  occ. eigenvalues --   -0.33790  -0.32095  -0.30060  -0.27964  -0.26532
  Beta  occ. eigenvalues --   -0.25496  -0.24777  -0.24063  -0.23316  -0.21715
  Beta  occ. eigenvalues --   -0.20590  -0.19808  -0.16619  -0.16513  -0.15555
  Beta  occ. eigenvalues --   -0.15169  -0.14533  -0.14173  -0.13434  -0.12576
  Beta  occ. eigenvalues --   -0.12360  -0.10950  -0.10583  -0.10201  -0.09339
  Beta  occ. eigenvalues --   -0.08417  -0.07182  -0.07145  -0.03358   0.00213
  Beta  occ. eigenvalues --    0.00675   0.01367   0.01847   0.03036   0.05731
  Beta  occ. eigenvalues --    0.12136
  Beta virt. eigenvalues --    0.14165   0.16284   0.17663   0.17955   0.18022
  Beta virt. eigenvalues --    0.19534   0.20227   0.21070   0.21540   0.21822
  Beta virt. eigenvalues --    0.22524   0.23372   0.23813   0.25539   0.25876

 Mulliken charges and spin densities:
               1          2
     1  C   -0.316664  -0.000000
     2  C   -0.503599   0.000000
     3  C   -0.114272   0.000000
     4  C    0.341319   0.000000
     5  C    0.171974  -0.000000
     6  C    0.048575   0.000000
     7  C   -0.448621   0.000000
     8  C    0.274549  -0.000000
     9  C    0.607397   0.000000
    10  C   -0.413531   0.000000
    11  C   -0.358406  -0.000000
    12  C    0.025770   0.000000
    13  C   -0.428859   0.000000
    14  C   -0.055095  -0.000000
    15  O   -0.575536  -0.000000
    16  O   -0.584030   0.000000
    17  O   -0.470065   0.000000
    18  H    0.131104   0.000000
    19  H    0.088646   0.000000
    20  H    0.081038  -0.000000
    21  O   -0.089976  -0.000000
    22  H    0.375716  -0.000000
    23  O   -0.500471   0.000000
    24  H    0.088582  -0.000000
    25  H    0.089772   0.000000
    26  H    0.446645  -0.000000
    27  C   -0.258439  -0.000000
    28  H    0.154946   0.000000
    29  H    0.095678   0.000000
    30  H    0.095855   0.000000
 Sum of Mulliken charges =  -2.00000   0.00000

 Dipole moment (field-independent basis, Debye):
    X=            -16.6014    Y=             23.5481    Z=             -6.2812  Tot=             29.4885
 Quadrupole moment (field-independent basis, Debye-Ang):
   XX=           -202.3175   YY=           -229.4427   ZZ=           -147.5773
   XY=             51.5809   XZ=              0.8656   YZ=             34.5644

  Exact polarizability: 354.333  29.162 265.445 -95.940 -74.421 227.416
 Approx polarizability: 608.897  10.609 445.040-164.176-135.263 340.642

                      1                      2                      3
                      A                      A                      A
 Frequencies --     35.8754                58.1406                65.9831
 Red. masses --      4.7800                 5.0627                 4.4597
 Frc consts  --      0.0036                 0.0101                 0.0114
 IR Inten    --      2.1982                 2.4738                 0.0401

                      4                      5                      6
                      A                      A                      A
 Frequencies --     99.4587               137.0579               157.6567
 Red. masses --     12.3172                 8.0576                 4.7424
 Frc consts  --      0.0718                 0.0892                 0.0694
 IR Inten    --      0.0066                 0.0030                 1.6342

                      7                      8                      9
                      A                      A                      A
 Frequencies --    170.0075               208.3675               261.4096
 Red. masses --      6.2897                 3.0865                 5.5505
 Frc consts  --      0.1071                 0.0790                 0.2235
 IR Inten    --      2.5117                 0.0066                 1.5408

                     10                     11                     12
                      A                      A                      A
 Frequencies --    265.3399               288.4652               317.6314
 Red. masses --      1.7797                 2.3554                 4.3856
 Frc consts  --      0.0738                 0.1155                 0.2607
 IR Inten    --      0.0261                 2.2453                21.0486

                     13                     14                     15
                      A                      A                      A
 Frequencies --    343.9597               369.5362               382.3577
 Red. masses --      4.8818                 7.8470                 7.9741
 Frc consts  --      0.3403                 0.6314                 0.6869
 IR Inten    --     18.4475                 0.0153                 0.6860

                     16                     17                     18
                      A                      A                      A
 Frequencies --    383.4575               421.5689               440.9732
 Red. masses --      8.4792                 6.6892                 8.0689
 Frc consts  --      0.7346                 0.7004                 0.9245
 IR Inten    --     10.8888                63.6831                17.3133

                     19                     20                     21
                      A                      A                      A
 Frequencies --    450.3937               481.0863               482.3798
 Red. masses --     11.4512                10.4749                 4.2984
 Frc consts  --      1.3686                 1.4284                 0.5893
 IR Inten    --     33.4255                 1.1656                 0.1873

                     22                     23                     24
                      A                      A                      A
 Frequencies --    524.6603               528.7504               537.6103
 Red. masses --      8.8607                 5.6747                 4.3255
 Frc consts  --      1.4371                 0.9347                 0.7366
 IR Inten    --     26.0083                10.5090                 9.3133

                     25                     26                     27
                      A                      A                      A
 Frequencies --    596.0566               601.2341               621.6768
 Red. masses --      6.2977                 3.5382                 4.4581
 Frc consts  --      1.3183                 0.7536                 1.0151
 IR Inten    --      8.7083                24.5260                 2.8718

                     28                     29                     30
                      A                      A                      A
 Frequencies --    631.6131               682.7709               706.3065
 Red. masses --      3.0140                 1.4387                 6.5632
 Frc consts  --      0.7084                 0.3951                 1.9291
 IR Inten    --      0.3218                48.6404                40.4579

                     31                     32                     33
                      A                      A                      A
 Frequencies --    715.3096               736.7155               751.3450
 Red. masses --      2.4622                 4.7645                 7.1660
 Frc consts  --      0.7423                 1.5236                 2.3835
 IR Inten    --     17.0914                 0.9814                56.7816

                     34                     35                     36
                      A                      A                      A
 Frequencies --    751.9234               781.3956               798.4229
 Red. masses --      1.8890                 2.3614                 4.2894
 Frc consts  --      0.6293                 0.8495                 1.6111
 IR Inten    --     12.0154                33.9608                 3.3616

                     37                     38                     39
                      A                      A                      A
 Frequencies --    809.7173               810.2332               883.5756
 Red. masses --      1.6618                 8.0935                 7.4090
 Frc consts  --      0.6420                 3.1305                 3.4080
 IR Inten    --      0.1324                51.2957                22.6208

                     40                     41                     42
                      A                      A                      A
 Frequencies --    940.3708               945.5803               971.8621
 Red. masses --      1.2581                 6.5566                 6.0885
 Frc consts  --      0.6555                 3.4540                 3.3882
 IR Inten    --      4.0280               113.2735               105.3020

                     43                     44                     45
                      A                      A                      A
 Frequencies --   1039.6907              1072.1834              1077.3202
 Red. masses --      2.6373                 1.0487                 2.0563
 Frc consts  --      1.6796                 0.7103                 1.4062
 IR Inten    --     13.5439                60.9061                87.0498

                     46                     47                     48
                      A                      A                      A
 Frequencies --   1095.7912              1115.5038              1122.8053
 Red. masses --      5.0253                 1.0485                 2.0518
 Frc consts  --      3.5552                 0.7687                 1.5240
 IR Inten    --    261.7950                58.4671               202.9972

                     49                     50                     51
                      A                      A                      A
 Frequencies --   1149.9840              1157.4636              1178.7757
 Red. masses --      1.3902                 1.2860                 3.2580
 Frc consts  --      1.0832                 1.0151                 2.6672
 IR Inten    --     33.4139                 0.7281                 9.0741

                     52                     53                     54
                      A                      A                      A
 Frequencies --   1198.7858              1217.3557              1230.9623
 Red. masses --      2.0459                 2.9854                 2.7772
 Frc consts  --      1.7322                 2.6067                 2.4794
 IR Inten    --     34.5900               144.0030                83.3638

                     55                     56                     57
                      A                      A                      A
 Frequencies --   1243.5406              1252.1293              1287.2703
 Red. masses --      3.0505                 3.6083                 5.8983
 Frc consts  --      2.7793                 3.3331                 5.7586
 IR Inten    --    228.4030                19.6492               159.0222

                     58                     59                     60
                      A                      A                      A
 Frequencies --   1305.6672              1333.6171              1355.9473
 Red. masses --      2.4876                 3.3746                 7.1833
 Frc consts  --      2.4986                 3.5361                 7.7815
 IR Inten    --    378.3640                43.4686                59.0435

                     61                     62                     63
                      A                      A                      A
 Frequencies --   1371.5068              1415.4467              1437.2822
 Red. masses --      3.5312                 7.1477                 3.4997
 Frc consts  --      3.9136                 8.4373                 4.2596
 IR Inten    --    324.4741                 0.2521               235.0729

                     64                     65                     66
                      A                      A                      A
 Frequencies --   1454.8033              1470.9086              1472.2523
 Red. masses --      1.4964                 2.5061                 1.0523
 Frc consts  --      1.8660                 3.1946                 1.3438
 IR Inten    --    175.5584               317.9306                 3.4179

                     67                     68                     69
                      A                      A                      A
 Frequencies --   1493.9640              1502.2384              1532.5307
 Red. masses --      4.9939                 1.1044                 4.3369
 Frc consts  --      6.5670                 1.4684                 6.0013
 IR Inten    --    108.5917                45.9148               120.8355

                     70                     71                     72
                      A                      A                      A
 Frequencies --   1566.9243              1589.4947              1604.9466
 Red. masses --      2.8409                 4.9397                 4.6974
 Frc consts  --      4.1096                 7.3531                 7.1290
 IR Inten    --    170.0434                36.8522               189.5897

                     73                     74                     75
                      A                      A                      A
 Frequencies --   1641.1530              1670.1070              2168.5845
 Red. masses --      1.9707                 1.6540                 1.0950
 Frc consts  --      3.1272                 2.7181                 3.0341
 IR Inten    --    286.0809               100.4729               513.6419

                     76                     77                     78
                      A                      A                      A
 Frequencies --   2380.7055              2933.6274              2963.6228
 Red. masses --      1.0893                 1.0376                 1.1024
 Frc consts  --      3.6375                 5.2610                 5.7047
 IR Inten    --    781.5912               180.7974               148.2516

                     79                     80                     81
                      A                      A                      A
 Frequencies --   3065.5054              3107.7095              3118.6523
 Red. masses --      1.0923                 1.0858                 1.0847
 Frc consts  --      6.0479                 6.1785                 6.2157
 IR Inten    --     68.1782                71.8216                55.2232

                     82                     83                     84
                      A                      A                      A
 Frequencies --   3140.7743              3173.9293              3178.5425
 Red. masses --      1.0921                 1.0897                 1.0897
 Frc consts  --      6.3475                 6.4677                 6.4867
 IR Inten    --    109.1352                20.1887                51.8465

 - Thermochemistry -
 -------------------
 Temperature   298.150 Kelvin.  Pressure   1.00000 Atm.
 Atom     1 has atomic number  6 and mass  12.00000

 Molecular mass:   270.05282 amu.
 Principal axes and moments of inertia in atomic units:
                           1         2         3
     Eigenvalues --  3156.397336264.400929409.35844
           X            0.64379  -0.69289   0.32470
           Y            0.53873   0.71177   0.45073
           Z           -0.54342  -0.11526   0.83151
 This molecule is an asymmetric top.
 Rotational symmetry number  1.
 Warning -- assumption of classical behavior for rotation
           may cause significant error
 Rotational temperatures (Kelvin)      0.02744     0.01383     0.00921
 Rotational constants (GHZ):           0.57177     0.28809     0.19180
 Zero-point vibrational energy     556492.3 (Joules/Mol)
                                  133.00484 (Kcal/Mol)
 Warning -- explicit consideration of  26 degrees of freedom as
           vibrations may cause significant error
 Vibrational temperatures:     51.62    83.65    94.93   143.10   197.20
          (Kelvin)            226.83   244.60   299.79   376.11   381.76
                              415.04   457.00   494.88   531.68   550.13
                              551.71   606.54   634.46   648.02   692.18
                              694.04   754.87   760.75   773.50   857.59
                              865.04   894.45   908.75   982.36  1016.22
                             1029.17  1059.97  1081.02  1081.85  1124.25
                             1148.75  1165.00  1165.74  1271.27  1352.98
                             1360.48  1398.29  1495.88  1542.63  1550.02
                             1576.60  1604.96  1615.47  1654.57  1665.33
                             1696.00  1724.79  1751.50  1771.08  1789.18
                             1801.53  1852.09  1878.56  1918.78  1950.91
                             1973.29  2036.51  2067.93  2093.14  2116.31
                             2118.24  2149.48  2161.39  2204.97  2254.45
                             2286.93  2309.16  2361.25  2402.91  3120.11
                             3425.30  4220.84  4263.99  4410.58  4471.30
                             4487.05  4518.87  4566.58  4573.21

 Zero-point correction=                           0.211957 (Hartree/Particle)
 Thermal correction to Energy=                    0.227643
 Thermal correction to Enthalpy=                  0.228587
 Thermal correction to Gibbs Free Energy=         0.168859
 Sum of electronic and zero-point Energies=           -953.802872
 Sum of electronic and thermal Energies=              -953.787186
 Sum of electronic and thermal Enthalpies=            -953.786242
 Sum of electronic and thermal Free Energies=         -953.845970

                     E (Thermal)             CV                S
                      KCal/Mol        Cal/Mol-Kelvin    Cal/Mol-Kelvin
 Total                  142.848             62.732            125.708
 Electronic               0.000              0.000              0.000
 Translational            0.889              2.981             42.679
 Rotational               0.889              2.981             33.586
 Vibrational            141.070             56.771             49.442
 Vibration     1          0.594              1.982              5.475
 Vibration     2          0.596              1.974              4.519
 Vibration     3          0.597              1.970              4.270
 Vibration     4          0.604              1.949              3.465
 Vibration     5          0.614              1.916              2.845
 Vibration     6          0.621              1.894              2.578
 Vibration     7          0.625              1.879              2.435
 Vibration     8          0.642              1.828              2.058
 Vibration     9          0.669              1.743              1.652
 Vibration    10          0.671              1.737              1.626
 Vibration    11          0.685              1.695              1.483
 Vibration    12          0.704              1.640              1.322
 Vibration    13          0.723              1.588              1.194
 Vibration    14          0.742              1.535              1.082
 Vibration    15          0.752              1.508              1.030
 Vibration    16          0.753              1.505              1.025
 Vibration    17          0.784              1.423              0.887
 Vibration    18          0.801              1.381              0.824
 Vibration    19          0.809              1.360              0.795
 Vibration    20          0.837              1.292              0.707
 Vibration    21          0.839              1.289              0.704
 Vibration    22          0.880              1.195              0.599
 Vibration    23          0.884              1.186              0.590
 Vibration    24          0.893              1.167              0.570
 Vibration    25          0.954              1.040              0.456
 Vibration    26          0.959              1.029              0.448

                           ! Non-Optimized Parameters !
 Normal termination of Gaussian 16 at Fri Dec 22 00:35:51 2023.
