 Gaussian 16, Revision A.03,
 Gaussian 16:  ES64L-G16RevA.03 25-Dec-2016

 --------------------------------------
 #P UB3LYP/6-311++G(d,p) nosym opt freq
 --------------------------------------

 -------
 Radical
 -------
 Symbolic Z-matrix:
 Charge = -1 Multiplicity = 2

 SCF Done:  E(UB3LYP) =  -1090.01800278     A.U. after   24 cycles
 SCF Done:  E(UB3LYP) =  -1090.05081637     A.U. after   21 cycles
 SCF Done:  E(UB3LYP) =  -1090.05699101     A.U. after   21 cycles
 SCF Done:  E(UB3LYP) =  -1090.06312981     A.U. after   21 cycles
 SCF Done:  E(UB3LYP) =  -1090.06388455     A.U. after   18 cycles
 SCF Done:  E(UB3LYP) =  -1090.06398601     A.U. after   19 cycles
 SCF Done:  E(UB3LYP) =  -1090.06415604     A.U. after   17 cycles
 SCF Done:  E(UB3LYP) =  -1090.06422747     A.U. after   16 cycles
 SCF Done:  E(UB3LYP) =  -1090.06424914     A.U. after   15 cycles
 SCF Done:  E(UB3LYP) =  -1090.06425736     A.U. after   13 cycles
 SCF Done:  E(UB3LYP) =  -1090.06440320     A.U. after   15 cycles
 SCF Done:  E(UB3LYP) =  -1090.06441276     A.U. after   13 cycles
 SCF Done:  E(UB3LYP) =  -1090.06440946     A.U. after   13 cycles
 SCF Done:  E(UB3LYP) =  -1090.06442714     A.U. after   14 cycles
 SCF Done:  E(UB3LYP) =  -1090.06442796     A.U. after   13 cycles
 SCF Done:  E(UB3LYP) =  -1090.06442813     A.U. after   12 cycles
 SCF Done:  E(UB3LYP) =  -1090.06442817     A.U. after   11 cycles
 SCF Done:  E(UB3LYP) =  -1090.06442825     A.U. after   10 cycles
 SCF Done:  E(UB3LYP) =  -1090.06442829     A.U. after   11 cycles
 Optimization completed.
    -- Stationary point found.
 Normal termination of Gaussian 16 at Thu Dec 21 14:37:01 2023.

 ----------------------------------------------------------------------
 #P Geom=AllCheck Guess=TCheck SCRF=Check GenChk UB3LYP/6-311++G(d,p) F
 req
 ----------------------------------------------------------------------

 Structure from the checkpoint file:  "182-rad.chk"
 -------
 Radical
 -------
 Charge = -1 Multiplicity = 2

                          Input orientation:
 ---------------------------------------------------------------------
 Center     Atomic      Atomic             Coordinates (Angstroms)
 Number     Number       Type             X           Y           Z
 ---------------------------------------------------------------------
      1          6           0        6.652339    0.503619    0.813126
      2          6           0        5.177619    0.417843    0.498561
      3          6           0        4.522311    1.430371   -0.216903
      4          6           0        3.179377    1.338056   -0.547248
      5          6           0        2.400317    0.219584   -0.169176
      6          7           0        1.060305    0.232895   -0.506899
      7          6           0        0.105847   -0.784031   -0.426632
      8          6           0        0.450533   -2.121918   -0.565913
      9          6           0       -0.521020   -3.124050   -0.487604
     10          6           0       -1.855004   -2.820100   -0.270975
     11          8           0       -2.763894   -3.846538   -0.174836
     12          6           0       -2.280065   -1.467752   -0.164596
     13          6           0       -3.700748   -1.147624    0.048902
     14          8           0       -4.592113   -2.011814    0.165914
     15          6           0       -4.050796    0.279659    0.124698
     16          6           0       -5.396288    0.641669    0.339554
     17          6           0       -5.775071    1.968381    0.408690
     18          6           0       -4.805193    2.982615    0.259915
     19          6           0       -3.483432    2.648342    0.046410
     20          6           0       -3.077918    1.295039   -0.021891
     21          6           0       -1.674476    0.979744   -0.245538
     22          8           0       -0.848294    1.938212   -0.423519
     23          6           0       -1.282993   -0.423771   -0.269524
     24          6           0        3.052736   -0.789047    0.567678
     25          6           0        4.405461   -0.679518    0.884788
     26          1           0        6.921837   -0.170288    1.631392
     27          1           0        7.272277    0.230366   -0.050356
     28          1           0        6.942344    1.517164    1.108730
     29          1           0        5.078183    2.311736   -0.526733
     30          1           0        2.700146    2.137679   -1.102374
     31          1           0        0.594734    1.154488   -0.581049
     32          1           0        1.475998   -2.396565   -0.770494
     33          1           0       -0.224663   -4.165051   -0.599710
     34          1           0       -2.270093   -4.666943   -0.280654
     35          1           0       -6.116112   -0.161275    0.445988
     36          1           0       -6.815258    2.231476    0.575766
     37          1           0       -5.099979    4.026551    0.313387
     38          1           0       -2.719289    3.406551   -0.073210
     39          1           0        2.493586   -1.640475    0.929080
     40          1           0        4.866751   -1.475281    1.464525
 ---------------------------------------------------------------------

 SCF Done:  E(UB3LYP) =  -1090.06442829     A.U. after    1 cycles

 Alpha  occ. eigenvalues --  -19.03994 -18.96004 -18.95066 -14.21193 -10.12310
 Alpha  occ. eigenvalues --  -10.11933 -10.10856 -10.10805 -10.10486 -10.09226
 Alpha  occ. eigenvalues --  -10.08515 -10.08269 -10.08258 -10.07544 -10.07349
 Alpha  occ. eigenvalues --  -10.06786 -10.06545 -10.06529 -10.06504 -10.06448
 Alpha  occ. eigenvalues --  -10.06229 -10.05798 -10.05752 -10.05745 -10.05583
 Alpha  occ. eigenvalues --   -0.95225  -0.88718  -0.88094  -0.83552  -0.76144
 Alpha  occ. eigenvalues --   -0.74595  -0.73252  -0.67932  -0.67371  -0.65520
 Alpha  occ. eigenvalues --   -0.63746  -0.63209  -0.62974  -0.58856  -0.55656
 Alpha  occ. eigenvalues --   -0.53314  -0.52411  -0.51517  -0.49931  -0.47714
 Alpha  occ. eigenvalues --   -0.45614  -0.44752  -0.43905  -0.40945  -0.40370
 Alpha  occ. eigenvalues --   -0.37836  -0.37549  -0.36585  -0.35997  -0.34978
 Alpha  occ. eigenvalues --   -0.34314  -0.34213  -0.33439  -0.32970  -0.32181
 Alpha  occ. eigenvalues --   -0.31736  -0.31118  -0.30656  -0.29887  -0.29009
 Alpha  occ. eigenvalues --   -0.28644  -0.28356  -0.27901  -0.27566  -0.26512
 Alpha  occ. eigenvalues --   -0.25983  -0.25567  -0.24777  -0.24248  -0.23748
 Alpha  occ. eigenvalues --   -0.23094  -0.22433  -0.19885  -0.16419  -0.15300
 Alpha  occ. eigenvalues --   -0.14303  -0.14145  -0.13739  -0.12602  -0.11028
 Alpha  occ. eigenvalues --   -0.08320  -0.02184
 Alpha virt. eigenvalues --    0.05776   0.06272   0.07109   0.07569   0.07928
 Alpha virt. eigenvalues --    0.08009   0.08202   0.08542   0.08610   0.09945
 Alpha virt. eigenvalues --    0.09990   0.10388   0.10944   0.11441   0.12182

  Beta  occ. eigenvalues --  -19.03989 -18.95440 -18.94514 -14.21176 -10.12346
  Beta  occ. eigenvalues --  -10.11932 -10.10743 -10.10630 -10.10452 -10.09226
  Beta  occ. eigenvalues --  -10.08506 -10.08272 -10.08260 -10.07539 -10.07341
  Beta  occ. eigenvalues --  -10.06753 -10.06532 -10.06399 -10.06387 -10.06378
  Beta  occ. eigenvalues --  -10.06158 -10.05783 -10.05773 -10.05710 -10.05479
  Beta  occ. eigenvalues --   -0.95213  -0.87798  -0.87160  -0.83417  -0.76102
  Beta  occ. eigenvalues --   -0.74385  -0.73112  -0.67872  -0.66987  -0.65505
  Beta  occ. eigenvalues --   -0.63561  -0.63021  -0.62849  -0.58778  -0.55023
  Beta  occ. eigenvalues --   -0.53183  -0.52280  -0.51357  -0.49878  -0.47642
  Beta  occ. eigenvalues --   -0.45430  -0.44613  -0.43831  -0.40866  -0.40243
  Beta  occ. eigenvalues --   -0.37818  -0.37463  -0.36365  -0.35849  -0.34869
  Beta  occ. eigenvalues --   -0.34293  -0.34159  -0.33359  -0.32938  -0.32084
  Beta  occ. eigenvalues --   -0.31273  -0.31041  -0.30512  -0.29764  -0.28767
  Beta  occ. eigenvalues --   -0.28170  -0.27782  -0.27693  -0.27395  -0.26334
  Beta  occ. eigenvalues --   -0.25528  -0.25107  -0.24734  -0.23644  -0.22866
  Beta  occ. eigenvalues --   -0.22279  -0.22075  -0.19471  -0.16400  -0.13985
  Beta  occ. eigenvalues --   -0.13537  -0.13246  -0.13002  -0.12103  -0.10509
  Beta  occ. eigenvalues --   -0.07693
  Beta virt. eigenvalues --    0.03436   0.05775   0.06957   0.07115   0.07605
  Beta virt. eigenvalues --    0.07926   0.08005   0.08369   0.08541   0.09649
  Beta virt. eigenvalues --    0.09940   0.10075   0.10390   0.10953   0.11456

 Mulliken charges and spin densities:
               1          2
     1  C   -0.599788  -0.000542
     2  C    0.559792   0.005924
     3  C   -0.187396  -0.002847
     4  C   -0.545629   0.005819
     5  C   -0.353125  -0.009928
     6  N    0.072905   0.012066
     7  C    0.159389   0.035160
     8  C   -0.185452   0.047332
     9  C   -0.418410   0.102959
    10  C   -0.395819  -0.011879
    11  O   -0.170410   0.000562
    12  C    0.531210   0.082886
    13  C   -0.465846   0.011704
    14  O   -0.328206   0.209351
    15  C    0.123179   0.056772
    16  C    0.104222  -0.004897
    17  C   -0.500460   0.057317
    18  C   -0.502893   0.009663
    19  C   -0.003681   0.043938
    20  C    0.179151  -0.016886
    21  C   -0.296367   0.116027
    22  O   -0.337782   0.213774
    23  C    0.376607   0.041342
    24  C    0.252286   0.010503
    25  C   -0.566090   0.000721
    26  H    0.133560   0.000088
    27  H    0.144682   0.000622
    28  H    0.127036   0.000124
    29  H    0.139518   0.000197
    30  H    0.133544  -0.001032
    31  H    0.479182   0.002024
    32  H    0.161435  -0.004588
    33  H    0.093923  -0.008490
    34  H    0.236086  -0.000789
    35  H    0.157383   0.000241
    36  H    0.125301  -0.004453
    37  H    0.128086  -0.001143
    38  H    0.145965  -0.002658
    39  H    0.167330   0.002926
    40  H    0.125581   0.000088
 Sum of Mulliken charges =  -1.00000   1.00000

 Dipole moment (field-independent basis, Debye):
    X=              9.6045    Y=             -0.1326    Z=              0.1504  Tot=              9.6066
 Quadrupole moment (field-independent basis, Debye-Ang):
   XX=           -217.2573   YY=           -158.4654   ZZ=           -155.4546
   XY=            -13.8377   XZ=              0.8666   YZ=              0.1784

  Exact polarizability: 523.567 -19.899 346.816  -4.128   0.118 155.586
 Approx polarizability: 715.269  -0.125 613.995 -17.372 -14.376 258.255

                      1                      2                      3
                      A                      A                      A
 Frequencies --     19.6826                33.7620                37.4443
 Red. masses --      5.5306                 5.3672                 2.1568
 Frc consts  --      0.0013                 0.0036                 0.0018
 IR Inten    --      0.3990                 5.5876                 0.9874

                      4                      5                      6
                      A                      A                      A
 Frequencies --     51.1379                61.0945                63.7695
 Red. masses --      1.3986                 5.5951                 5.8297
 Frc consts  --      0.0022                 0.0123                 0.0140
 IR Inten    --      0.7065                 0.5514                 1.6938

                      7                      8                      9
                      A                      A                      A
 Frequencies --    123.6033               131.3688               148.3935
 Red. masses --      4.3687                 4.8182                 5.4089
 Frc consts  --      0.0393                 0.0490                 0.0702
 IR Inten    --      2.1994                 0.7838                 1.5414

                     10                     11                     12
                      A                      A                      A
 Frequencies --    171.2932               196.6518               229.3805
 Red. masses --      7.2364                 5.4885                 5.6813
 Frc consts  --      0.1251                 0.1251                 0.1761
 IR Inten    --      0.4713                 1.8646                 2.0454

                     13                     14                     15
                      A                      A                      A
 Frequencies --    245.8563               263.2793               301.5339
 Red. masses --      3.2905                 4.3265                 1.5981
 Frc consts  --      0.1172                 0.1767                 0.0856
 IR Inten    --     16.8953                11.1189                36.2231

                     16                     17                     18
                      A                      A                      A
 Frequencies --    317.8504               322.1169               359.3413
 Red. masses --      3.0340                 5.9624                 5.4533
 Frc consts  --      0.1806                 0.3645                 0.4149
 IR Inten    --     17.3335                 2.1721                 1.4306

                     19                     20                     21
                      A                      A                      A
 Frequencies --    370.6085               382.5055               402.2178
 Red. masses --      4.5167                 7.5849                 5.9198
 Frc consts  --      0.3655                 0.6538                 0.5643
 IR Inten    --      7.0349                 3.6007                 5.9359

                     22                     23                     24
                      A                      A                      A
 Frequencies --    416.0774               425.2772               433.7583
 Red. masses --      6.1503                 3.2000                 7.9348
 Frc consts  --      0.6273                 0.3410                 0.8796
 IR Inten    --      0.4090                 2.3644                12.5494

                     25                     26                     27
                      A                      A                      A
 Frequencies --    439.5562               472.6280               492.3332
 Red. masses --      3.9505                 6.1375                 9.8225
 Frc consts  --      0.4497                 0.8078                 1.4028
 IR Inten    --      4.6532                13.1797                 3.4961

                     28                     29                     30
                      A                      A                      A
 Frequencies --    500.8337               512.0729               517.6455
 Red. masses --      4.5470                 2.5439                 5.7388
 Frc consts  --      0.6720                 0.3930                 0.9060
 IR Inten    --      0.3156                20.8095                 9.5589

                     31                     32                     33
                      A                      A                      A
 Frequencies --    573.6719               591.5192               629.9878
 Red. masses --      5.9411                 3.4855                 5.2650
 Frc consts  --      1.1520                 0.7185                 1.2312
 IR Inten    --      8.4950                36.1663                19.9716

                     34                     35                     36
                      A                      A                      A
 Frequencies --    645.8930               654.2868               669.6557
 Red. masses --      5.3884                 6.9208                 6.3850
 Frc consts  --      1.3244                 1.7456                 1.6870
 IR Inten    --      1.8284                 6.1449                 5.2772

                     37                     38                     39
                      A                      A                      A
 Frequencies --    713.7748               720.3517               721.4957
 Red. masses --      3.2111                 2.1392                 6.1060
 Frc consts  --      0.9639                 0.6540                 1.8727
 IR Inten    --      5.2588                12.8854                 3.6273

                     40                     41                     42
                      A                      A                      A
 Frequencies --    736.1112               762.7313               776.8283
 Red. masses --      4.7631                 2.9750                 1.8132
 Frc consts  --      1.5207                 1.0197                 0.6447
 IR Inten    --      2.2623                22.1072                72.4906

                     43                     44                     45
                      A                      A                      A
 Frequencies --    782.5064               792.6216               815.3350
 Red. masses --      3.8788                 2.6042                 3.7573
 Frc consts  --      1.3994                 0.9639                 1.4716
 IR Inten    --     15.3939                 6.1525                 0.6374

                     46                     47                     48
                      A                      A                      A
 Frequencies --    820.2045               825.9376               832.0856
 Red. masses --      1.5100                 1.6471                 2.4842
 Frc consts  --      0.5985                 0.6620                 1.0134
 IR Inten    --      8.9086                33.4376                15.1867

                     49                     50                     51
                      A                      A                      A
 Frequencies --    873.1960               877.3886               886.1736
 Red. masses --      1.5173                 6.3884                 1.8697
 Frc consts  --      0.6816                 2.8975                 0.8651
 IR Inten    --      0.1358                46.0196                91.8379

                     52                     53                     54
                      A                      A                      A
 Frequencies --    890.2302               919.3466               943.5349
 Red. masses --      1.3651                 4.7304                 1.2838
 Frc consts  --      0.6374                 2.3556                 0.6734
 IR Inten    --      2.1677                14.0422                 0.6028

                     55                     56                     57
                      A                      A                      A
 Frequencies --    961.4973               963.2327               983.4432
 Red. masses --      1.5677                 3.4027                 1.3416
 Frc consts  --      0.8539                 1.8601                 0.7645
 IR Inten    --      4.7585                31.0088                 1.7990

                     58                     59                     60
                      A                      A                      A
 Frequencies --    985.1583              1000.2060              1024.2459
 Red. masses --      1.2802                 1.4215                 2.7840
 Frc consts  --      0.7321                 0.8379                 1.7208
 IR Inten    --      0.5515                 1.8077                 2.9669

                     61                     62                     63
                      A                      A                      A
 Frequencies --   1034.9038              1055.0142              1069.3664
 Red. masses --      2.4927                 1.4640                 2.6440
 Frc consts  --      1.5729                 0.9601                 1.7814
 IR Inten    --     40.7360                21.4485                75.3593

                     64                     65                     66
                      A                      A                      A
 Frequencies --   1111.0336              1142.4115              1146.8494
 Red. masses --      2.1305                 1.3232                 1.3844
 Frc consts  --      1.5495                 1.0175                 1.0728
 IR Inten    --     14.4658                12.5868                29.7949

                     67                     68                     69
                      A                      A                      A
 Frequencies --   1183.5988              1187.8461              1203.4322
 Red. masses --      1.4660                 1.9869                 1.1901
 Frc consts  --      1.2100                 1.6518                 1.0155
 IR Inten    --     36.2037                11.4345                30.2959

                     70                     71                     72
                      A                      A                      A
 Frequencies --   1214.4336              1222.0141              1231.7813
 Red. masses --      1.7327                 3.2075                 3.1023
 Frc consts  --      1.5056                 2.8221                 2.7734
 IR Inten    --     32.1007                28.4747                 0.8059

                     73                     74                     75
                      A                      A                      A
 Frequencies --   1243.4492              1257.4888              1277.0012
 Red. masses --      2.4867                 2.6911                 2.6462
 Frc consts  --      2.2653                 2.5072                 2.5425
 IR Inten    --      2.1847                29.9682                53.9165

                     76                     77                     78
                      A                      A                      A
 Frequencies --   1288.2620              1322.1388              1333.9746
 Red. masses --      3.3082                 5.2360                 1.7517
 Frc consts  --      3.2348                 5.3926                 1.8365
 IR Inten    --      7.7743                47.3568                19.2035

                     79                     80                     81
                      A                      A                      A
 Frequencies --   1352.6344              1359.2320              1369.7477
 Red. masses --      2.8921                 3.2050                 8.9119
 Frc consts  --      3.1176                 3.4887                 9.8515
 IR Inten    --     52.9616                53.3748                 2.2619

                     82                     83                     84
                      A                      A                      A
 Frequencies --   1390.6944              1408.5015              1424.5932
 Red. masses --      3.1724                 1.2593                 3.4385
 Frc consts  --      3.6150                 1.4720                 4.1115
 IR Inten    --    356.2526                 8.2371               445.5089

                     85                     86                     87
                      A                      A                      A
 Frequencies --   1447.4816              1479.9269              1480.7854
 Red. masses --      2.7480                 3.2535                 2.5180
 Frc consts  --      3.3923                 4.1984                 3.2530
 IR Inten    --      6.9287                 0.4684                84.8484

                     88                     89                     90
                      A                      A                      A
 Frequencies --   1484.9729              1495.8049              1509.9975
 Red. masses --      1.0471                 1.1411                 3.5503
 Frc consts  --      1.3605                 1.5042                 4.7695
 IR Inten    --      6.8978                17.1347               252.4207

                     91                     92                     93
                      A                      A                      A
 Frequencies --   1540.3112              1555.4459              1565.2244
 Red. masses --      2.6879                 6.0537                 4.3892
 Frc consts  --      3.7573                 8.6294                 6.3356
 IR Inten    --    593.7648               688.5415                28.3842

                     94                     95                     96
                      A                      A                      A
 Frequencies --   1582.3607              1599.1864              1617.0177
 Red. masses --      4.9402                 5.8574                 4.7164
 Frc consts  --      7.2880                 8.8257                 7.2659
 IR Inten    --    314.0095                49.7450               184.2544

                     97                     98                     99
                      A                      A                      A
 Frequencies --   1633.5646              1644.8666              1651.5783
 Red. masses --      3.4976                 2.8560                 5.5781
 Frc consts  --      5.4992                 4.5527                 8.9647
 IR Inten    --     44.7683                99.5568               157.1458

                    100                    101                    102
                      A                      A                      A
 Frequencies --   2994.2898              3042.1303              3075.8730
 Red. masses --      1.0445                 1.0905                 1.1002
 Frc consts  --      5.5178                 5.9459                 6.1329
 IR Inten    --    158.8137                38.8907                25.0709

                    103                    104                    105
                      A                      A                      A
 Frequencies --   3119.0400              3122.6680              3133.2467
 Red. masses --      1.0871                 1.0849                 1.0885
 Frc consts  --      6.2310                 6.2330                 6.2958
 IR Inten    --    169.1465               630.8597                30.2607

                    106                    107                    108
                      A                      A                      A
 Frequencies --   3135.0441              3136.2391              3155.4385
 Red. masses --      1.0877                 1.0850                 1.0917
 Frc consts  --      6.2986                 6.2878                 6.4041
 IR Inten    --     16.8697                17.5321                50.4073

                    109                    110                    111
                      A                      A                      A
 Frequencies --   3168.1848              3187.4265              3192.7670
 Red. masses --      1.0927                 1.0917                 1.0921
 Frc consts  --      6.4618                 6.5346                 6.5589
 IR Inten    --     12.9830                16.0979                21.3980

                    112                    113                    114
                      A                      A                      A
 Frequencies --   3195.7472              3210.5886              3806.4214
 Red. masses --      1.0912                 1.0900                 1.0654
 Frc consts  --      6.5662                 6.6197                 9.0946
 IR Inten    --     18.5356                 2.5422                19.6124

 - Thermochemistry -
 -------------------
 Temperature   298.150 Kelvin.  Pressure   1.00000 Atm.
 Atom     1 has atomic number  6 and mass  12.00000

 Molecular mass:   329.10519 amu.
 Principal axes and moments of inertia in atomic units:
                           1         2         3
     Eigenvalues --  4187.91814********************
           X            0.99982  -0.00573  -0.01824
           Y            0.00499   0.99916  -0.04062
           Z            0.01846   0.04052   0.99901
 This molecule is an asymmetric top.
 Rotational symmetry number  1.
 Warning -- assumption of classical behavior for rotation
           may cause significant error
 Rotational temperatures (Kelvin)      0.02068     0.00576     0.00460
 Rotational constants (GHZ):           0.43094     0.11995     0.09595
 Zero-point vibrational energy     799163.8 (Joules/Mol)
                                  191.00474 (Kcal/Mol)
 Warning -- explicit consideration of  32 degrees of freedom as
           vibrations may cause significant error
 Vibrational temperatures:     28.32    48.58    53.87    73.58    87.90
          (Kelvin)             91.75   177.84   189.01   213.51   246.45
                              282.94   330.03   353.73   378.80   433.84
                              457.32   463.45   517.01   533.22   550.34
                              578.70   598.64   611.88   624.08   632.42
                              680.01   708.36   720.59   736.76   744.78
                              825.39   851.06   906.41   929.30   941.37
                              963.49  1026.96  1036.43  1038.07  1059.10
                             1097.40  1117.68  1125.85  1140.41  1173.09
                             1180.09  1188.34  1197.19  1256.33  1262.37
                             1275.01  1280.84  1322.73  1357.54  1383.38
                             1385.88  1414.96  1417.42  1439.07  1473.66
                             1489.00  1517.93  1538.58  1598.53  1643.68
                             1650.06  1702.93  1709.05  1731.47  1747.30
                             1758.21  1772.26  1789.05  1809.25  1837.32
                             1853.52  1902.26  1919.29  1946.14  1955.63
                             1970.76  2000.90  2026.52  2049.67  2082.60
                             2129.28  2130.52  2136.54  2152.13  2172.55
                             2216.16  2237.94  2252.01  2276.66  2300.87
                             2326.53  2350.34  2366.60  2376.25  4308.12
                             4376.95  4425.50  4487.60  4492.82  4508.04
                             4510.63  4512.35  4539.97  4558.31  4586.00
                             4593.68  4597.97  4619.32  5476.59

 Zero-point correction=                           0.304385 (Hartree/Particle)
 Thermal correction to Energy=                    0.324667
 Thermal correction to Enthalpy=                  0.325612
 Thermal correction to Gibbs Free Energy=         0.253153
 Sum of electronic and zero-point Energies=          -1089.760043
 Sum of electronic and thermal Energies=             -1089.739761
 Sum of electronic and thermal Enthalpies=           -1089.738817
 Sum of electronic and thermal Free Energies=        -1089.811275

                     E (Thermal)             CV                S
                      KCal/Mol        Cal/Mol-Kelvin    Cal/Mol-Kelvin
 Total                  203.732             80.576            152.502
 Electronic               0.000              0.000              1.377
 Translational            0.889              2.981             43.269
 Rotational               0.889              2.981             35.426
 Vibrational            201.954             74.615             72.430
 Vibration     1          0.593              1.986              6.666
 Vibration     2          0.594              1.983              5.595
 Vibration     3          0.594              1.982              5.390
 Vibration     4          0.595              1.977              4.773
 Vibration     5          0.597              1.973              4.422
 Vibration     6          0.597              1.972              4.337
 Vibration     7          0.610              1.929              3.043
 Vibration     8          0.612              1.922              2.926
 Vibration     9          0.618              1.904              2.693
 Vibration    10          0.626              1.878              2.421
 Vibration    11          0.636              1.845              2.164
 Vibration    12          0.652              1.796              1.884
 Vibration    13          0.660              1.770              1.760
 Vibration    14          0.670              1.740              1.640
 Vibration    15          0.694              1.671              1.408
 Vibration    16          0.704              1.639              1.321
 Vibration    17          0.707              1.631              1.299
 Vibration    18          0.734              1.556              1.125
 Vibration    19          0.743              1.533              1.077
 Vibration    20          0.752              1.507              1.029
 Vibration    21          0.768              1.465              0.955
 Vibration    22          0.779              1.435              0.905
 Vibration    23          0.787              1.415              0.874
 Vibration    24          0.794              1.397              0.846
 Vibration    25          0.800              1.384              0.828
 Vibration    26          0.829              1.311              0.730
 Vibration    27          0.848              1.267              0.678
 Vibration    28          0.856              1.248              0.656
 Vibration    29          0.867              1.223              0.629
 Vibration    30          0.873              1.211              0.615
 Vibration    31          0.930              1.088              0.497
 Vibration    32          0.949              1.050              0.464

 Optimization completed.
    -- Stationary point found.
 Normal termination of Gaussian 16 at Thu Dec 21 18:01:21 2023.
