 Gaussian 16, Revision A.03,
 Gaussian 16:  ES64L-G16RevA.03 25-Dec-2016

 --------------------------------------
 #P UB3LYP/6-311++G(d,p) nosym opt freq
 --------------------------------------

 -------
 Radical
 -------
 Symbolic Z-matrix:
 Charge = -1 Multiplicity = 2

 SCF Done:  E(UB3LYP) =  -690.169218386     A.U. after   23 cycles
 SCF Done:  E(UB3LYP) =  -690.188585199     A.U. after   17 cycles
 SCF Done:  E(UB3LYP) =  -690.190573788     A.U. after   17 cycles
 SCF Done:  E(UB3LYP) =  -690.192007695     A.U. after   16 cycles
 SCF Done:  E(UB3LYP) =  -690.192182409     A.U. after   16 cycles
 SCF Done:  E(UB3LYP) =  -690.192284338     A.U. after   15 cycles
 SCF Done:  E(UB3LYP) =  -690.192286645     A.U. after   12 cycles
 Optimization completed.
    -- Stationary point found.
 Normal termination of Gaussian 16 at Sat Jan  6 02:20:29 2024.

 ----------------------------------------------------------------------
 #P Geom=AllCheck Guess=TCheck SCRF=Check GenChk UB3LYP/6-311++G(d,p) F
 req
 ----------------------------------------------------------------------

 Structure from the checkpoint file:  "346-rad.chk"
 -------
 Radical
 -------
 Charge = -1 Multiplicity = 2

                          Input orientation:
 ---------------------------------------------------------------------
 Center     Atomic      Atomic             Coordinates (Angstroms)
 Number     Number       Type             X           Y           Z
 ---------------------------------------------------------------------
      1          8           0       -0.058450   -1.190985    1.256324
      2          6           0       -0.463224   -0.385423    0.370331
      3          6           0       -1.953596   -0.242960    0.206184
      4          6           0       -2.754562   -1.027934    1.062902
      5          6           0       -4.142468   -0.985115    1.008469
      6          6           0       -4.788098   -0.151773    0.090975
      7          6           0       -4.013648    0.632086   -0.764633
      8          6           0       -2.620295    0.592768   -0.714090
      9          6           0        0.463447    0.385176   -0.470242
     10          8           0        0.058724    1.190925   -1.356176
     11          6           0        1.953622    0.242882   -0.306419
     12          6           0        2.754306    1.028236   -1.163016
     13          6           0        4.142184    0.985548   -1.108911
     14          6           0        4.788018    0.151888   -0.191824
     15          6           0        4.013885   -0.632449    0.663750
     16          6           0        2.620515   -0.593160    0.613447
     17          1           0       -2.242608   -1.669637    1.769455
     18          1           0       -4.726918   -1.603950    1.684061
     19          1           0       -5.872532   -0.115463    0.045347
     20          1           0       -4.498200    1.286137   -1.484582
     21          1           0       -2.025449    1.201216   -1.378364
     22          1           0        2.242050    1.670128   -1.869244
     23          1           0        4.726433    1.604695   -1.784399
     24          1           0        5.872441    0.115694   -0.146474
     25          1           0        4.498600   -1.286713    1.383329
     26          1           0        2.025823   -1.201818    1.277587
 ---------------------------------------------------------------------

 SCF Done:  E(UB3LYP) =  -690.192286645     A.U. after    1 cycles

 Alpha  occ. eigenvalues --  -18.93757 -18.93754 -10.08438 -10.08404 -10.05833
 Alpha  occ. eigenvalues --  -10.05832 -10.05638 -10.05637 -10.05448 -10.05448
 Alpha  occ. eigenvalues --  -10.04957 -10.04954 -10.04409 -10.04407 -10.04111
 Alpha  occ. eigenvalues --  -10.04110  -0.87078  -0.85333  -0.73184  -0.73020
 Alpha  occ. eigenvalues --   -0.63146  -0.62947  -0.62308  -0.62212  -0.54029
 Alpha  occ. eigenvalues --   -0.49842  -0.48469  -0.47750  -0.45857  -0.41924
 Alpha  occ. eigenvalues --   -0.39464  -0.36176  -0.34971  -0.32767  -0.32178
 Alpha  occ. eigenvalues --   -0.32032  -0.30200  -0.30023  -0.28931  -0.28800
 Alpha  occ. eigenvalues --   -0.28100  -0.26206  -0.25150  -0.23932  -0.23389
 Alpha  occ. eigenvalues --   -0.22126  -0.21641  -0.21338  -0.20612  -0.13664
 Alpha  occ. eigenvalues --   -0.13475  -0.13231  -0.12858  -0.12789  -0.08219
 Alpha  occ. eigenvalues --   -0.01289
 Alpha virt. eigenvalues --    0.07908   0.07920   0.07940   0.09659   0.09766
 Alpha virt. eigenvalues --    0.10819   0.10834   0.10958   0.11391   0.12724
 Alpha virt. eigenvalues --    0.12935   0.13521   0.15082   0.15341   0.15678

  Beta  occ. eigenvalues --  -18.93039 -18.93036 -10.08218 -10.08187 -10.05761
  Beta  occ. eigenvalues --  -10.05760 -10.05665 -10.05664 -10.05474 -10.05474
  Beta  occ. eigenvalues --  -10.04987 -10.04984 -10.04348 -10.04345 -10.04058
  Beta  occ. eigenvalues --  -10.04057  -0.85825  -0.84019  -0.73112  -0.72932
  Beta  occ. eigenvalues --   -0.63023  -0.62681  -0.62247  -0.62151  -0.52941
  Beta  occ. eigenvalues --   -0.49598  -0.48416  -0.47704  -0.45547  -0.41798
  Beta  occ. eigenvalues --   -0.39391  -0.35938  -0.34829  -0.32661  -0.32109
  Beta  occ. eigenvalues --   -0.31964  -0.30023  -0.29996  -0.28696  -0.28420
  Beta  occ. eigenvalues --   -0.26444  -0.25718  -0.24860  -0.23825  -0.22111
  Beta  occ. eigenvalues --   -0.21818  -0.21564  -0.21257  -0.17586  -0.13347
  Beta  occ. eigenvalues --   -0.13299  -0.12245  -0.12201  -0.11757  -0.07552
  Beta virt. eigenvalues --    0.05934   0.07914   0.07935   0.09050   0.09646
  Beta virt. eigenvalues --    0.09751   0.10817   0.10971   0.11148   0.11382
  Beta virt. eigenvalues --    0.12928   0.13521   0.13932   0.15082   0.15368

 Mulliken charges and spin densities:
               1          2
     1  O   -0.329566   0.272180
     2  C   -0.535174   0.161698
     3  C    1.711732  -0.057304
     4  C    0.474453   0.081353
     5  C   -0.276651  -0.022298
     6  C   -0.470712   0.060738
     7  C   -0.434869  -0.026303
     8  C   -1.359316   0.043837
     9  C   -0.534448   0.161735
    10  O   -0.329593   0.272256
    11  C    1.711030  -0.057338
    12  C    0.474655   0.081408
    13  C   -0.276541  -0.022317
    14  C   -0.470818   0.060783
    15  C   -0.434497  -0.026316
    16  C   -1.359656   0.043872
    17  H    0.171796  -0.006258
    18  H    0.130556   0.001373
    19  H    0.102824  -0.004423
    20  H    0.147085   0.000987
    21  H    0.167735  -0.005667
    22  H    0.171805  -0.006263
    23  H    0.130558   0.001374
    24  H    0.102820  -0.004427
    25  H    0.147080   0.000988
    26  H    0.167712  -0.005668
 Sum of Mulliken charges =  -1.00000   1.00000

 Dipole moment (field-independent basis, Debye):
    X=             -0.0011    Y=             -0.0001    Z=              0.2405  Tot=              0.2405
 Quadrupole moment (field-independent basis, Debye-Ang):
   XX=           -122.8162   YY=           -104.8625   ZZ=           -105.2826
   XY=             -1.5696   XZ=              1.6180   YZ=              2.2464

  Exact polarizability: 396.321  20.066 140.758 -20.454 -45.422 148.946
 Approx polarizability: 498.871  22.859 242.126 -23.257 -97.363 259.884

                      1                      2                      3
                      A                      A                      A
 Frequencies --     16.8064                26.2370                49.0701
 Red. masses --      5.1446                 4.6466                 6.9163
 Frc consts  --      0.0009                 0.0019                 0.0098
 IR Inten    --      2.5372                 1.2749                 0.0000

                      4                      5                      6
                      A                      A                      A
 Frequencies --    117.8653               151.4736               166.9293
 Red. masses --      5.1946                 4.7112                 5.7233
 Frc consts  --      0.0425                 0.0637                 0.0940
 IR Inten    --      3.6183                 0.0000                 2.0342

                      7                      8                      9
                      A                      A                      A
 Frequencies --    223.2850               282.1538               323.0938
 Red. masses --      6.1737                 4.9804                 7.5548
 Frc consts  --      0.1813                 0.2336                 0.4647
 IR Inten    --      0.0000                 0.0000                16.7553

                     10                     11                     12
                      A                      A                      A
 Frequencies --    381.1990               414.5704               418.1930
 Red. masses --      5.3126                11.8868                 3.0582
 Frc consts  --      0.4548                 1.2037                 0.3151
 IR Inten    --      0.4162                 0.0000                 0.1182

                     13                     14                     15
                      A                      A                      A
 Frequencies --    418.2866               445.7226               458.7658
 Red. masses --      3.0512                 3.6495                 8.7448
 Frc consts  --      0.3145                 0.4272                 1.0844
 IR Inten    --      0.0008                 0.0000                 1.3309

                     16                     17                     18
                      A                      A                      A
 Frequencies --    561.5642               633.3473               633.5129
 Red. masses --      3.8101                 6.5807                 6.3660
 Frc consts  --      0.7079                 1.5553                 1.5053
 IR Inten    --     30.9342                 0.0000                 0.0241

                     19                     20                     21
                      A                      A                      A
 Frequencies --    641.9922               645.2902               692.0071
 Red. masses --      8.9019                 7.8040                 5.2798
 Frc consts  --      2.1617                 1.9146                 1.4897
 IR Inten    --      0.0000                13.6612                 0.0000

                     22                     23                     24
                      A                      A                      A
 Frequencies --    699.9021               703.3181               723.4849
 Red. masses --      1.8216                 1.3677                 7.5175
 Frc consts  --      0.5257                 0.3986                 2.3184
 IR Inten    --     89.5302                 0.0111                 0.0000

                     25                     26                     27
                      A                      A                      A
 Frequencies --    760.4723               788.8523               823.4622
 Red. masses --      1.9622                 3.0789                 6.8779
 Frc consts  --      0.6686                 1.1288                 2.7478
 IR Inten    --     64.1510                 0.0001                11.3840

                     28                     29                     30
                      A                      A                      A
 Frequencies --    850.9695               851.1956               915.7694
 Red. masses --      1.2573                 1.2587                 1.4004
 Frc consts  --      0.5364                 0.5373                 0.6920
 IR Inten    --      0.0144                 0.0003                 8.2256

                     31                     32                     33
                      A                      A                      A
 Frequencies --    915.8832               983.3582               983.6808
 Red. masses --      1.4183                 1.2680                 1.2639
 Frc consts  --      0.7010                 0.7224                 0.7206
 IR Inten    --      1.9071                 0.0616                 4.3739

                     34                     35                     36
                      A                      A                      A
 Frequencies --    999.2926               999.5819              1006.5234
 Red. masses --      1.3170                 1.3169                 6.1151
 Frc consts  --      0.7749                 0.7753                 3.6501
 IR Inten    --      0.0383                 0.7132                90.6563

                     37                     38                     39
                      A                      A                      A
 Frequencies --   1008.0435              1041.4353              1043.9525
 Red. masses --      6.1742                 2.7237                 2.0975
 Frc consts  --      3.6965                 1.7405                 1.3468
 IR Inten    --      0.0000                 0.0080                35.9931

                     40                     41                     42
                      A                      A                      A
 Frequencies --   1075.8766              1086.1204              1089.9496
 Red. masses --      2.5270                 1.5338                 1.7485
 Frc consts  --      1.7234                 1.0660                 1.2238
 IR Inten    --      0.0000                42.1821                 0.0011

                     43                     44                     45
                      A                      A                      A
 Frequencies --   1135.4994              1166.8679              1167.1491
 Red. masses --      2.4717                 1.0984                 1.0944
 Frc consts  --      1.8776                 0.8812                 0.8783
 IR Inten    --    162.7312                 0.0192                 2.6707

                     46                     47                     48
                      A                      A                      A
 Frequencies --   1181.3102              1201.5267              1284.4674
 Red. masses --      1.1977                 1.5085                 4.7781
 Frc consts  --      0.9848                 1.2831                 4.6446
 IR Inten    --      0.0001                30.0188                 0.0005

                     49                     50                     51
                      A                      A                      A
 Frequencies --   1318.3009              1318.3894              1337.7091
 Red. masses --      2.3142                 2.4986                 2.4155
 Frc consts  --      2.3697                 2.5588                 2.5467
 IR Inten    --      0.2888                 0.0016                 8.2540

                     52                     53                     54
                      A                      A                      A
 Frequencies --   1339.6846              1434.3603              1457.2499
 Red. masses --      2.6108                 5.5288                 2.3427
 Frc consts  --      2.7608                 6.7019                 2.9311
 IR Inten    --      0.0001               588.0658                 0.0003

                     55                     56                     57
                      A                      A                      A
 Frequencies --   1468.6332              1499.5865              1502.6646
 Red. masses --      2.5530                 2.1804                 2.2105
 Frc consts  --      3.2443                 2.8888                 2.9407
 IR Inten    --    128.5887                 0.0001                68.4770

                     58                     59                     60
                      A                      A                      A
 Frequencies --   1545.7880              1593.9437              1596.6497
 Red. masses --      6.5168                 5.4335                 6.0917
 Frc consts  --      9.1745                 8.1335                 9.1498
 IR Inten    --      0.0008                 8.5333                 0.0033

                     61                     62                     63
                      A                      A                      A
 Frequencies --   1619.2699              1623.8255              3126.4445
 Red. masses --      5.5234                 5.6031                 1.0835
 Frc consts  --      8.5328                 8.7048                 6.2400
 IR Inten    --    220.2831                 0.0013                11.2333

                     64                     65                     66
                      A                      A                      A
 Frequencies --   3126.7296              3137.4146              3137.6283
 Red. masses --      1.0836                 1.0893                 1.0893
 Frc consts  --      6.2416                 6.3176                 6.3184
 IR Inten    --      1.4219                43.7337                63.2953

                     67                     68                     69
                      A                      A                      A
 Frequencies --   3157.3660              3157.7454              3190.1256
 Red. masses --      1.0956                 1.0955                 1.0906
 Frc consts  --      6.4351                 6.4359                 6.5395
 IR Inten    --    150.8822                14.8035                15.9971

                     70                     71                     72
                      A                      A                      A
 Frequencies --   3190.5469              3226.8509              3227.5331
 Red. masses --      1.0907                 1.0916                 1.0916
 Frc consts  --      6.5414                 6.6967                 6.7000
 IR Inten    --      6.0451                16.0950                 2.3345

 - Thermochemistry -
 -------------------
 Temperature   298.150 Kelvin.  Pressure   1.00000 Atm.
 Atom     1 has atomic number  8 and mass  15.99491

 Molecular mass:   210.06808 amu.
 Principal axes and moments of inertia in atomic units:
                           1         2         3
     Eigenvalues --  1002.996827073.381178076.37790
           X            0.99570   0.09258  -0.00352
           Y            0.06498  -0.67065   0.73892
           Z           -0.06605   0.73597   0.67378
 This molecule is an asymmetric top.
 Rotational symmetry number  1.
 Warning -- assumption of classical behavior for rotation
           may cause significant error
 Rotational temperatures (Kelvin)      0.08636     0.01225     0.01072
 Rotational constants (GHZ):           1.79935     0.25515     0.22346
 Zero-point vibrational energy     517527.0 (Joules/Mol)
                                  123.69191 (Kcal/Mol)
 Warning -- explicit consideration of  16 degrees of freedom as
           vibrations may cause significant error
 Vibrational temperatures:     24.18    37.75    70.60   169.58   217.94
          (Kelvin)            240.17   321.26   405.96   464.86   548.46
                              596.47   601.69   601.82   641.30   660.06
                              807.97   911.25   911.48   923.68   928.43
                              995.64  1007.00  1011.92  1040.93  1094.15
                             1134.98  1184.78  1224.36  1224.68  1317.59
                             1317.75  1414.83  1415.30  1437.76  1438.18
                             1448.16  1450.35  1498.39  1502.01  1547.95
                             1562.68  1568.19  1633.73  1678.86  1679.27
                             1699.64  1728.73  1848.06  1896.74  1896.87
                             1924.66  1927.51  2063.72  2096.66  2113.04
                             2157.57  2162.00  2224.04  2293.33  2297.22
                             2329.77  2336.32  4498.26  4498.67  4514.04
                             4514.35  4542.75  4543.29  4589.88  4590.49
                             4642.72  4643.70

 Zero-point correction=                           0.197116 (Hartree/Particle)
 Thermal correction to Energy=                    0.209843
 Thermal correction to Enthalpy=                  0.210787
 Thermal correction to Gibbs Free Energy=         0.154771
 Sum of electronic and zero-point Energies=           -689.995171
 Sum of electronic and thermal Energies=              -689.982443
 Sum of electronic and thermal Enthalpies=            -689.981499
 Sum of electronic and thermal Free Energies=         -690.037516

                     E (Thermal)             CV                S
                      KCal/Mol        Cal/Mol-Kelvin    Cal/Mol-Kelvin
 Total                  131.679             49.930            117.897
 Electronic               0.000              0.000              1.377
 Translational            0.889              2.981             41.931
 Rotational               0.889              2.981             32.416
 Vibrational            129.901             43.968             42.173
 Vibration     1          0.593              1.986              6.980
 Vibration     2          0.593              1.985              6.095
 Vibration     3          0.595              1.978              4.855
 Vibration     4          0.608              1.934              3.135
 Vibration     5          0.619              1.901              2.654
 Vibration     6          0.624              1.883              2.470
 Vibration     7          0.649              1.806              1.932
 Vibration     8          0.681              1.707              1.521
 Vibration     9          0.708              1.629              1.294
 Vibration    10          0.751              1.510              1.034
 Vibration    11          0.778              1.439              0.911
 Vibration    12          0.781              1.431              0.898
 Vibration    13          0.781              1.431              0.898
 Vibration    14          0.805              1.370              0.809
 Vibration    15          0.817              1.342              0.770
 Vibration    16          0.917              1.114              0.521

 Optimization completed.
    -- Stationary point found.
 Normal termination of Gaussian 16 at Sat Jan  6 03:04:32 2024.
