 Q-Chem 5.4, Q-Chem, Inc., Pleasanton, CA (2021)
 Q-Chem 5.4.0 for Intel X86 EM64T Linux

User input:
--------------------------------------------------------------
$molecule
0 1
C                  0.5972800000      1.2533850000     -0.8500760000
C                 -0.7811660000      0.8076960000     -0.5117760000
C                 -1.0811800000     -0.4882630000     -0.2853360000
C                  0.0661250000     -1.4742520000     -0.2363310000
C                  1.4987170000     -1.0196000000     -0.4141040000
C                  1.7137770000      0.2940540000     -0.6349180000
O                  0.8021550000      2.3590060000     -1.3133890000
O                 -0.1646580000     -2.6467620000     -0.0238670000
S                  3.4170160000      0.9468200000     -0.9103840000
C                  3.5089500000      2.5483390000     -0.0910990000
C                  3.4641830000      3.7082080000     -0.8588330000
C                  3.7249270000      2.5811980000      1.2852090000
C                  3.8798810000      3.8166910000      1.9093220000
C                  3.6375780000      4.9348460000     -0.2241070000
C                  3.8390750000      4.9889550000      1.1551180000
O                  3.5793280000      1.1366100000     -2.3519330000
O                  4.3177590000      0.0559910000     -0.1698440000
H                  3.3006530000      3.6396470000     -1.9258530000
H                  3.7968980000      1.6599010000      1.8495340000
H                  3.6165980000      5.8477200000     -0.8077060000
H                  4.0507170000      3.8610430000      2.9785530000
H                  3.9725380000      5.9478000000      1.6432140000
S                 -2.1071900000      2.0836580000     -0.6403430000
C                 -1.4847930000      3.5765200000      0.1524900000
C                 -1.0577510000      4.6388990000     -0.6385430000
C                 -1.5429360000      3.6666350000      1.5419090000
C                 -1.1412270000      4.8518270000      2.1534100000
C                 -0.6754800000      5.8230330000     -0.0146200000
C                 -0.7119500000      5.9269810000      1.3759390000
O                 -2.3146550000      2.3487320000     -2.0641040000
O                 -3.2130550000      1.6061080000      0.1976820000
H                 -1.0330940000      4.5310000000     -1.7145150000
H                 -1.9194240000      2.8378620000      2.1282700000
H                 -1.1818730000      4.9403660000      3.2327260000
H                 -0.3506550000      6.6644510000     -0.6153490000
H                 -0.4120850000      6.8519760000      1.8554210000
C                 -2.4422090000     -1.0856400000     -0.0749960000
C                  2.5272840000     -2.1092380000     -0.3237930000
H                 -2.8365030000     -0.7963070000      0.9021530000
H                 -2.3738170000     -2.1698330000     -0.1235280000
H                 -3.1561870000     -0.7201650000     -0.8118510000
H                  2.0331160000     -3.0775170000     -0.3520970000
H                  3.0895250000     -2.0234730000      0.6093190000
H                  3.2581500000     -2.0356560000     -1.1278540000
$end

$rem
BASIS  =  6-311++G(d,p)
GUI  =  2
JOB_TYPE  =  SP
METHOD  =  B3LYP
SCF_CONVERGENCE  = 8
SOLVENT_METHOD = sm12
$end

$smx
solvent dimethylformamide
charges CM5
$end

--------------------------------------------------------------

             Standard Nuclear Orientation (Angstroms)
    I     Atom           X                Y                Z
 ----------------------------------------------------------------
    1      C       0.5972800000     1.2533850000    -0.8500760000
    2      C      -0.7811660000     0.8076960000    -0.5117760000
    3      C      -1.0811800000    -0.4882630000    -0.2853360000
    4      C       0.0661250000    -1.4742520000    -0.2363310000
    5      C       1.4987170000    -1.0196000000    -0.4141040000
    6      C       1.7137770000     0.2940540000    -0.6349180000
    7      O       0.8021550000     2.3590060000    -1.3133890000
    8      O      -0.1646580000    -2.6467620000    -0.0238670000
    9      S       3.4170160000     0.9468200000    -0.9103840000
   10      C       3.5089500000     2.5483390000    -0.0910990000
   11      C       3.4641830000     3.7082080000    -0.8588330000
   12      C       3.7249270000     2.5811980000     1.2852090000
   13      C       3.8798810000     3.8166910000     1.9093220000
   14      C       3.6375780000     4.9348460000    -0.2241070000
   15      C       3.8390750000     4.9889550000     1.1551180000
   16      O       3.5793280000     1.1366100000    -2.3519330000
   17      O       4.3177590000     0.0559910000    -0.1698440000
   18      H       3.3006530000     3.6396470000    -1.9258530000
   19      H       3.7968980000     1.6599010000     1.8495340000
   20      H       3.6165980000     5.8477200000    -0.8077060000
   21      H       4.0507170000     3.8610430000     2.9785530000
   22      H       3.9725380000     5.9478000000     1.6432140000
   23      S      -2.1071900000     2.0836580000    -0.6403430000
   24      C      -1.4847930000     3.5765200000     0.1524900000
   25      C      -1.0577510000     4.6388990000    -0.6385430000
   26      C      -1.5429360000     3.6666350000     1.5419090000
   27      C      -1.1412270000     4.8518270000     2.1534100000
   28      C      -0.6754800000     5.8230330000    -0.0146200000
   29      C      -0.7119500000     5.9269810000     1.3759390000
   30      O      -2.3146550000     2.3487320000    -2.0641040000
   31      O      -3.2130550000     1.6061080000     0.1976820000
   32      H      -1.0330940000     4.5310000000    -1.7145150000
   33      H      -1.9194240000     2.8378620000     2.1282700000
   34      H      -1.1818730000     4.9403660000     3.2327260000
   35      H      -0.3506550000     6.6644510000    -0.6153490000
   36      H      -0.4120850000     6.8519760000     1.8554210000
   37      C      -2.4422090000    -1.0856400000    -0.0749960000
   38      C       2.5272840000    -2.1092380000    -0.3237930000
   39      H      -2.8365030000    -0.7963070000     0.9021530000
   40      H      -2.3738170000    -2.1698330000    -0.1235280000
   41      H      -3.1561870000    -0.7201650000    -0.8118510000
   42      H       2.0331160000    -3.0775170000    -0.3520970000
   43      H       3.0895250000    -2.0234730000     0.6093190000
   44      H       3.2581500000    -2.0356560000    -1.1278540000
 ----------------------------------------------------------------

   15   -2019.6843681823      9.09e-09  Convergence criterion met
 Total energy in the final basis set =    -2019.7212500351

                    Orbital Energies (a.u.)
 --------------------------------------------------------------

 Alpha MOs
 -- Occupied --
-89.0680 -89.0679 -19.1635 -19.1538 -19.1318 -19.1318 -19.1289 -19.1288
-10.3121 -10.3086 -10.2521 -10.2520 -10.2492 -10.2492 -10.2220 -10.2220
-10.2024 -10.2024 -10.1995 -10.1994 -10.1943 -10.1942 -10.1926 -10.1926
-10.1917 -10.1917 -10.1795 -10.1794  -8.1316  -8.1316  -6.0940  -6.0940
 -6.0936  -6.0936  -6.0927  -6.0927  -1.1275  -1.1266  -1.0979  -1.0915
 -1.0232  -1.0232  -0.8938  -0.8839  -0.8837  -0.8477  -0.7910  -0.7909
 -0.7706  -0.7703  -0.7628  -0.7467  -0.7148  -0.6806  -0.6786  -0.6326
 -0.6298  -0.6296  -0.6293  -0.5952  -0.5901  -0.5658  -0.5554  -0.5470
 -0.5248  -0.5077  -0.4953  -0.4923  -0.4902  -0.4850  -0.4828  -0.4797
 -0.4767  -0.4619  -0.4618  -0.4598  -0.4595  -0.4480  -0.4449  -0.4447
 -0.4412  -0.4348  -0.4314  -0.4129  -0.4052  -0.3982  -0.3921  -0.3912
 -0.3850  -0.3845  -0.3679  -0.3677  -0.3587  -0.3542  -0.3467  -0.3464
 -0.3294  -0.3281  -0.3214  -0.3189  -0.3157  -0.3139  -0.3055  -0.2850
 -0.2827  -0.2770  -0.2756  -0.2709

          Ground-State Mulliken Net Atomic Charges

     Atom                 Charge (a.u.)
  ----------------------------------------
      1 C                    -0.337886
      2 C                    -0.187452
      3 C                     0.810104
      4 C                    -1.662942
      5 C                     0.803458
      6 C                    -0.191400
      7 O                    -0.118863
      8 O                    -0.181486
      9 S                     0.011654
     10 C                    -0.988390
     11 C                    -0.864132
     12 C                     0.410774
     13 C                    -0.029612
     14 C                     0.086802
     15 C                     0.303478
     16 O                    -0.167149
     17 O                    -0.064882
     18 H                     0.203623
     19 H                     0.304108
     20 H                     0.310300
     21 H                     0.312633
     22 H                     0.318201
     23 S                     0.004753
     24 C                    -0.984108
     25 C                    -0.863429
     26 C                     0.409020
     27 C                    -0.027477
     28 C                     0.086332
     29 C                     0.303083
     30 O                    -0.167499
     31 O                    -0.064333
     32 H                     0.203883
     33 H                     0.304016
     34 H                     0.312955
     35 H                     0.310279
     36 H                     0.318274
     37 C                    -0.288575
     38 C                    -0.288505
     39 H                     0.246096
     40 H                     0.216000
     41 H                     0.213016
     42 H                     0.215474
     43 H                     0.246689
     44 H                     0.213116
  ----------------------------------------
  Sum of atomic charges =     0.000000

                    Cartesian Multipole Moments
 -----------------------------------------------------------------
    Charge (ESU x 10^10)
                 0.0000
    Dipole Moment (Debye)
         X       1.1724      Y       4.2186      Z       6.3656
       Tot       7.7261
    Quadrupole Moments (Debye-Ang)
        XX    -204.6450     XY      17.6094     YY    -135.6002
        XZ       7.7912     YZ      18.6451     ZZ    -177.2766

 Total job time:  2669.23s(wall), 18171.10s(cpu)
        *  Thank you very much for using Q-Chem.  Have a nice day.  *
