 Q-Chem 5.4, Q-Chem, Inc., Pleasanton, CA (2021)
 Q-Chem 5.4.0 for Intel X86 EM64T Linux

User input:
--------------------------------------------------------------
$molecule
-2 1
C                 -1.3537460000     -2.0395930000      1.1747220000
C                 -1.4260640000     -1.9955420000     -0.2562120000
C                 -0.7915620000     -1.0231180000     -1.0146200000
C                 -0.0019150000      0.0316830000     -0.4331670000
C                  0.0721090000     -0.0132240000      1.0066600000
C                 -0.5616030000     -0.9844080000      1.7672830000
O                 -1.9369760000     -2.9349330000      1.8980760000
O                  0.5878890000      0.9316750000     -1.1362320000
C                 -0.5009940000     -1.0498220000      3.2679650000
O                  0.2804940000      0.0330320000      3.8227810000
C                  0.4115210000      0.1218400000      5.1616870000
C                 -0.1676580000     -0.7590630000      6.0899210000
C                  1.1948540000      1.1890300000      5.6398440000
C                  1.3903780000      1.3686530000      7.0028460000
C                  0.0443600000     -0.5657210000      7.4580300000
C                  0.8175910000      0.4910660000      7.9288040000
H                 -2.0162980000     -2.7747020000     -0.7376240000
H                 -0.8753600000     -1.0296760000     -2.1008560000
H                  0.6590860000      0.7597360000      1.4932390000
H                 -0.0670660000     -2.0051130000      3.5910200000
H                 -1.5156800000     -1.0122770000      3.6870880000
H                 -0.7778650000     -1.5847620000      5.7503070000
H                  1.6355750000      1.8617420000      4.9124650000
H                  1.9961100000      2.2015970000      7.3525400000
H                 -0.4097890000     -1.2562320000      8.1647020000
H                  0.9725380000      0.6334220000      8.9950000000
$end
$rem
MAX_SCF_CYCLES=200
BASIS  =  6-311++G(d,p)
GUI  =  2
JOB_TYPE  =  SP
METHOD  =  B3LYP
SOLVENT_METHOD = PCM
$end
$pcm
theory = CPCM
$end
$solvent
dielectric 37.219
opticaldielectric 1.43
$end

--------------------------------------------------------------

             Standard Nuclear Orientation (Angstroms)
    I     Atom           X                Y                Z
 ----------------------------------------------------------------
    1      C      -1.3537460000    -2.0395930000     1.1747220000
    2      C      -1.4260640000    -1.9955420000    -0.2562120000
    3      C      -0.7915620000    -1.0231180000    -1.0146200000
    4      C      -0.0019150000     0.0316830000    -0.4331670000
    5      C       0.0721090000    -0.0132240000     1.0066600000
    6      C      -0.5616030000    -0.9844080000     1.7672830000
    7      O      -1.9369760000    -2.9349330000     1.8980760000
    8      O       0.5878890000     0.9316750000    -1.1362320000
    9      C      -0.5009940000    -1.0498220000     3.2679650000
   10      O       0.2804940000     0.0330320000     3.8227810000
   11      C       0.4115210000     0.1218400000     5.1616870000
   12      C      -0.1676580000    -0.7590630000     6.0899210000
   13      C       1.1948540000     1.1890300000     5.6398440000
   14      C       1.3903780000     1.3686530000     7.0028460000
   15      C       0.0443600000    -0.5657210000     7.4580300000
   16      C       0.8175910000     0.4910660000     7.9288040000
   17      H      -2.0162980000    -2.7747020000    -0.7376240000
   18      H      -0.8753600000    -1.0296760000    -2.1008560000
   19      H       0.6590860000     0.7597360000     1.4932390000
   20      H      -0.0670660000    -2.0051130000     3.5910200000
   21      H      -1.5156800000    -1.0122770000     3.6870880000
   22      H      -0.7778650000    -1.5847620000     5.7503070000
   23      H       1.6355750000     1.8617420000     4.9124650000
   24      H       1.9961100000     2.2015970000     7.3525400000
   25      H      -0.4097890000    -1.2562320000     8.1647020000
   26      H       0.9725380000     0.6334220000     8.9950000000
 ----------------------------------------------------------------

    9    -727.5046334000      8.29e-06  Convergence criterion met
 Total energy in the final basis set =     -727.5046334000

                    Orbital Energies (a.u.)
 --------------------------------------------------------------

 Alpha MOs
 -- Occupied --
-19.1469 -19.0155 -19.0139 -10.2335 -10.2076 -10.1741 -10.1739 -10.1688
-10.1677 -10.1665 -10.1656 -10.1649 -10.1313 -10.1194 -10.1182 -10.1174
 -1.0631  -0.9333  -0.9300  -0.8512  -0.7844  -0.7528  -0.7452  -0.7157
 -0.6697  -0.6330  -0.6071  -0.5912  -0.5527  -0.5289  -0.5173  -0.4825
 -0.4676  -0.4621  -0.4402  -0.4268  -0.4204  -0.4167  -0.4031  -0.3831
 -0.3812  -0.3646  -0.3556  -0.3537  -0.3491  -0.3317  -0.3242  -0.3178
 -0.3127  -0.3068  -0.2571  -0.2263  -0.2226  -0.2126  -0.1967  -0.1934
 -0.1139

          Ground-State Mulliken Net Atomic Charges

     Atom                 Charge (a.u.)
  ----------------------------------------
      1 C                    -0.931969
      2 C                     0.065846
      3 C                    -0.047037
      4 C                    -0.393602
      5 C                    -0.433102
      6 C                     0.462431
      7 O                    -0.741223
      8 O                    -0.759057
      9 C                    -0.104916
     10 O                    -0.142566
     11 C                     0.364902
     12 C                     0.059538
     13 C                    -0.171718
     14 C                    -0.285245
     15 C                    -0.346836
     16 C                    -0.397767
     17 H                     0.133289
     18 H                     0.136710
     19 H                     0.126752
     20 H                     0.208025
     21 H                     0.200904
     22 H                     0.190757
     23 H                     0.191805
     24 H                     0.211763
     25 H                     0.222617
     26 H                     0.179699
  ----------------------------------------
  Sum of atomic charges =    -2.000000

                    Cartesian Multipole Moments
 -----------------------------------------------------------------
    Charge (ESU x 10^10)
                -9.6064
    Dipole Moment (Debye)
         X       5.1767      Y       7.8349      Z      -4.4778
       Tot      10.4036
    Quadrupole Moments (Debye-Ang)
        XX    -120.3231     XY     -21.5106     YY    -138.8122
        XZ      13.8424     YZ      21.7048     ZZ    -126.4302

 Total job time:  138.57s(wall), 259.71s(cpu)
        *  Thank you very much for using Q-Chem.  Have a nice day.  *
