 Q-Chem 5.4, Q-Chem, Inc., Pleasanton, CA (2021)
 Q-Chem 5.4.0 for Intel X86 EM64T Linux

User input:
--------------------------------------------------------------
$molecule
0 1
C                 -3.9477040000      0.9599470000      0.9304890000
C                 -3.2888200000     -0.0739300000     -0.0130980000
C                 -3.4756110000     -1.4741360000      0.5984770000
C                 -4.0009690000     -0.0447800000     -1.3861810000
C                 -1.8066010000      0.2857480000     -0.2031800000
C                 -1.4509110000      1.5334750000     -0.7506060000
C                 -0.1264840000      1.8967590000     -0.9381360000
C                  0.9045730000      1.0210280000     -0.5837300000
C                  2.3201160000      1.4307940000     -0.7930820000
O                  2.6051080000      2.5185870000     -1.2689700000
C                  3.3811640000      0.4572440000     -0.3974060000
C                  4.7234220000      0.8045020000     -0.5779660000
C                  5.7298010000     -0.0839800000     -0.2179420000
C                  5.4037920000     -1.3293340000      0.3265130000
C                  4.0722770000     -1.6831080000      0.5097200000
C                  3.0529560000     -0.7957030000      0.1505470000
C                  1.6312750000     -1.2023100000      0.3589020000
O                  1.3490010000     -2.2905160000      0.8348200000
C                  0.5728630000     -0.2277410000     -0.0369460000
C                 -0.7690640000     -0.5791590000      0.1460890000
H                 -5.0046100000      0.7167490000      1.0741730000
H                 -3.4632280000      0.9594020000      1.9106830000
H                 -3.8918990000      1.9744690000      0.5291070000
H                 -3.0543730000     -2.2570930000     -0.0375980000
H                 -4.5426030000     -1.6818710000      0.7137730000
H                 -3.0159310000     -1.5525520000      1.5872170000
H                 -3.9467040000      0.9406760000     -1.8545570000
H                 -5.0583990000     -0.2981730000     -1.2658310000
H                 -3.5548560000     -0.7685320000     -2.0736790000
H                 -2.2250140000      2.2360770000     -1.0363220000
H                  0.1341260000      2.8597240000     -1.3600430000
H                  4.9526290000      1.7745140000     -1.0015420000
H                  6.7690520000      0.1901070000     -0.3599780000
H                  6.1902140000     -2.0210060000      0.6066280000
H                  3.7968320000     -2.6425300000      0.9298010000
H                 -0.9654170000     -1.5533500000      0.5713400000
$end
$rem
MAX_SCF_CYCLES=200
BASIS  =  6-311++G(d,p)
GUI  =  2
JOB_TYPE  =  SP
METHOD  =  B3LYP
SOLVENT_METHOD = PCM
$end
$pcm
theory = CPCM
$end
$solvent
dielectric 37.219
opticaldielectric 1.43
$end

--------------------------------------------------------------

             Standard Nuclear Orientation (Angstroms)
    I     Atom           X                Y                Z
 ----------------------------------------------------------------
    1      C      -3.9477040000     0.9599470000     0.9304890000
    2      C      -3.2888200000    -0.0739300000    -0.0130980000
    3      C      -3.4756110000    -1.4741360000     0.5984770000
    4      C      -4.0009690000    -0.0447800000    -1.3861810000
    5      C      -1.8066010000     0.2857480000    -0.2031800000
    6      C      -1.4509110000     1.5334750000    -0.7506060000
    7      C      -0.1264840000     1.8967590000    -0.9381360000
    8      C       0.9045730000     1.0210280000    -0.5837300000
    9      C       2.3201160000     1.4307940000    -0.7930820000
   10      O       2.6051080000     2.5185870000    -1.2689700000
   11      C       3.3811640000     0.4572440000    -0.3974060000
   12      C       4.7234220000     0.8045020000    -0.5779660000
   13      C       5.7298010000    -0.0839800000    -0.2179420000
   14      C       5.4037920000    -1.3293340000     0.3265130000
   15      C       4.0722770000    -1.6831080000     0.5097200000
   16      C       3.0529560000    -0.7957030000     0.1505470000
   17      C       1.6312750000    -1.2023100000     0.3589020000
   18      O       1.3490010000    -2.2905160000     0.8348200000
   19      C       0.5728630000    -0.2277410000    -0.0369460000
   20      C      -0.7690640000    -0.5791590000     0.1460890000
   21      H      -5.0046100000     0.7167490000     1.0741730000
   22      H      -3.4632280000     0.9594020000     1.9106830000
   23      H      -3.8918990000     1.9744690000     0.5291070000
   24      H      -3.0543730000    -2.2570930000    -0.0375980000
   25      H      -4.5426030000    -1.6818710000     0.7137730000
   26      H      -3.0159310000    -1.5525520000     1.5872170000
   27      H      -3.9467040000     0.9406760000    -1.8545570000
   28      H      -5.0583990000    -0.2981730000    -1.2658310000
   29      H      -3.5548560000    -0.7685320000    -2.0736790000
   30      H      -2.2250140000     2.2360770000    -1.0363220000
   31      H       0.1341260000     2.8597240000    -1.3600430000
   32      H       4.9526290000     1.7745140000    -1.0015420000
   33      H       6.7690520000     0.1901070000    -0.3599780000
   34      H       6.1902140000    -2.0210060000     0.6066280000
   35      H       3.7968320000    -2.6425300000     0.9298010000
   36      H      -0.9654170000    -1.5533500000     0.5713400000
 ----------------------------------------------------------------

    8    -846.2650100058      8.32e-06  Convergence criterion met
 Total energy in the final basis set =     -846.2650100058

                    Orbital Energies (a.u.)
 --------------------------------------------------------------

 Alpha MOs
 -- Occupied --
-19.1311 -19.1302 -10.2826 -10.2820 -10.2074 -10.2069 -10.2052 -10.2032
-10.2024 -10.1965 -10.1961 -10.1959 -10.1956 -10.1955 -10.1934 -10.1915
-10.1904 -10.1581 -10.1581 -10.1561  -1.0664  -1.0644  -0.8933  -0.8820
 -0.8333  -0.7996  -0.7774  -0.7728  -0.7582  -0.6927  -0.6869  -0.6842
 -0.6635  -0.6412  -0.6144  -0.5848  -0.5761  -0.5582  -0.5313  -0.5046
 -0.4885  -0.4837  -0.4771  -0.4595  -0.4552  -0.4523  -0.4487  -0.4465
 -0.4421  -0.4413  -0.4260  -0.4194  -0.4085  -0.4004  -0.3846  -0.3831
 -0.3792  -0.3739  -0.3671  -0.3652  -0.3631  -0.3361  -0.3359  -0.3263
 -0.2883  -0.2863  -0.2783  -0.2747  -0.2744  -0.2664

          Ground-State Mulliken Net Atomic Charges

     Atom                 Charge (a.u.)
  ----------------------------------------
      1 C                    -0.727645
      2 C                     0.618954
      3 C                    -0.556367
      4 C                    -0.726438
      5 C                     0.242434
      6 C                    -0.594323
      7 C                    -0.018085
      8 C                     0.196365
      9 C                    -0.777092
     10 O                    -0.287829
     11 C                     0.080552
     12 C                     0.192346
     13 C                    -0.469688
     14 C                    -0.462092
     15 C                     0.167288
     16 C                     0.424039
     17 C                    -0.686034
     18 O                    -0.282369
     19 C                     0.610960
     20 C                     0.136273
     21 H                     0.177959
     22 H                     0.157615
     23 H                     0.158169
     24 H                     0.154040
     25 H                     0.185943
     26 H                     0.154485
     27 H                     0.158560
     28 H                     0.177445
     29 H                     0.157428
     30 H                     0.213721
     31 H                     0.210459
     32 H                     0.196278
     33 H                     0.223192
     34 H                     0.225874
     35 H                     0.196156
     36 H                     0.171425
  ----------------------------------------
  Sum of atomic charges =    -0.000002

                    Cartesian Multipole Moments
 -----------------------------------------------------------------
    Charge (ESU x 10^10)
                -0.0000
    Dipole Moment (Debye)
         X      -1.1770      Y      -0.1779      Z       0.1030
       Tot       1.1948
    Quadrupole Moments (Debye-Ang)
        XX     -84.8461     XY     -10.0382     YY    -128.6009
        XZ       3.6208     YZ       3.5197     ZZ    -122.6288

 Total job time:  73.62s(wall), 503.47s(cpu)
        *  Thank you very much for using Q-Chem.  Have a nice day.  *
