 Gaussian 16, Revision A.03,
 Gaussian 16:  ES64L-G16RevA.03 25-Dec-2016

 ----------------------------------------------------------------
 #P UB3LYP/6-311++G(d,p) SCRF=(PCM,Solvent=n,n-DiMethylFormamide)
 ----------------------------------------------------------------

 ------------------
 Quinone PCM in DMF
 ------------------
 Symbolic Z-matrix:
 Charge =  0 Multiplicity = 1

                         Standard orientation:
 ---------------------------------------------------------------------
 Center     Atomic      Atomic             Coordinates (Angstroms)
 Number     Number       Type             X           Y           Z
 ---------------------------------------------------------------------
      1          6           0       -2.489378   -1.188637   -0.003727
      2          6           0       -3.708592   -0.512722   -0.002594
      3          6           0       -3.689183    0.891828   -0.002702
      4          6           0       -1.275435   -0.495437   -0.001946
      5          6           0       -1.272230    0.909384   -0.000055
      6          6           0       -2.492505    1.593211   -0.000792
      7          6           0       -0.000023   -1.271310   -0.004405
      8          6           0        1.275415   -0.495485   -0.001897
      9          6           0        1.272211    0.909320   -0.000030
     10          6           0        0.000009    1.684593    0.000601
     11          6           0        2.489372   -1.188698   -0.003557
     12          6           0        3.708572   -0.512790   -0.002364
     13          6           0        3.689161    0.891782   -0.002450
     14          6           0        2.492504    1.593152   -0.000684
     15          8           0       -0.000062   -2.492087   -0.008169
     16          8           0        0.000060    2.906271    0.002146
     17          6           0       -5.017562   -1.261230    0.010656
     18          1           0       -4.627753    1.437182   -0.005392
     19          1           0       -2.477219    2.676259   -0.001387
     20          1           0        2.477190    2.676199   -0.001255
     21          6           0        5.017614   -1.261181    0.010360
     22          1           0        4.627731    1.437149   -0.004960
     23          1           0       -2.456748   -2.271982   -0.007141
     24          1           0        2.456766   -2.272042   -0.006880
     25          1           0       -4.867464   -2.329317   -0.153921
     26          1           0       -5.694063   -0.887797   -0.763170
     27          1           0       -5.526451   -1.138575    0.972405
     28          1           0        4.866801   -2.330448   -0.145613
     29          1           0        5.531206   -1.131222    0.968609
     30          1           0        5.690321   -0.893552   -0.769585
 ---------------------------------------------------------------------

 SCF Done:  E(UB3LYP) =  -767.620942222     A.U. after   14 cycles

 The electronic state is 1-A.
 Alpha  occ. eigenvalues --  -19.13144 -19.12887 -10.28299 -10.28094 -10.20790
 Alpha  occ. eigenvalues --  -10.20790 -10.20739 -10.20739 -10.20497 -10.20497
 Alpha  occ. eigenvalues --  -10.19648 -10.19647 -10.19465 -10.19465 -10.19365
 Alpha  occ. eigenvalues --  -10.19365 -10.17440 -10.17440  -1.06617  -1.06308
 Alpha  occ. eigenvalues --   -0.89464  -0.88381  -0.82265  -0.79365  -0.78167
 Alpha  occ. eigenvalues --   -0.77386  -0.72750  -0.70363  -0.68295  -0.64437
 Alpha  occ. eigenvalues --   -0.63043  -0.61201  -0.58575  -0.54901  -0.54713
 Alpha  occ. eigenvalues --   -0.50634  -0.48682  -0.48172  -0.47343  -0.45798
 Alpha  occ. eigenvalues --   -0.45625  -0.45298  -0.44745  -0.43979  -0.43639
 Alpha  occ. eigenvalues --   -0.43275  -0.42753  -0.41878  -0.39680  -0.39594
 Alpha  occ. eigenvalues --   -0.38530  -0.37853  -0.37060  -0.36724  -0.36039
 Alpha  occ. eigenvalues --   -0.35853  -0.28774  -0.28374  -0.27884  -0.27459
 Alpha  occ. eigenvalues --   -0.27278  -0.26503
 Alpha virt. eigenvalues --   -0.11740  -0.07136  -0.03623  -0.02452  -0.00783
 Alpha virt. eigenvalues --   -0.00093   0.00825   0.01520   0.01754   0.02066
 Alpha virt. eigenvalues --    0.03335   0.03590   0.03596   0.03606   0.03669

  Beta  occ. eigenvalues --  -19.13144 -19.12887 -10.28299 -10.28094 -10.20790
  Beta  occ. eigenvalues --  -10.20790 -10.20739 -10.20739 -10.20497 -10.20497
  Beta  occ. eigenvalues --  -10.19648 -10.19647 -10.19465 -10.19465 -10.19365
  Beta  occ. eigenvalues --  -10.19365 -10.17440 -10.17440  -1.06617  -1.06308
  Beta  occ. eigenvalues --   -0.89464  -0.88381  -0.82265  -0.79365  -0.78167
  Beta  occ. eigenvalues --   -0.77386  -0.72750  -0.70363  -0.68295  -0.64437
  Beta  occ. eigenvalues --   -0.63043  -0.61201  -0.58575  -0.54901  -0.54713
  Beta  occ. eigenvalues --   -0.50634  -0.48682  -0.48172  -0.47343  -0.45798
  Beta  occ. eigenvalues --   -0.45625  -0.45298  -0.44745  -0.43979  -0.43639
  Beta  occ. eigenvalues --   -0.43275  -0.42753  -0.41878  -0.39680  -0.39594
  Beta  occ. eigenvalues --   -0.38530  -0.37853  -0.37060  -0.36724  -0.36039
  Beta  occ. eigenvalues --   -0.35853  -0.28774  -0.28374  -0.27884  -0.27459
  Beta  occ. eigenvalues --   -0.27278  -0.26503
  Beta virt. eigenvalues --   -0.11740  -0.07136  -0.03623  -0.02452  -0.00783
  Beta virt. eigenvalues --   -0.00093   0.00825   0.01520   0.01754   0.02066
  Beta virt. eigenvalues --    0.03335   0.03590   0.03596   0.03606   0.03669

 Mulliken charges and spin densities:
               1          2
     1  C   -0.077230  -0.000000
     2  C    0.378457  -0.000000
     3  C   -0.562896  -0.000000
     4  C    0.234176   0.000000
     5  C    0.110973   0.000000
     6  C    0.301753  -0.000000
     7  C   -0.559634  -0.000000
     8  C    0.232628  -0.000000
     9  C    0.111597  -0.000000
    10  C   -1.138309   0.000000
    11  C   -0.081458   0.000000
    12  C    0.377839   0.000000
    13  C   -0.556140  -0.000000
    14  C    0.302610  -0.000000
    15  O   -0.269476   0.000000
    16  O   -0.277028  -0.000000
    17  C   -0.326473  -0.000000
    18  H    0.202144   0.000000
    19  H    0.187592  -0.000000
    20  H    0.187554  -0.000000
    21  C   -0.326650  -0.000000
    22  H    0.202271   0.000000
    23  H    0.148320   0.000000
    24  H    0.148072   0.000000
    25  H    0.176010   0.000000
    26  H    0.164057  -0.000000
    27  H    0.184438  -0.000000
    28  H    0.176177   0.000000
    29  H    0.184095   0.000000
    30  H    0.164533  -0.000000
 Sum of Mulliken charges =  -0.00000   0.00000

 Dipole moment (field-independent basis, Debye):
    X=              0.0004    Y=             -0.7360    Z=              0.0647  Tot=              0.7388
 Quadrupole moment (field-independent basis, Debye-Ang):
   XX=            -63.9087   YY=           -118.8428   ZZ=           -106.9177
   XY=              0.0029   XZ=             -0.0058   YZ=             -0.1165

 Normal termination of Gaussian 16 at Sun Jan 14 01:02:40 2024.
