 Q-Chem 5.4, Q-Chem, Inc., Pleasanton, CA (2021)
 Q-Chem 5.4.0 for Intel X86 EM64T Linux

User input:
--------------------------------------------------------------
$molecule
0 1
C                  7.2459180000      1.2040960000      0.2094050000
C                  8.3778690000      1.0668200000      1.1793160000
C                  8.9441830000     -0.1434890000      1.3749170000
C                  8.4346650000     -1.3415580000      0.6434010000
C                  7.2949290000     -1.2058560000     -0.3142040000
C                  6.7477290000      0.0086680000     -0.5344600000
O                  6.7244370000      2.2954920000      0.0238210000
O                  8.9571170000     -2.4313860000      0.8330500000
C                  5.6000030000      0.2458480000     -1.4930300000
C                  6.8318730000     -2.4633100000     -0.9972180000
C                  8.8181220000      2.3252790000      1.8811930000
C                 10.0889350000     -0.4020630000      2.3113680000
C                  4.2563530000      0.1010520000     -0.8125740000
H                  5.6885650000     -0.4303500000     -2.3435010000
H                  5.6880960000      1.2675490000     -1.8743540000
H                  7.2705350000     -3.3368130000     -0.5178160000
H                  7.1400750000     -2.4714850000     -2.0487110000
H                  5.7434440000     -2.5437090000     -0.9712460000
H                  8.1641020000      3.1523890000      1.6115590000
H                  9.8415240000      2.5942410000      1.6019560000
H                  8.7968680000      2.2017860000      2.9671070000
H                 10.4611210000      0.5145520000      2.7649900000
H                 10.9083760000     -0.8959420000      1.7828120000
H                  9.7851460000     -1.0903100000      3.1059430000
C                  3.1972930000     -0.6173580000     -1.2102880000
C                  3.1536960000     -1.4613580000     -2.4607990000
C                  1.9222580000     -0.6019250000     -0.3908150000
C                  0.7227820000      0.0698280000     -1.0878360000
C                 -0.5276880000      0.0977340000     -0.1997410000
C                 -1.8019200000      0.6547090000     -0.8660660000
C                 -3.0205260000      0.4209550000      0.0496630000
C                 -4.3882990000      0.7151470000     -0.5810920000
C                 -5.5560600000      0.3689700000      0.3525860000
C                 -6.9646560000      0.5435500000     -0.2504030000
C                 -8.0223340000     -0.0563760000      0.6980760000
C                 -9.4432130000     -0.1571370000      0.1271320000
C                 -1.6468900000      2.1345990000     -1.2485790000
C                -10.4179680000     -0.8550220000      1.0848510000
C                -11.8424950000     -1.0702650000      0.5387610000
C                -12.5779220000      0.2513550000      0.2726560000
C                -12.6568970000     -1.9545120000      1.4938140000
H                  4.1576120000      0.6815550000      0.1021390000
H                  4.1268790000     -1.5706650000     -2.9393260000
H                  2.4725810000     -1.0304200000     -3.2024390000
H                  2.7740990000     -2.4640080000     -2.2336200000
H                  2.1113550000     -0.0906190000      0.5585090000
H                  1.6461170000     -1.6355540000     -0.1391350000
H                  0.4870180000     -0.4606560000     -2.0179130000
H                  1.0127980000      1.0859990000     -1.3736900000
H                 -0.3159600000      0.6807830000      0.7070980000
H                 -0.7341030000     -0.9250590000      0.1404000000
H                 -1.9686620000      0.0810580000     -1.7897180000
H                 -2.9027610000      1.0257480000      0.9594760000
H                 -3.0092050000     -0.6253970000      0.3800660000
H                 -4.4873940000      0.1372610000     -1.5099640000
H                 -4.4440100000      1.7691350000     -0.8673890000
H                 -5.4824860000      0.9756100000      1.2658550000
H                 -5.4450490000     -0.6742100000      0.6743620000
C                 -7.2653160000      2.0119440000     -0.5880600000
H                 -8.0446240000      0.5337550000      1.6247630000
H                 -7.6941370000     -1.0620920000      0.9894920000
H                 -9.4112870000     -0.7119640000     -0.8203410000
H                 -9.8173620000      0.8419530000     -0.1142980000
H                 -0.8041150000      2.2921860000     -1.9255520000
H                 -1.4763390000      2.7476820000     -0.3560370000
H                 -2.5381950000      2.5184300000     -1.7501460000
H                -10.4804950000     -0.2829850000      2.0211350000
H                -10.0003290000     -1.8328140000      1.3566890000
H                -11.7533710000     -1.6047240000     -0.4174070000
H                -12.0612980000      0.8697330000     -0.4653140000
H                -12.6691430000      0.8366730000      1.1948400000
H                -13.5887780000      0.0671070000     -0.1032940000
H                -12.1687830000     -2.9198820000      1.6580170000
H                -13.6588660000     -2.1483580000      1.0993320000
H                -12.7731550000     -1.4703780000      2.4699500000
H                 -6.9964010000     -0.0330830000     -1.1866100000
H                 -7.2443110000      2.6279820000      0.3184630000
H                 -8.2500200000      2.1287420000     -1.0464790000
H                 -6.5346600000      2.4247910000     -1.2874640000
$end

$rem
BASIS  =  6-311++G(d,p)
GUI  =  2
JOB_TYPE  =  SP
METHOD  =  B3LYP
SCF_CONVERGENCE  = 8
SOLVENT_METHOD = sm12
$end

$smx
solvent dimethylformamide
charges CM5
$end

--------------------------------------------------------------

             Standard Nuclear Orientation (Angstroms)
    I     Atom           X                Y                Z
 ----------------------------------------------------------------
    1      C       7.2459180000     1.2040960000     0.2094050000
    2      C       8.3778690000     1.0668200000     1.1793160000
    3      C       8.9441830000    -0.1434890000     1.3749170000
    4      C       8.4346650000    -1.3415580000     0.6434010000
    5      C       7.2949290000    -1.2058560000    -0.3142040000
    6      C       6.7477290000     0.0086680000    -0.5344600000
    7      O       6.7244370000     2.2954920000     0.0238210000
    8      O       8.9571170000    -2.4313860000     0.8330500000
    9      C       5.6000030000     0.2458480000    -1.4930300000
   10      C       6.8318730000    -2.4633100000    -0.9972180000
   11      C       8.8181220000     2.3252790000     1.8811930000
   12      C      10.0889350000    -0.4020630000     2.3113680000
   13      C       4.2563530000     0.1010520000    -0.8125740000
   14      H       5.6885650000    -0.4303500000    -2.3435010000
   15      H       5.6880960000     1.2675490000    -1.8743540000
   16      H       7.2705350000    -3.3368130000    -0.5178160000
   17      H       7.1400750000    -2.4714850000    -2.0487110000
   18      H       5.7434440000    -2.5437090000    -0.9712460000
   19      H       8.1641020000     3.1523890000     1.6115590000
   20      H       9.8415240000     2.5942410000     1.6019560000
   21      H       8.7968680000     2.2017860000     2.9671070000
   22      H      10.4611210000     0.5145520000     2.7649900000
   23      H      10.9083760000    -0.8959420000     1.7828120000
   24      H       9.7851460000    -1.0903100000     3.1059430000
   25      C       3.1972930000    -0.6173580000    -1.2102880000
   26      C       3.1536960000    -1.4613580000    -2.4607990000
   27      C       1.9222580000    -0.6019250000    -0.3908150000
   28      C       0.7227820000     0.0698280000    -1.0878360000
   29      C      -0.5276880000     0.0977340000    -0.1997410000
   30      C      -1.8019200000     0.6547090000    -0.8660660000
   31      C      -3.0205260000     0.4209550000     0.0496630000
   32      C      -4.3882990000     0.7151470000    -0.5810920000
   33      C      -5.5560600000     0.3689700000     0.3525860000
   34      C      -6.9646560000     0.5435500000    -0.2504030000
   35      C      -8.0223340000    -0.0563760000     0.6980760000
   36      C      -9.4432130000    -0.1571370000     0.1271320000
   37      C      -1.6468900000     2.1345990000    -1.2485790000
   38      C     -10.4179680000    -0.8550220000     1.0848510000
   39      C     -11.8424950000    -1.0702650000     0.5387610000
   40      C     -12.5779220000     0.2513550000     0.2726560000
   41      C     -12.6568970000    -1.9545120000     1.4938140000
   42      H       4.1576120000     0.6815550000     0.1021390000
   43      H       4.1268790000    -1.5706650000    -2.9393260000
   44      H       2.4725810000    -1.0304200000    -3.2024390000
   45      H       2.7740990000    -2.4640080000    -2.2336200000
   46      H       2.1113550000    -0.0906190000     0.5585090000
   47      H       1.6461170000    -1.6355540000    -0.1391350000
   48      H       0.4870180000    -0.4606560000    -2.0179130000
   49      H       1.0127980000     1.0859990000    -1.3736900000
   50      H      -0.3159600000     0.6807830000     0.7070980000
   51      H      -0.7341030000    -0.9250590000     0.1404000000
   52      H      -1.9686620000     0.0810580000    -1.7897180000
   53      H      -2.9027610000     1.0257480000     0.9594760000
   54      H      -3.0092050000    -0.6253970000     0.3800660000
   55      H      -4.4873940000     0.1372610000    -1.5099640000
   56      H      -4.4440100000     1.7691350000    -0.8673890000
   57      H      -5.4824860000     0.9756100000     1.2658550000
   58      H      -5.4450490000    -0.6742100000     0.6743620000
   59      C      -7.2653160000     2.0119440000    -0.5880600000
   60      H      -8.0446240000     0.5337550000     1.6247630000
   61      H      -7.6941370000    -1.0620920000     0.9894920000
   62      H      -9.4112870000    -0.7119640000    -0.8203410000
   63      H      -9.8173620000     0.8419530000    -0.1142980000
   64      H      -0.8041150000     2.2921860000    -1.9255520000
   65      H      -1.4763390000     2.7476820000    -0.3560370000
   66      H      -2.5381950000     2.5184300000    -1.7501460000
   67      H     -10.4804950000    -0.2829850000     2.0211350000
   68      H     -10.0003290000    -1.8328140000     1.3566890000
   69      H     -11.7533710000    -1.6047240000    -0.4174070000
   70      H     -12.0612980000     0.8697330000    -0.4653140000
   71      H     -12.6691430000     0.8366730000     1.1948400000
   72      H     -13.5887780000     0.0671070000    -0.1032940000
   73      H     -12.1687830000    -2.9198820000     1.6580170000
   74      H     -13.6588660000    -2.1483580000     1.0993320000
   75      H     -12.7731550000    -1.4703780000     2.4699500000
   76      H      -6.9964010000    -0.0330830000    -1.1866100000
   77      H      -7.2443110000     2.6279820000     0.3184630000
   78      H      -8.2500200000     2.1287420000    -1.0464790000
   79      H      -6.5346600000     2.4247910000    -1.2874640000
 ----------------------------------------------------------------

   14   -1284.8056142108      5.87e-09  Convergence criterion met
 Total energy in the final basis set =    -1284.8265811625

                    Orbital Energies (a.u.)
 --------------------------------------------------------------

 Alpha MOs
 -- Occupied --
-19.1302 -19.1295 -10.2748 -10.2737 -10.2067 -10.2063 -10.2053 -10.2046
-10.1797 -10.1782 -10.1741 -10.1715 -10.1714 -10.1692 -10.1682 -10.1680
-10.1675 -10.1673 -10.1644 -10.1632 -10.1629 -10.1626 -10.1616 -10.1616
-10.1615 -10.1610 -10.1608 -10.1570 -10.1564 -10.1554 -10.1549  -1.0626
 -1.0606  -0.8644  -0.8340  -0.8270  -0.8212  -0.8125  -0.8031  -0.7729
 -0.7579  -0.7452  -0.7421  -0.7275  -0.7192  -0.6879  -0.6843  -0.6798
 -0.6779  -0.6709  -0.6562  -0.6444  -0.6211  -0.5962  -0.5773  -0.5741
 -0.5697  -0.5645  -0.5601  -0.5525  -0.5398  -0.5206  -0.4832  -0.4795
 -0.4792  -0.4734  -0.4700  -0.4621  -0.4572  -0.4530  -0.4461  -0.4437
 -0.4418  -0.4341  -0.4313  -0.4301  -0.4269  -0.4243  -0.4211  -0.4181
 -0.4152  -0.4129  -0.4096  -0.4081  -0.4010  -0.3959  -0.3916  -0.3900
 -0.3877  -0.3854  -0.3846  -0.3816  -0.3802  -0.3772  -0.3733  -0.3698
 -0.3687  -0.3615  -0.3587  -0.3563  -0.3525  -0.3471  -0.3443  -0.3376
 -0.3333  -0.3275  -0.3260  -0.3222  -0.3218  -0.3200  -0.3165  -0.3159
 -0.3100  -0.2926  -0.2874  -0.2850  -0.2685  -0.2638  -0.2403

          Ground-State Mulliken Net Atomic Charges

     Atom                 Charge (a.u.)
  ----------------------------------------
      1 C                    -2.084178
      2 C                     0.204105
      3 C                     0.665748
      4 C                    -1.709231
      5 C                     0.804994
      6 C                     1.030689
      7 O                    -0.269850
      8 O                    -0.277252
      9 C                     0.196292
     10 C                    -0.342107
     11 C                    -0.192767
     12 C                    -0.020718
     13 C                    -0.802126
     14 H                     0.242265
     15 H                     0.200844
     16 H                     0.164792
     17 H                     0.242956
     18 H                     0.219096
     19 H                     0.176122
     20 H                     0.224041
     21 H                     0.219823
     22 H                     0.253081
     23 H                     0.174881
     24 H                     0.180993
     25 C                     1.032948
     26 C                    -0.405790
     27 C                    -1.087772
     28 C                    -0.118407
     29 C                    -0.646375
     30 C                     1.234788
     31 C                    -0.842604
     32 C                    -0.049422
     33 C                    -0.811119
     34 C                     1.223124
     35 C                    -0.568859
     36 C                     0.054739
     37 C                    -0.796638
     38 C                    -0.722960
     39 C                     0.371176
     40 C                    -0.654204
     41 C                    -0.591180
     42 H                     0.159597
     43 H                     0.166087
     44 H                     0.186024
     45 H                     0.178215
     46 H                     0.112100
     47 H                     0.187657
     48 H                     0.094966
     49 H                     0.082768
     50 H                     0.109866
     51 H                     0.123462
     52 H                     0.083521
     53 H                     0.118350
     54 H                     0.102083
     55 H                     0.141517
     56 H                     0.024320
     57 H                     0.117133
     58 H                     0.103572
     59 C                    -0.747120
     60 H                     0.114211
     61 H                     0.105485
     62 H                     0.133958
     63 H                     0.025726
     64 H                     0.139143
     65 H                     0.140746
     66 H                     0.139133
     67 H                     0.110815
     68 H                     0.114565
     69 H                     0.110064
     70 H                     0.149393
     71 H                     0.136486
     72 H                     0.154080
     73 H                     0.149917
     74 H                     0.160348
     75 H                     0.136646
     76 H                     0.077059
     77 H                     0.141245
     78 H                     0.146459
     79 H                     0.146469
  ----------------------------------------
  Sum of atomic charges =     0.000000

                    Cartesian Multipole Moments
 -----------------------------------------------------------------
    Charge (ESU x 10^10)
                 0.0000
    Dipole Moment (Debye)
         X      -0.3403      Y      -0.3514      Z      -0.3457
       Tot       0.5990
    Quadrupole Moments (Debye-Ang)
        XX    -199.8572     XY      10.7100     YY    -210.4782
        XZ       5.6308     YZ       7.8288     ZZ    -193.0986

 Total job time:  7738.00s(wall), 34663.17s(cpu)
        *  Thank you very much for using Q-Chem.  Have a nice day.  *
