 Q-Chem 5.4, Q-Chem, Inc., Pleasanton, CA (2021)
 Q-Chem 5.4.0 for Intel X86 EM64T Linux

User input:
--------------------------------------------------------------
$molecule
-2 1
C                  5.0657980000     -2.4599560000      0.3710540000
C                  5.8242390000     -1.5115960000     -0.2696790000
C                  5.1423640000     -0.4826190000     -0.9922300000
C                  3.6461570000     -2.4688220000      0.3298980000
C                  2.9732360000     -1.4194650000     -0.4157450000
C                  3.7573240000     -0.4483210000     -1.0618680000
C                  2.9274240000     -3.5115310000      1.0214990000
C                  1.4762410000     -3.4190060000      0.8986350000
C                  0.8033320000     -2.3695730000      0.1530510000
C                  1.5220590000     -1.3268910000     -0.5385200000
C                  0.6921770000     -4.3902670000      1.5445420000
C                 -0.6163310000     -2.3783830000      0.1120240000
C                 -1.3747570000     -3.3268040000      0.7526570000
O                  3.5032960000     -4.4331610000      1.6875520000
O                  0.9461800000     -0.4052110000     -1.2045810000
H                  5.5357060000     -3.2529100000      0.9434830000
H                 -2.4564800000     -3.3230330000      0.7069480000
H                  3.2339480000      0.3282150000     -1.6082410000
H                  1.2155760000     -5.1669420000      2.0907080000
H                 -1.0862420000     -1.5852900000     -0.4602100000
C                 -0.6928920000     -4.3559840000      1.4749700000
S                  6.0731660000      0.6612650000     -1.9393240000
H                  6.9059510000     -1.5152170000     -0.2237320000
S                 -1.6235640000     -5.5000590000      2.4218490000
O                 -0.8342710000     -6.7060000000      2.7344290000
O                 -2.9841110000     -5.6894220000      1.8884920000
N                 -1.9001340000     -4.6349280000      3.9046420000
H                 -0.9973390000     -4.5017090000      4.3563680000
H                 -2.4737710000     -5.2382040000      4.4937450000
O                  5.2836090000      1.8668310000     -2.2526270000
O                  7.4335120000      0.8511520000     -1.4055770000
N                  6.3507110000     -0.2043220000     -3.4214610000
H                  6.9265440000      0.3977450000     -4.0096140000
H                  5.4486030000     -0.3364960000     -3.8748170000
$end
$rem
MAX_SCF_CYCLES=200
BASIS  =  6-311++G(d,p)
GUI  =  2
JOB_TYPE  =  SP
METHOD  =  B3LYP
SOLVENT_METHOD = COSMO
$end
$solvent
dielectric 37.219
opticaldielectric 1.43
$end

--------------------------------------------------------------

             Standard Nuclear Orientation (Angstroms)
    I     Atom           X                Y                Z
 ----------------------------------------------------------------
    1      C      -2.0078723677    -2.0135812877    -0.0601863460
    2      C      -3.3410109705    -1.6919235798    -0.1267896633
    3      C      -3.6953077182    -0.3074731957    -0.1867736463
    4      C      -0.9790204906    -1.0349257758    -0.0310282356
    5      C      -1.3604156784     0.3656347215    -0.0851047846
    6      C      -2.7269122470     0.6854603688    -0.1611854982
    7      C       0.3970046621    -1.4610774246     0.0531185321
    8      C       1.3604825799    -0.3655009143     0.0849139646
    9      C       0.9790617215     1.0350687657     0.0307443688
   10      C      -0.3969320732     1.4611953528    -0.0534097190
   11      C       2.7269360290    -0.6853131309     0.1612373330
   12      C       2.0079524836     2.0137134459     0.0597659815
   13      C       3.3410719714     1.6920553604     0.1264858341
   14      O       0.7476744242    -2.6859045148     0.0916715224
   15      O      -0.7476270614     2.6860597226    -0.0919869348
   16      H      -1.6876781001    -3.0497362915    -0.0266755456
   17      H       4.1134237409     2.4503187342     0.1536442950
   18      H      -2.9882927036     1.7367250600    -0.2056473658
   19      H       2.9882897117    -1.7365804917     0.2059481484
   20      H       1.6877653879     3.0498629324     0.0260158631
   21      C       3.6953880372     0.3076017147     0.1867821778
   22      S      -5.3867164025     0.1482091592    -0.1289785953
   23      H      -4.1133379672    -2.4502000614    -0.1542282661
   24      S       5.3867163470    -0.1481825213     0.1292748179
   25      O       5.5893899027    -1.5231230309     0.6226766995
   26      O       6.2674637455     0.9078768405     0.6588395626
   27      N       5.7311757080    -0.1285330814    -1.5750078291
   28      H       5.1828971135    -0.8690182594    -2.0084992097
   29      H       6.7207479987    -0.3530121705    -1.6769857906
   30      O      -5.5892907989     1.5234383519    -0.6215805522
   31      O      -6.2674396438    -0.9075864051    -0.6591733434
   32      N      -5.7313739722     0.1273373077     1.5750688494
   33      H      -6.7215112046     0.3491958172     1.6770459573
   34      H      -5.1848354217     0.8686947031     2.0092177843
 ----------------------------------------------------------------

   11   -1897.0266593843      4.75e-06  Convergence criterion met
 Total energy in the final basis set =    -1897.0266593843
    5   -1897.2841553191      6.34e-06  Convergence criterion met
 Total energy in the final basis set =    -1897.2841553191

                    Orbital Energies (a.u.)
 --------------------------------------------------------------

 Alpha MOs
 -- Occupied --
-89.0703 -89.0703 -19.1246 -19.1246 -19.1244 -19.1244 -19.0440 -19.0440
-14.3355 -14.3355 -10.2038 -10.2038 -10.2011 -10.2010 -10.1841 -10.1841
-10.1751 -10.1751 -10.1674 -10.1674 -10.1643 -10.1643 -10.1596 -10.1596
 -8.1322  -8.1322  -6.0949  -6.0949  -6.0948  -6.0948  -6.0930  -6.0930
 -1.1229  -1.1229  -1.0131  -1.0131  -0.9688  -0.9656  -0.8997  -0.8997
 -0.8600  -0.8559  -0.7919  -0.7649  -0.7553  -0.7476  -0.6926  -0.6811
 -0.6393  -0.6283  -0.5949  -0.5853  -0.5546  -0.5510  -0.5296  -0.5253
 -0.5139  -0.5138  -0.5013  -0.4925  -0.4725  -0.4682  -0.4601  -0.4598
 -0.4540  -0.4288  -0.4262  -0.4199  -0.4050  -0.4027  -0.3971  -0.3866
 -0.3705  -0.3665  -0.3659  -0.3617  -0.3559  -0.3512  -0.3446  -0.3430
 -0.3354  -0.3289  -0.3252  -0.3237  -0.3162  -0.3154  -0.2880  -0.2871
 -0.2624  -0.2537  -0.2506  -0.2445  -0.2264  -0.2191  -0.1306

          Ground-State Mulliken Net Atomic Charges

     Atom                 Charge (a.u.)
  ----------------------------------------
      1 C                    -0.158213
      2 C                    -0.482577
      3 C                    -0.048499
      4 C                     0.508107
      5 C                     0.052113
      6 C                    -0.087630
      7 C                    -0.520007
      8 C                     0.051055
      9 C                     0.510810
     10 C                    -0.520928
     11 C                    -0.090162
     12 C                    -0.156833
     13 C                    -0.484376
     14 O                    -0.624325
     15 O                    -0.624197
     16 H                     0.169308
     17 H                     0.249856
     18 H                     0.226421
     19 H                     0.226444
     20 H                     0.169355
     21 C                    -0.047302
     22 S                     0.239237
     23 H                     0.250009
     24 S                     0.239570
     25 O                    -0.309227
     26 O                    -0.359919
     27 N                    -0.511685
     28 H                     0.313556
     29 H                     0.343446
     30 O                    -0.309060
     31 O                    -0.360039
     32 N                    -0.511290
     33 H                     0.343471
     34 H                     0.313503
  ----------------------------------------
  Sum of atomic charges =    -2.000007

                    Cartesian Multipole Moments
 -----------------------------------------------------------------
    Charge (ESU x 10^10)
                -9.6064
    Dipole Moment (Debye)
         X      -0.0065      Y      -0.0042      Z       0.0031
       Tot       0.0083
    Quadrupole Moments (Debye-Ang)
        XX    -287.8188     XY       1.3416     YY    -214.3340
        XZ     -48.3433     YZ      11.3211     ZZ    -161.0129

 Total job time:  148.18s(wall), 1028.75s(cpu)
        *  Thank you very much for using Q-Chem.  Have a nice day.  *
