 Q-Chem 5.4, Q-Chem, Inc., Pleasanton, CA (2021)
 Q-Chem 5.4.0 for Intel X86 EM64T Linux

User input:
--------------------------------------------------------------
$molecule
-1 2
C                  3.2917220000     -0.2727640000     -0.1038390000
C                  1.7932050000     -0.4018260000     -0.1454660000
C                  0.9703100000      0.7520480000      0.1498850000
O                  1.4632910000      1.8722720000      0.4437060000
C                 -0.4962980000      0.5642640000      0.0932160000
C                 -1.3450560000      1.6500540000      0.3707240000
C                 -2.7234210000      1.5145100000      0.3278730000
C                 -3.2964630000      0.2688840000      0.0009700000
C                 -2.4837900000     -0.8146960000     -0.2763690000
C                 -1.0777670000     -0.6938280000     -0.2371740000
C                 -0.2278770000     -1.8290100000     -0.5277700000
O                 -0.6394150000     -2.9965630000     -0.8335620000
C                  1.1959840000     -1.6030130000     -0.4612980000
O                  1.9407840000     -2.7110970000     -0.7454150000
H                  3.7335620000     -0.9681970000      0.6197820000
H                  3.5565610000      0.7479830000      0.1743920000
H                  3.7412870000     -0.5065290000     -1.0762790000
H                 -0.8773550000      2.5959940000      0.6193150000
H                 -3.3620380000      2.3655210000      0.5456480000
H                 -4.3769040000      0.1612060000     -0.0330090000
H                 -2.9004110000     -1.7829140000     -0.5302990000
H                  1.2456480000     -3.3821710000     -0.9234540000
$end
$rem
MAX_SCF_CYCLES=200
BASIS  =  6-311++G(d,p)
GUI  =  2
JOB_TYPE  =  SP
METHOD  =  B3LYP
SOLVENT_METHOD = PCM
$end
$pcm
theory = CPCM
$end
$solvent
dielectric 37.219
opticaldielectric 1.43
$end

--------------------------------------------------------------

             Standard Nuclear Orientation (Angstroms)
    I     Atom           X                Y                Z
 ----------------------------------------------------------------
    1      C       3.2917220000    -0.2727640000    -0.1038390000
    2      C       1.7932050000    -0.4018260000    -0.1454660000
    3      C       0.9703100000     0.7520480000     0.1498850000
    4      O       1.4632910000     1.8722720000     0.4437060000
    5      C      -0.4962980000     0.5642640000     0.0932160000
    6      C      -1.3450560000     1.6500540000     0.3707240000
    7      C      -2.7234210000     1.5145100000     0.3278730000
    8      C      -3.2964630000     0.2688840000     0.0009700000
    9      C      -2.4837900000    -0.8146960000    -0.2763690000
   10      C      -1.0777670000    -0.6938280000    -0.2371740000
   11      C      -0.2278770000    -1.8290100000    -0.5277700000
   12      O      -0.6394150000    -2.9965630000    -0.8335620000
   13      C       1.1959840000    -1.6030130000    -0.4612980000
   14      O       1.9407840000    -2.7110970000    -0.7454150000
   15      H       3.7335620000    -0.9681970000     0.6197820000
   16      H       3.5565610000     0.7479830000     0.1743920000
   17      H       3.7412870000    -0.5065290000    -1.0762790000
   18      H      -0.8773550000     2.5959940000     0.6193150000
   19      H      -3.3620380000     2.3655210000     0.5456480000
   20      H      -4.3769040000     0.1612060000    -0.0330090000
   21      H      -2.9004110000    -1.7829140000    -0.5302990000
   22      H       1.2456480000    -3.3821710000    -0.9234540000
 ----------------------------------------------------------------

    9    -650.0014249459      5.18e-06  Convergence criterion met
 Total energy in the final basis set =     -650.0014249459

                    Orbital Energies (a.u.)
 --------------------------------------------------------------

 Alpha MOs
 -- Occupied --
-19.1448 -19.0869 -19.0763 -10.2256 -10.2222 -10.2209 -10.1749 -10.1730
-10.1720 -10.1710 -10.1707 -10.1692 -10.1655 -10.1535  -1.0642  -1.0022
 -0.9971  -0.8586  -0.8075  -0.7547  -0.7504  -0.6962  -0.6604  -0.6179
 -0.5946  -0.5699  -0.5366  -0.5046  -0.4829  -0.4596  -0.4505  -0.4409
 -0.4263  -0.4183  -0.4115  -0.3998  -0.3908  -0.3882  -0.3815  -0.3639
 -0.3613  -0.3453  -0.3436  -0.3364  -0.2680  -0.2617  -0.2581  -0.2426
 -0.2287  -0.1523

 Beta MOs
 -- Occupied --
-19.1443 -19.0808 -19.0711 -10.2241 -10.2200 -10.2191 -10.1748 -10.1720
-10.1719 -10.1703 -10.1701 -10.1693 -10.1647 -10.1536  -1.0620  -0.9930
 -0.9867  -0.8562  -0.8037  -0.7523  -0.7485  -0.6922  -0.6539  -0.6160
 -0.5917  -0.5675  -0.5348  -0.5022  -0.4799  -0.4582  -0.4495  -0.4305
 -0.4253  -0.4134  -0.4085  -0.3918  -0.3894  -0.3799  -0.3777  -0.3627
 -0.3463  -0.3439  -0.3350  -0.3280  -0.2562  -0.2510  -0.2486  -0.2376
 -0.2197

          Ground-State Mulliken Net Atomic Charges

     Atom                 Charge (a.u.)    Spin (a.u.)
  --------------------------------------------------------
      1 C                    -0.264652      -0.002227
      2 C                     1.195792       0.059319
      3 C                    -0.683995       0.077734
      4 O                    -0.493377       0.192260
      5 C                     0.134658       0.067549
      6 C                     0.160819       0.004353
      7 C                    -0.445486       0.068539
      8 C                    -0.312671       0.001097
      9 C                    -0.061207       0.075478
     10 C                     0.403822      -0.016111
     11 C                    -0.750220       0.175706
     12 O                    -0.540314       0.224671
     13 C                    -0.597542       0.063253
     14 O                    -0.308167       0.016655
     15 H                     0.173633       0.003023
     16 H                     0.175459      -0.001302
     17 H                     0.174822       0.003120
     18 H                     0.165899      -0.000334
     19 H                     0.197957      -0.004940
     20 H                     0.198650      -0.000749
     21 H                     0.171448      -0.003919
     22 H                     0.304672      -0.003176
  --------------------------------------------------------
  Sum of atomic charges =    -1.000000

                    Cartesian Multipole Moments
 -----------------------------------------------------------------
    Charge (ESU x 10^10)
                -4.8032
    Dipole Moment (Debye)
         X      -3.1904      Y       2.4625      Z       0.8675
       Tot       4.1225
    Quadrupole Moments (Debye-Ang)
        XX     -91.3501     XY      -8.7885     YY    -112.1465
        XZ      -2.1417     YZ      -6.7496     ZZ     -88.6523

 Total job time:  43.03s(wall), 251.70s(cpu)
        *  Thank you very much for using Q-Chem.  Have a nice day.  *
