 Q-Chem 5.4, Q-Chem, Inc., Pleasanton, CA (2021)
 Q-Chem 5.4.0 for Intel X86 EM64T Linux

User input:
--------------------------------------------------------------
$molecule
-2 1
C                 -1.8530470000      3.4775310000     -0.9478230000
C                 -2.9568100000      2.9047780000     -0.3706950000
C                 -0.5997390000      2.7934800000     -1.0264190000
C                 -0.5316780000      1.4648620000     -0.4724980000
C                 -2.9032410000      1.6056960000      0.1748170000
C                 -1.6906930000      0.9212730000      0.1087020000
C                  0.5090470000      3.4942120000     -1.6602080000
C                  1.7895620000      2.7869710000     -1.7362320000
C                  1.8412280000      1.4449650000     -1.1719490000
C                  0.7339770000      0.7655420000     -0.5481280000
C                  3.0877360000      0.7477630000     -1.2427220000
C                  3.2395250000     -0.5190490000     -0.7411870000
C                  2.1640890000     -1.1945570000     -0.1286490000
C                  0.9399620000     -0.5325520000     -0.0490440000
O                  0.3405710000      4.6748710000     -2.1200250000
O                  2.8333970000      3.2978660000     -2.2683670000
O                  4.4699280000     -1.2004860000     -0.8142070000
O                 -4.1884230000      3.5838860000     -0.2963530000
H                 -1.8743240000      4.4791930000     -1.3742140000
H                 -3.7847850000      1.1649040000      0.6291360000
H                 -1.6532360000     -0.0793900000      0.5302490000
H                  3.9058210000      1.2858530000     -1.7189370000
H                  2.2987160000     -2.1971600000      0.2644010000
H                  0.1136830000     -1.0562520000      0.4236410000
H                  5.0746790000     -0.5959830000     -1.2564720000
H                 -4.0376570000      4.4393810000     -0.7112590000
$end

$rem
BASIS  =  6-311++G(d,p)
GUI  =  2
JOB_TYPE  =  SP
METHOD  =  B3LYP
SCF_CONVERGENCE  = 8
SOLVENT_METHOD = sm12
$end

$smx
solvent dimethylformamide
charges CM5
$end

--------------------------------------------------------------

             Standard Nuclear Orientation (Angstroms)
    I     Atom           X                Y                Z
 ----------------------------------------------------------------
    1      C      -1.8530470000     3.4775310000    -0.9478230000
    2      C      -2.9568100000     2.9047780000    -0.3706950000
    3      C      -0.5997390000     2.7934800000    -1.0264190000
    4      C      -0.5316780000     1.4648620000    -0.4724980000
    5      C      -2.9032410000     1.6056960000     0.1748170000
    6      C      -1.6906930000     0.9212730000     0.1087020000
    7      C       0.5090470000     3.4942120000    -1.6602080000
    8      C       1.7895620000     2.7869710000    -1.7362320000
    9      C       1.8412280000     1.4449650000    -1.1719490000
   10      C       0.7339770000     0.7655420000    -0.5481280000
   11      C       3.0877360000     0.7477630000    -1.2427220000
   12      C       3.2395250000    -0.5190490000    -0.7411870000
   13      C       2.1640890000    -1.1945570000    -0.1286490000
   14      C       0.9399620000    -0.5325520000    -0.0490440000
   15      O       0.3405710000     4.6748710000    -2.1200250000
   16      O       2.8333970000     3.2978660000    -2.2683670000
   17      O       4.4699280000    -1.2004860000    -0.8142070000
   18      O      -4.1884230000     3.5838860000    -0.2963530000
   19      H      -1.8743240000     4.4791930000    -1.3742140000
   20      H      -3.7847850000     1.1649040000     0.6291360000
   21      H      -1.6532360000    -0.0793900000     0.5302490000
   22      H       3.9058210000     1.2858530000    -1.7189370000
   23      H       2.2987160000    -2.1971600000     0.2644010000
   24      H       0.1136830000    -1.0562520000     0.4236410000
   25      H       5.0746790000    -0.5959830000    -1.2564720000
   26      H      -4.0376570000     4.4393810000    -0.7112590000
 ----------------------------------------------------------------

   17    -839.4047806990      4.75e-09  Convergence criterion met
 Total energy in the final basis set =     -839.6956783318

                    Orbital Energies (a.u.)
 --------------------------------------------------------------

 Alpha MOs
 -- Occupied --
-19.1515 -19.1515 -19.0191 -19.0190 -10.2259 -10.2259 -10.1782 -10.1782
-10.1735 -10.1732 -10.1678 -10.1678 -10.1673 -10.1670 -10.1560 -10.1560
-10.1555 -10.1555  -1.0513  -1.0512  -0.9483  -0.9216  -0.8563  -0.8335
 -0.7702  -0.7516  -0.7373  -0.7046  -0.6674  -0.6275  -0.6073  -0.5811
 -0.5777  -0.5382  -0.5328  -0.5091  -0.4677  -0.4674  -0.4481  -0.4367
 -0.4289  -0.4245  -0.4097  -0.4064  -0.4007  -0.4005  -0.3726  -0.3716
 -0.3692  -0.3605  -0.3560  -0.3332  -0.3295  -0.3242  -0.3189  -0.2834
 -0.2547  -0.2438  -0.2338  -0.2053  -0.1949  -0.1821  -0.1163

          Ground-State Mulliken Net Atomic Charges

     Atom                 Charge (a.u.)
  ----------------------------------------
      1 C                    -0.510576
      2 C                     2.121468
      3 C                    -0.763994
      4 C                    -1.798667
      5 C                     1.806611
      6 C                    -0.186122
      7 C                    -2.235200
      8 C                    -2.237596
      9 C                    -0.761361
     10 C                    -1.799998
     11 C                    -0.516916
     12 C                     2.122441
     13 C                     1.806029
     14 C                    -0.188865
     15 O                    -0.395128
     16 O                    -0.394659
     17 O                    -0.079401
     18 O                    -0.079294
     19 H                     0.052076
     20 H                     0.399550
     21 H                     0.219975
     22 H                     0.052492
     23 H                     0.399888
     24 H                     0.219228
     25 H                     0.374022
     26 H                     0.373995
  ----------------------------------------
  Sum of atomic charges =    -2.000000

                    Cartesian Multipole Moments
 -----------------------------------------------------------------
    Charge (ESU x 10^10)
                -9.6064
    Dipole Moment (Debye)
         X      -8.3974      Y     -25.0567      Z      13.3169
       Tot      29.5921
    Quadrupole Moments (Debye-Ang)
        XX    -162.7493     XY     -17.1416     YY    -216.7445
        XZ      20.8065     YZ      47.8323     ZZ    -144.5977

 Total job time:  649.43s(wall), 4932.80s(cpu)
        *  Thank you very much for using Q-Chem.  Have a nice day.  *
