 Gaussian 16, Revision A.03,
 Gaussian 16:  ES64L-G16RevA.03 25-Dec-2016

 ----------------------------------------------------------------------
 #P UB3LYP/6-311++G(d,p) nosym opt freq SCRF=(PCM,Solvent=n,n-DiMethylF
 ormamide)
 ----------------------------------------------------------------------

 --------
 Oxidized
 --------
 Symbolic Z-matrix:
 Charge =  0 Multiplicity = 1

 SCF Done:  E(UB3LYP) =  -880.923867310     A.U. after   15 cycles
 SCF Done:  E(UB3LYP) =  -880.924346303     A.U. after   12 cycles
 SCF Done:  E(UB3LYP) =  -880.924432613     A.U. after   12 cycles
 SCF Done:  E(UB3LYP) =  -880.924276244     A.U. after   12 cycles
 SCF Done:  E(UB3LYP) =  -880.924433220     A.U. after   11 cycles
 SCF Done:  E(UB3LYP) =  -880.924444779     A.U. after   11 cycles
 SCF Done:  E(UB3LYP) =  -880.924445524     A.U. after    9 cycles
 SCF Done:  E(UB3LYP) =  -880.924445587     A.U. after    8 cycles
 SCF Done:  E(UB3LYP) =  -880.924445620     A.U. after    8 cycles
 Optimization completed.
    -- Stationary point found.
 Normal termination of Gaussian 16 at Sun Feb 11 16:05:10 2024.

 ----------------------------------------------------------------------
 #P Geom=AllCheck Guess=TCheck SCRF=Check GenChk UB3LYP/6-311++G(d,p) F
 req
 ----------------------------------------------------------------------

 Structure from the checkpoint file:  "328.chk"
 --------
 Oxidized
 --------
 Charge =  0 Multiplicity = 1

                          Input orientation:
 ---------------------------------------------------------------------
 Center     Atomic      Atomic             Coordinates (Angstroms)
 Number     Number       Type             X           Y           Z
 ---------------------------------------------------------------------
      1          6           0       -1.272577    2.490850   -0.823299
      2          6           0       -2.307255    1.822340   -0.208402
      3          6           0       -2.096139    0.542713    0.355134
      4          6           0        0.016084    1.904092   -0.899077
      5          6           0        0.230047    0.609373   -0.328890
      6          6           0       -0.854998   -0.052477    0.297374
      7          6           0        1.105987    2.557661   -1.523172
      8          6           0        2.352899    1.974613   -1.589349
      9          6           0        2.568204    0.678755   -1.018481
     10          6           0        1.521794    0.024905   -0.406535
     11          6           0        3.461389    2.695885   -2.252637
     12          6           0        4.843652    1.991011   -2.309129
     13          6           0        4.963459    0.692221   -1.703849
     14          6           0        3.906688    0.070942   -1.097237
     15          8           0        3.337662    3.800647   -2.748043
     16          8           0        5.773193    2.568752   -2.864934
     17          1           0       -1.429836    3.472342   -1.256396
     18          1           0       -3.290173    2.275286   -0.153514
     19          1           0       -2.920413    0.028840    0.835905
     20          1           0       -0.694806   -1.033594    0.730236
     21          1           0        0.962514    3.538817   -1.960927
     22          1           0        1.679364   -0.954578    0.025848
     23          1           0        5.938607    0.228265   -1.756470
     24          8           0        3.971577   -1.132494   -0.524039
     25          6           0        5.230321   -1.859364   -0.498082
     26          6           0        5.002995   -3.129626    0.256023
     27          6           0        5.248934   -4.335697   -0.249007
     28          1           0        5.973776   -1.232025    0.003656
     29          1           0        5.554170   -2.053705   -1.523172
     30          1           0        4.646326   -3.019475    1.276652
     31          1           0        5.606394   -4.465962   -1.265826
     32          1           0        5.109938   -5.233815    0.341766
 ---------------------------------------------------------------------

 SCF Done:  E(UB3LYP) =  -880.924445620     A.U. after    1 cycles

 Alpha  occ. eigenvalues --  -19.19184 -19.13978 -19.12449 -10.28513 -10.28268
 Alpha  occ. eigenvalues --  -10.27314 -10.24866 -10.21688 -10.21018 -10.20916
 Alpha  occ. eigenvalues --  -10.20872 -10.20749 -10.20351 -10.19580 -10.19548
 Alpha  occ. eigenvalues --  -10.19466 -10.19384 -10.19176 -10.18857 -10.18249
 Alpha  occ. eigenvalues --   -1.10899  -1.07726  -1.04484  -0.90719  -0.86802
 Alpha  occ. eigenvalues --   -0.82770  -0.80829  -0.80181  -0.76546  -0.75877
 Alpha  occ. eigenvalues --   -0.72461  -0.69022  -0.66214  -0.63706  -0.62161
 Alpha  occ. eigenvalues --   -0.60079  -0.58434  -0.55971  -0.55370  -0.54585
 Alpha  occ. eigenvalues --   -0.51970  -0.50939  -0.49143  -0.48530  -0.47289
 Alpha  occ. eigenvalues --   -0.46735  -0.46076  -0.45546  -0.44831  -0.44598
 Alpha  occ. eigenvalues --   -0.43753  -0.43531  -0.42788  -0.41682  -0.39840
 Alpha  occ. eigenvalues --   -0.39312  -0.38797  -0.38411  -0.36973  -0.36153
 Alpha  occ. eigenvalues --   -0.35523  -0.34630  -0.31267  -0.30769  -0.29016
 Alpha  occ. eigenvalues --   -0.28628  -0.26281  -0.25763  -0.24333
 Alpha virt. eigenvalues --   -0.12238  -0.08245  -0.03098  -0.02213  -0.01737
 Alpha virt. eigenvalues --   -0.00727  -0.00045   0.00568   0.01338   0.01514
 Alpha virt. eigenvalues --    0.01753   0.02165   0.02846   0.03509   0.03691

  Beta  occ. eigenvalues --  -19.19184 -19.13978 -19.12449 -10.28513 -10.28268
  Beta  occ. eigenvalues --  -10.27314 -10.24866 -10.21688 -10.21018 -10.20916
  Beta  occ. eigenvalues --  -10.20872 -10.20749 -10.20351 -10.19580 -10.19548
  Beta  occ. eigenvalues --  -10.19466 -10.19384 -10.19176 -10.18857 -10.18249
  Beta  occ. eigenvalues --   -1.10899  -1.07726  -1.04484  -0.90719  -0.86802
  Beta  occ. eigenvalues --   -0.82770  -0.80829  -0.80181  -0.76546  -0.75877
  Beta  occ. eigenvalues --   -0.72461  -0.69022  -0.66214  -0.63706  -0.62161
  Beta  occ. eigenvalues --   -0.60079  -0.58434  -0.55971  -0.55370  -0.54585
  Beta  occ. eigenvalues --   -0.51970  -0.50939  -0.49143  -0.48530  -0.47289
  Beta  occ. eigenvalues --   -0.46735  -0.46076  -0.45546  -0.44831  -0.44598
  Beta  occ. eigenvalues --   -0.43753  -0.43531  -0.42788  -0.41682  -0.39840
  Beta  occ. eigenvalues --   -0.39312  -0.38797  -0.38411  -0.36973  -0.36153
  Beta  occ. eigenvalues --   -0.35523  -0.34630  -0.31267  -0.30769  -0.29016
  Beta  occ. eigenvalues --   -0.28628  -0.26281  -0.25763  -0.24333
  Beta virt. eigenvalues --   -0.12238  -0.08245  -0.03098  -0.02213  -0.01737
  Beta virt. eigenvalues --   -0.00727  -0.00045   0.00568   0.01338   0.01514
  Beta virt. eigenvalues --    0.01753   0.02165   0.02846   0.03509   0.03691

 Mulliken charges and spin densities:
               1          2
     1  C   -0.133045  -0.000000
     2  C   -0.288386  -0.000000
     3  C   -0.339569  -0.000000
     4  C    0.166318   0.000000
     5  C    0.005659   0.000000
     6  C   -0.139985   0.000000
     7  C    0.126891   0.000000
     8  C    0.684713  -0.000000
     9  C    0.139753   0.000000
    10  C   -0.060051  -0.000000
    11  C   -0.606302   0.000000
    12  C   -0.054177   0.000000
    13  C    0.164453   0.000000
    14  C   -0.495307  -0.000000
    15  O   -0.288692  -0.000000
    16  O   -0.350181  -0.000000
    17  H    0.178561   0.000000
    18  H    0.201069  -0.000000
    19  H    0.206498   0.000000
    20  H    0.180467  -0.000000
    21  H    0.161555   0.000000
    22  H    0.142844   0.000000
    23  H    0.247554  -0.000000
    24  O   -0.015316   0.000000
    25  C   -0.338055  -0.000000
    26  C    0.072690   0.000000
    27  C   -0.464507   0.000000
    28  H    0.188607   0.000000
    29  H    0.175429  -0.000000
    30  H    0.205683   0.000000
    31  H    0.155069   0.000000
    32  H    0.169760   0.000000
 Sum of Mulliken charges =  -0.00000   0.00000

 Dipole moment (field-independent basis, Debye):
    X=             -5.4232    Y=             -8.2991    Z=              5.6015  Tot=             11.3870
 Quadrupole moment (field-independent basis, Debye-Ang):
   XX=           -131.0545   YY=           -129.2662   ZZ=           -134.6571
   XY=            -51.8263   XZ=             27.5172   YZ=             20.9217

  Exact polarizability: 463.305  10.973 322.416 -99.750 -73.647 215.348
 Approx polarizability: 517.324  30.913 378.264-118.068 -91.827 256.898

                      1                      2                      3
                      A                      A                      A
 Frequencies --     30.9027                46.1938                57.7952
 Red. masses --      6.8271                 5.8152                 3.4072
 Frc consts  --      0.0038                 0.0073                 0.0067
 IR Inten    --      0.0931                 0.0263                 1.8193

                      4                      5                      6
                      A                      A                      A
 Frequencies --     75.6766                91.0926               108.4073
 Red. masses --      4.5521                 4.0235                 2.8263
 Frc consts  --      0.0154                 0.0197                 0.0196
 IR Inten    --      2.5556                 0.7910                 1.1405

                      7                      8                      9
                      A                      A                      A
 Frequencies --    143.9624               175.6423               188.4293
 Red. masses --      3.8468                 6.5279                 5.6610
 Frc consts  --      0.0470                 0.1187                 0.1184
 IR Inten    --      0.2466                 8.2826                 5.2656

                     10                     11                     12
                      A                      A                      A
 Frequencies --    234.1306               260.0890               266.6648
 Red. masses --      4.5919                 4.8242                 4.1625
 Frc consts  --      0.1483                 0.1923                 0.1744
 IR Inten    --      1.0626                 3.2031                 6.3113

                     13                     14                     15
                      A                      A                      A
 Frequencies --    294.1349               341.0503               363.3837
 Red. masses --      4.8342                 4.9094                10.3390
 Frc consts  --      0.2464                 0.3364                 0.8044
 IR Inten    --      1.4934                 1.1866                11.0794

                     16                     17                     18
                      A                      A                      A
 Frequencies --    389.7510               395.2605               455.0754
 Red. masses --      6.6513                 3.4127                 2.7385
 Frc consts  --      0.5953                 0.3141                 0.3341
 IR Inten    --     10.3639                 0.0082                 1.2582

                     19                     20                     21
                      A                      A                      A
 Frequencies --    482.4040               485.5701               497.5420
 Red. masses --      4.3171                 3.3729                 5.8183
 Frc consts  --      0.5919                 0.4685                 0.8486
 IR Inten    --     32.5723                 8.2076                 5.6476

                     22                     23                     24
                      A                      A                      A
 Frequencies --    522.2870               542.5668               596.7368
 Red. masses --      4.0223                 6.4986                 5.1349
 Frc consts  --      0.6465                 1.1271                 1.0773
 IR Inten    --      2.2129                21.3305                 6.6412

                     25                     26                     27
                      A                      A                      A
 Frequencies --    604.3332               616.2479               636.3866
 Red. masses --      3.8944                 3.7336                 4.4230
 Frc consts  --      0.8380                 0.8354                 1.0554
 IR Inten    --      6.8815                 0.1001                 2.1947

                     28                     29                     30
                      A                      A                      A
 Frequencies --    685.3171               715.1135               732.1020
 Red. masses --      2.8610                 5.5424                 4.9881
 Frc consts  --      0.7917                 1.6699                 1.5752
 IR Inten    --     12.8014                 5.8927                 0.9186

                     31                     32                     33
                      A                      A                      A
 Frequencies --    766.7032               769.4333               783.4545
 Red. masses --      2.0999                 1.8506                 5.7920
 Frc consts  --      0.7273                 0.6455                 2.0946
 IR Inten    --     27.4802                42.8574                32.2595

                     34                     35                     36
                      A                      A                      A
 Frequencies --    792.2495               804.6101               842.6703
 Red. masses --      4.8198                 2.7143                 2.1277
 Frc consts  --      1.7824                 1.0353                 0.8902
 IR Inten    --      2.6374                52.5199                31.7399

                     37                     38                     39
                      A                      A                      A
 Frequencies --    875.7541               910.6900               932.7026
 Red. masses --      1.3578                 4.9683                 1.4991
 Frc consts  --      0.6136                 2.4277                 0.7684
 IR Inten    --      0.0303                 6.8670                13.1176

                     40                     41                     42
                      A                      A                      A
 Frequencies --    936.5640               947.0159               964.3300
 Red. masses --      1.6058                 1.4607                 3.2682
 Frc consts  --      0.8299                 0.7718                 1.7907
 IR Inten    --     16.6290                30.1745               202.0749

                     43                     44                     45
                      A                      A                      A
 Frequencies --    978.0452               984.0969               990.2076
 Red. masses --      1.4438                 3.7519                 1.3994
 Frc consts  --      0.8137                 2.1408                 0.8084
 IR Inten    --     37.0231                25.7037                11.0035

                     46                     47                     48
                      A                      A                      A
 Frequencies --   1000.0101              1011.3554              1029.4356
 Red. masses --      1.7846                 1.3109                 1.2263
 Frc consts  --      1.0515                 0.7900                 0.7657
 IR Inten    --      2.1143                 0.0085                31.7133

                     49                     50                     51
                      A                      A                      A
 Frequencies --   1040.8620              1100.4121              1159.8951
 Red. masses --      2.3149                 4.0973                 1.6068
 Frc consts  --      1.4776                 2.9232                 1.2736
 IR Inten    --      9.1352               170.8772                70.6771

                     52                     53                     54
                      A                      A                      A
 Frequencies --   1172.7000              1177.2725              1190.8679
 Red. masses --      1.8299                 1.1842                 1.7224
 Frc consts  --      1.4827                 0.9670                 1.4391
 IR Inten    --      6.4640                 0.1028               175.7780

                     55                     56                     57
                      A                      A                      A
 Frequencies --   1238.2351              1247.2209              1269.6331
 Red. masses --      2.2552                 2.2240                 2.0838
 Frc consts  --      2.0373                 2.0383                 1.9790
 IR Inten    --    296.3159               337.0144               262.4490

                     58                     59                     60
                      A                      A                      A
 Frequencies --   1272.3594              1287.6967              1294.7633
 Red. masses --      1.1867                 2.1300                 4.8786
 Frc consts  --      1.1319                 2.0809                 4.8186
 IR Inten    --     43.1830                25.0994                44.8667

                     61                     62                     63
                      A                      A                      A
 Frequencies --   1316.1993              1349.4261              1370.2349
 Red. masses --      1.2673                 2.5844                 1.6654
 Frc consts  --      1.2935                 2.7728                 1.8423
 IR Inten    --      1.1709               275.6521               137.4878

                     64                     65                     66
                      A                      A                      A
 Frequencies --   1388.5608              1406.3318              1422.2999
 Red. masses --      4.3305                 2.0769                 3.6406
 Frc consts  --      4.9194                 2.4201                 4.3392
 IR Inten    --     31.2138                33.1662                57.3437

                     67                     68                     69
                      A                      A                      A
 Frequencies --   1458.2951              1475.8432              1492.5730
 Red. masses --      1.2423                 2.6691                 1.8018
 Frc consts  --      1.5566                 3.4253                 2.3649
 IR Inten    --     30.2248               139.6074                59.3526

                     70                     71                     72
                      A                      A                      A
 Frequencies --   1498.7353              1532.9070              1580.5188
 Red. masses --      1.4603                 3.6185                 5.8038
 Frc consts  --      1.9326                 5.0097                 8.5420
 IR Inten    --    105.4859                15.8757              1022.1268

                     73                     74                     75
                      A                      A                      A
 Frequencies --   1605.4468              1624.3637              1647.6931
 Red. masses --      7.1185                 6.3997                 5.8332
 Frc consts  --     10.8101                 9.9490                 9.3306
 IR Inten    --    514.5701                40.7323               141.7833

                     76                     77                     78
                      A                      A                      A
 Frequencies --   1670.7812              1704.1577              1734.1809
 Red. masses --     12.2893                 4.6696                12.3084
 Frc consts  --     20.2123                 7.9900                21.8093
 IR Inten    --    930.4801                 3.0185               197.2116

                     79                     80                     81
                      A                      A                      A
 Frequencies --   3031.6892              3089.0038              3130.5873
 Red. masses --      1.0575                 1.1067                 1.0594
 Frc consts  --      5.7269                 6.2221                 6.1174
 IR Inten    --     18.8373                17.6084                11.8775

                     82                     83                     84
                      A                      A                      A
 Frequencies --   3151.0662              3171.1533              3175.9790
 Red. masses --      1.0928                 1.0866                 1.0888
 Frc consts  --      6.3930                 6.4382                 6.4708
 IR Inten    --      9.2927                 1.6594                 0.0934

                     85                     86                     87
                      A                      A                      A
 Frequencies --   3185.6726              3188.1168              3195.9169
 Red. masses --      1.0941                 1.0908                 1.0977
 Frc consts  --      6.5421                 6.5325                 6.6056
 IR Inten    --     25.5692                 3.0155                36.9102

                     88                     89                     90
                      A                      A                      A
 Frequencies --   3204.9318              3212.6685              3218.1791
 Red. masses --      1.0909                 1.0905                 1.1158
 Frc consts  --      6.6018                 6.6317                 6.8088
 IR Inten    --      0.7967                 2.7399                13.5009

 - Thermochemistry -
 -------------------
 Temperature   298.150 Kelvin.  Pressure   1.00000 Atm.
 Atom     1 has atomic number  6 and mass  12.00000

 Molecular mass:   264.07864 amu.
 Principal axes and moments of inertia in atomic units:
                           1         2         3
     Eigenvalues --  4198.231677337.45109**********
           X            0.89930   0.35443   0.25619
           Y           -0.43176   0.81270   0.39127
           Z           -0.06953  -0.46248   0.88390
 This molecule is an asymmetric top.
 Rotational symmetry number  1.
 Warning -- assumption of classical behavior for rotation
           may cause significant error
 Rotational temperatures (Kelvin)      0.02063     0.01180     0.00756
 Rotational constants (GHZ):           0.42988     0.24596     0.15753
 Zero-point vibrational energy     640235.5 (Joules/Mol)
                                  153.01995 (Kcal/Mol)
 Warning -- explicit consideration of  26 degrees of freedom as
           vibrations may cause significant error
 Vibrational temperatures:     44.46    66.46    83.15   108.88   131.06
          (Kelvin)            155.97   207.13   252.71   271.11   336.86
                              374.21   383.67   423.19   490.70   522.83
                              560.76   568.69   654.75   694.07   698.63
                              715.85   751.45   780.63   858.57   869.50
                              886.64   915.62   986.02  1028.89  1053.33
                             1103.11  1107.04  1127.22  1139.87  1157.65
                             1212.41  1260.01  1310.28  1341.95  1347.51
                             1362.54  1387.46  1407.19  1415.90  1424.69
                             1438.79  1455.11  1481.13  1497.57  1583.25
                             1668.83  1687.25  1693.83  1713.39  1781.54
                             1794.47  1826.72  1830.64  1852.71  1862.88
                             1893.72  1941.52  1971.46  1997.83  2023.40
                             2046.37  2098.16  2123.41  2147.48  2156.35
                             2205.51  2274.01  2309.88  2337.10  2370.66
                             2403.88  2451.90  2495.10  4361.92  4444.39
                             4504.22  4533.68  4562.58  4569.53  4583.47
                             4586.99  4598.21  4611.18  4622.31  4630.24

 Zero-point correction=                           0.243853 (Hartree/Particle)
 Thermal correction to Energy=                    0.260131
 Thermal correction to Enthalpy=                  0.261075
 Thermal correction to Gibbs Free Energy=         0.198724
 Sum of electronic and zero-point Energies=           -880.680593
 Sum of electronic and thermal Energies=              -880.664315
 Sum of electronic and thermal Enthalpies=            -880.663370
 Sum of electronic and thermal Free Energies=         -880.725721

                     E (Thermal)             CV                S
                      KCal/Mol        Cal/Mol-Kelvin    Cal/Mol-Kelvin
 Total                  163.235             63.358            131.229
 Electronic               0.000              0.000              0.000
 Translational            0.889              2.981             42.613
 Rotational               0.889              2.981             34.222
 Vibrational            161.457             57.396             54.394
 Vibration     1          0.594              1.984              5.771
 Vibration     2          0.595              1.979              4.974
 Vibration     3          0.596              1.974              4.531
 Vibration     4          0.599              1.965              4.000
 Vibration     5          0.602              1.956              3.636
 Vibration     6          0.606              1.942              3.297
 Vibration     7          0.616              1.909              2.751
 Vibration     8          0.628              1.872              2.374
 Vibration     9          0.633              1.856              2.243
 Vibration    10          0.654              1.789              1.847
 Vibration    11          0.668              1.746              1.661
 Vibration    12          0.672              1.734              1.618
 Vibration    13          0.689              1.685              1.450
 Vibration    14          0.721              1.593              1.207
 Vibration    15          0.737              1.548              1.108
 Vibration    16          0.758              1.492              1.001
 Vibration    17          0.762              1.480              0.980
 Vibration    18          0.813              1.350              0.781
 Vibration    19          0.839              1.289              0.704
 Vibration    20          0.842              1.282              0.695
 Vibration    21          0.853              1.255              0.664
 Vibration    22          0.877              1.201              0.605
 Vibration    23          0.898              1.156              0.560
 Vibration    24          0.955              1.039              0.455
 Vibration    25          0.963              1.023              0.442
 Vibration    26          0.976              0.998              0.423

                           ! Non-Optimized Parameters !
 Normal termination of Gaussian 16 at Sun Feb 11 17:38:34 2024.
