 Gaussian 16, Revision A.03,
 Gaussian 16:  ES64L-G16RevA.03 25-Dec-2016

 ----------------------------------------------------------------
 #P UB3LYP/6-311++G(d,p) SCRF=(PCM,Solvent=n,n-DiMethylFormamide)
 ----------------------------------------------------------------

 ------------------
 Radical PCM in DMF
 ------------------
 Symbolic Z-matrix:
 Charge = -1 Multiplicity = 2

                         Standard orientation:
 ---------------------------------------------------------------------
 Center     Atomic      Atomic             Coordinates (Angstroms)
 Number     Number       Type             X           Y           Z
 ---------------------------------------------------------------------
      1          8           0       -0.000253   -2.750801    0.000063
      2          6           0       -0.000182   -1.497578   -0.000091
      3          6           0        1.245832   -0.721866   -0.000038
      4          6           0        2.463715   -1.398213   -0.000023
      5          6           0        3.691962   -0.722154    0.000007
      6          6           0        4.945900   -1.403499   -0.000006
      7          6           0        6.130151   -0.713125    0.000042
      8          6           0        6.130084    0.712673    0.000111
      9          6           0        4.945962    1.403242    0.000126
     10          6           0        3.691612    0.721935    0.000047
     11          6           0        2.463914    1.398228    0.000023
     12          6           0        1.245379    0.722065   -0.000056
     13          6           0       -0.000065    1.497334   -0.000150
     14          8           0        0.000571    2.751338   -0.000152
     15          6           0       -1.245349    0.722487   -0.000114
     16          6           0       -2.464038    1.398435   -0.000047
     17          6           0       -3.691641    0.722117    0.000012
     18          6           0       -4.946048    1.403146    0.000108
     19          6           0       -6.130191    0.712508    0.000151
     20          6           0       -6.130254   -0.712999    0.000094
     21          6           0       -4.945825   -1.403292    0.000000
     22          6           0       -3.691965   -0.722148   -0.000016
     23          6           0       -2.463774   -1.398010   -0.000076
     24          6           0       -1.245693   -0.721799   -0.000090
     25          1           0        2.435749   -2.482708   -0.000045
     26          1           0        4.942568   -2.489515   -0.000067
     27          1           0        7.074246   -1.248415    0.000013
     28          1           0        7.074128    1.247968    0.000153
     29          1           0        4.942993    2.489233    0.000195
     30          1           0        2.436203    2.482707    0.000057
     31          1           0       -2.436140    2.482938   -0.000035
     32          1           0       -4.943186    2.489142    0.000160
     33          1           0       -7.074037    1.248208    0.000244
     34          1           0       -7.073971   -1.248899    0.000124
     35          1           0       -4.942340   -2.489337   -0.000062
     36          1           0       -2.435672   -2.482548   -0.000109
 ---------------------------------------------------------------------

 SCF Done:  E(UB3LYP) =  -996.444157044     A.U. after   19 cycles

 The electronic state is 2-A.
 Alpha  occ. eigenvalues --  -19.07600 -19.07559 -10.22558 -10.22512 -10.18546
 Alpha  occ. eigenvalues --  -10.18544 -10.18507 -10.18505 -10.17838 -10.17837
 Alpha  occ. eigenvalues --  -10.17832 -10.17831 -10.17768 -10.17766 -10.17732
 Alpha  occ. eigenvalues --  -10.17731 -10.17496 -10.17495 -10.17458 -10.17457
 Alpha  occ. eigenvalues --  -10.17312 -10.17311 -10.17300 -10.17298  -1.00486
 Alpha  occ. eigenvalues --   -1.00238  -0.87892  -0.87658  -0.83656  -0.82149
 Alpha  occ. eigenvalues --   -0.77843  -0.77841  -0.77097  -0.73912  -0.73139
 Alpha  occ. eigenvalues --   -0.72564  -0.66445  -0.66113  -0.62302  -0.61880
 Alpha  occ. eigenvalues --   -0.59816  -0.59362  -0.56865  -0.55204  -0.52723
 Alpha  occ. eigenvalues --   -0.51846  -0.51380  -0.48034  -0.47255  -0.46595
 Alpha  occ. eigenvalues --   -0.45758  -0.44683  -0.43652  -0.43412  -0.42557
 Alpha  occ. eigenvalues --   -0.42137  -0.41845  -0.41813  -0.41096  -0.40495
 Alpha  occ. eigenvalues --   -0.40136  -0.39657  -0.38203  -0.38107  -0.37932
 Alpha  occ. eigenvalues --   -0.36136  -0.35981  -0.34343  -0.33323  -0.33024
 Alpha  occ. eigenvalues --   -0.32769  -0.31501  -0.29503  -0.29139  -0.26097
 Alpha  occ. eigenvalues --   -0.24713  -0.24588  -0.23851  -0.22762  -0.22488
 Alpha  occ. eigenvalues --   -0.13148
 Alpha virt. eigenvalues --   -0.08334  -0.04461  -0.02803  -0.00368  -0.00264
 Alpha virt. eigenvalues --    0.00036   0.00914   0.01118   0.01185   0.01555
 Alpha virt. eigenvalues --    0.01727   0.02731   0.03069   0.03992   0.04401

  Beta  occ. eigenvalues --  -19.07116 -19.07070 -10.22368 -10.22319 -10.18509
  Beta  occ. eigenvalues --  -10.18507 -10.18470 -10.18468 -10.17835 -10.17834
  Beta  occ. eigenvalues --  -10.17831 -10.17830 -10.17748 -10.17747 -10.17709
  Beta  occ. eigenvalues --  -10.17707 -10.17437 -10.17435 -10.17399 -10.17398
  Beta  occ. eigenvalues --  -10.17289 -10.17289 -10.17275 -10.17274  -0.99628
  Beta  occ. eigenvalues --   -0.99361  -0.87757  -0.87573  -0.83417  -0.82066
  Beta  occ. eigenvalues --   -0.77739  -0.77704  -0.76817  -0.73787  -0.72877
  Beta  occ. eigenvalues --   -0.72478  -0.66281  -0.65517  -0.62123  -0.61797
  Beta  occ. eigenvalues --   -0.59796  -0.59314  -0.56639  -0.54919  -0.52664
  Beta  occ. eigenvalues --   -0.51698  -0.51342  -0.47951  -0.46999  -0.46472
  Beta  occ. eigenvalues --   -0.45695  -0.44639  -0.43586  -0.43340  -0.42109
  Beta  occ. eigenvalues --   -0.41788  -0.41638  -0.41533  -0.40563  -0.40387
  Beta  occ. eigenvalues --   -0.40039  -0.39426  -0.37894  -0.37447  -0.36071
  Beta  occ. eigenvalues --   -0.36002  -0.35921  -0.34240  -0.33297  -0.32774
  Beta  occ. eigenvalues --   -0.32676  -0.30414  -0.29212  -0.28680  -0.24669
  Beta  occ. eigenvalues --   -0.24269  -0.24236  -0.23397  -0.22189  -0.21861
  Beta virt. eigenvalues --   -0.07910  -0.07451  -0.04229  -0.02025  -0.00359
  Beta virt. eigenvalues --   -0.00010   0.00034   0.00918   0.01136   0.01334
  Beta virt. eigenvalues --    0.01550   0.02374   0.02730   0.03080   0.04002

 Mulliken charges and spin densities:
               1          2
     1  O   -0.439988   0.181838
     2  C   -0.669696   0.104915
     3  C    0.269517   0.029069
     4  C    0.058909   0.031377
     5  C    0.088910   0.027345
     6  C   -0.239112  -0.000833
     7  C   -0.361667   0.022048
     8  C   -0.361363   0.020745
     9  C   -0.240829   0.000469
    10  C    0.091194   0.026010
    11  C    0.058662   0.033794
    12  C    0.267148   0.028389
    13  C   -0.666693   0.107007
    14  O   -0.442087   0.183580
    15  C    0.266376   0.028475
    16  C    0.058501   0.033884
    17  C    0.090456   0.026067
    18  C   -0.240721   0.000504
    19  C   -0.361440   0.020797
    20  C   -0.361674   0.022148
    21  C   -0.238857  -0.000847
    22  C    0.089212   0.027442
    23  C    0.059323   0.031376
    24  C    0.268902   0.029263
    25  H    0.141526  -0.002496
    26  H    0.159199   0.000660
    27  H    0.188552  -0.001798
    28  H    0.188543  -0.001712
    29  H    0.159183   0.000592
    30  H    0.141552  -0.002668
    31  H    0.141528  -0.002672
    32  H    0.159174   0.000592
    33  H    0.188531  -0.001717
    34  H    0.188534  -0.001807
    35  H    0.159192   0.000664
    36  H    0.141504  -0.002498
 Sum of Mulliken charges =  -1.00000   1.00000

 Dipole moment (field-independent basis, Debye):
    X=              0.0017    Y=             -0.0359    Z=              0.0002  Tot=              0.0360
 Quadrupole moment (field-independent basis, Debye-Ang):
   XX=           -132.8889   YY=           -167.3718   ZZ=           -148.7798
   XY=             -0.0037   XZ=             -0.0006   YZ=              0.0028

 Normal termination of Gaussian 16 at Sun Jan 14 01:21:50 2024.
