 Gaussian 16, Revision A.03,
 Gaussian 16:  ES64L-G16RevA.03 25-Dec-2016

 ----------------------------------------------------------------------
 #P UB3LYP/6-311++G(d,p) nosym opt freq SCRF=(PCM,Solvent=n,n-DiMethylF
 ormamide)
 ----------------------------------------------------------------------

 -------
 Radical
 -------
 Symbolic Z-matrix:
 Charge = -1 Multiplicity = 2

 SCF Done:  E(UB3LYP) =  -539.024546839     A.U. after   19 cycles
 SCF Done:  E(UB3LYP) =  -539.024842225     A.U. after   15 cycles
 SCF Done:  E(UB3LYP) =  -539.024890027     A.U. after   13 cycles
 SCF Done:  E(UB3LYP) =  -539.024892769     A.U. after   13 cycles
 SCF Done:  E(UB3LYP) =  -539.024894669     A.U. after   10 cycles
 SCF Done:  E(UB3LYP) =  -539.024894925     A.U. after    9 cycles
 SCF Done:  E(UB3LYP) =  -539.024895079     A.U. after    9 cycles
 SCF Done:  E(UB3LYP) =  -539.024895162     A.U. after    8 cycles
 SCF Done:  E(UB3LYP) =  -539.024895206     A.U. after    8 cycles
 Optimization completed.
    -- Stationary point found.
 Normal termination of Gaussian 16 at Sat Feb 10 10:33:21 2024.

 ----------------------------------------------------------------------
 #P Geom=AllCheck Guess=TCheck SCRF=Check GenChk UB3LYP/6-311++G(d,p) F
 req
 ----------------------------------------------------------------------

 Structure from the checkpoint file:  "034-rad.chk"
 -------
 Radical
 -------
 Charge = -1 Multiplicity = 2

                          Input orientation:
 ---------------------------------------------------------------------
 Center     Atomic      Atomic             Coordinates (Angstroms)
 Number     Number       Type             X           Y           Z
 ---------------------------------------------------------------------
      1          6           0       -2.482454    1.396947    0.366598
      2          6           0       -1.981968   -0.059335    0.420275
      3          6           0       -2.774516   -0.957263   -0.548982
      4          6           0       -0.477281   -0.165126    0.219927
      5          6           0        0.314975   -0.648130    1.234373
      6          6           0        1.748726   -0.788010    1.155747
      7          8           0        2.430959   -1.243307    2.130721
      8          6           0        2.374051   -0.382327   -0.093379
      9          6           0        1.589403    0.099148   -1.110397
     10          6           0        0.152336    0.239738   -1.033541
     11          8           0       -0.509628    0.696113   -2.020757
     12          6           0        3.868056   -0.504829   -0.226110
     13          1           0       -2.314637    1.826543   -0.622312
     14          1           0       -3.554051    1.439905    0.587777
     15          1           0       -1.962863    2.016948    1.103326
     16          1           0       -2.179537   -0.429130    1.433583
     17          1           0       -2.631205   -0.633464   -1.581003
     18          1           0       -2.453555   -2.000178   -0.468215
     19          1           0       -3.843802   -0.916458   -0.316496
     20          1           0       -0.141357   -0.953635    2.173417
     21          1           0        2.045583    0.404762   -2.049206
     22          1           0        4.383915    0.100023    0.527032
     23          1           0        4.202340   -0.182754   -1.214657
     24          1           0        4.196510   -1.537073   -0.067720
 ---------------------------------------------------------------------

 SCF Done:  E(UB3LYP) =  -539.024895206     A.U. after    1 cycles

 Alpha  occ. eigenvalues --  -19.07098 -19.06936 -10.21277 -10.21155 -10.16947
 Alpha  occ. eigenvalues --  -10.16716 -10.16447 -10.15611 -10.15338 -10.15319
 Alpha  occ. eigenvalues --  -10.14745 -10.14731  -0.98894  -0.98627  -0.82577
 Alpha  occ. eigenvalues --   -0.79293  -0.74435  -0.69174  -0.67459  -0.65932
 Alpha  occ. eigenvalues --   -0.58872  -0.58421  -0.52424  -0.48185  -0.45591
 Alpha  occ. eigenvalues --   -0.43845  -0.42596  -0.42245  -0.41758  -0.40436
 Alpha  occ. eigenvalues --   -0.39549  -0.38611  -0.38223  -0.37016  -0.36962
 Alpha  occ. eigenvalues --   -0.35866  -0.34848  -0.33460  -0.33017  -0.32379
 Alpha  occ. eigenvalues --   -0.27088  -0.24210  -0.23549  -0.22955  -0.15623
 Alpha virt. eigenvalues --   -0.00261  -0.00143   0.00559   0.01444   0.01645
 Alpha virt. eigenvalues --    0.02767   0.03113   0.03421   0.04322   0.04373
 Alpha virt. eigenvalues --    0.05239   0.05432   0.05525   0.06454   0.06711

  Beta  occ. eigenvalues --  -19.06419 -19.06230 -10.21127 -10.20994 -10.16955
  Beta  occ. eigenvalues --  -10.16593 -10.16309 -10.15620 -10.15256 -10.15243
  Beta  occ. eigenvalues --  -10.14738 -10.14724  -0.97685  -0.97379  -0.82055
  Beta  occ. eigenvalues --   -0.79096  -0.74246  -0.68738  -0.67437  -0.65171
  Beta  occ. eigenvalues --   -0.58588  -0.58107  -0.52076  -0.48000  -0.45314
  Beta  occ. eigenvalues --   -0.43511  -0.42530  -0.41576  -0.41455  -0.40198
  Beta  occ. eigenvalues --   -0.38954  -0.38085  -0.38076  -0.36760  -0.35970
  Beta  occ. eigenvalues --   -0.34583  -0.33577  -0.32949  -0.32847  -0.32333
  Beta  occ. eigenvalues --   -0.23840  -0.23463  -0.22920  -0.22338
  Beta virt. eigenvalues --   -0.08376  -0.00244   0.00567   0.01062   0.01469
  Beta virt. eigenvalues --    0.01910   0.02782   0.03129   0.04387   0.04398
  Beta virt. eigenvalues --    0.05253   0.05341   0.05545   0.05657   0.06561

 Mulliken charges and spin densities:
               1          2
     1  C   -0.687629   0.009772
     2  C    0.163997  -0.020394
     3  C   -0.684981   0.009659
     4  C    1.224333   0.118381
     5  C   -0.194778   0.044156
     6  C   -0.894156   0.113071
     7  O   -0.515688   0.243177
     8  C    1.072743   0.098219
     9  C   -0.718362   0.056278
    10  C   -0.786757   0.077845
    11  O   -0.469666   0.253045
    12  C   -0.370111   0.004720
    13  H    0.175931  -0.001370
    14  H    0.144016   0.000582
    15  H    0.127068   0.000262
    16  H    0.172761  -0.001021
    17  H    0.175857  -0.001376
    18  H    0.126701   0.000324
    19  H    0.144623   0.000527
    20  H    0.167512  -0.007047
    21  H    0.152946  -0.007140
    22  H    0.164914   0.004458
    23  H    0.145053  -0.000350
    24  H    0.163673   0.004221
 Sum of Mulliken charges =  -1.00000   1.00000

 Dipole moment (field-independent basis, Debye):
    X=             -4.5744    Y=              1.3980    Z=             -0.4778  Tot=              4.8070
 Quadrupole moment (field-independent basis, Debye-Ang):
   XX=            -90.3553   YY=            -83.5228   ZZ=           -100.8441
   XY=              9.3538   XZ=            -18.8981   YZ=             11.0710

  Exact polarizability: 238.550 -28.292 145.838  39.271 -41.569 222.890
 Approx polarizability: 242.098 -32.300 159.869  51.763 -50.968 253.527

                      1                      2                      3
                      A                      A                      A
 Frequencies --     63.7680                74.6879               135.1916
 Red. masses --      3.1521                 3.5825                 1.0946
 Frc consts  --      0.0076                 0.0118                 0.0118
 IR Inten    --      0.1881                12.7327                 0.0318

                      4                      5                      6
                      A                      A                      A
 Frequencies --    153.2498               183.9222               203.1369
 Red. masses --      3.8954                 2.6179                 3.4558
 Frc consts  --      0.0539                 0.0522                 0.0840
 IR Inten    --     11.5210                 4.8627                 0.0064

                      7                      8                      9
                      A                      A                      A
 Frequencies --    213.6629               228.6644               270.8768
 Red. masses --      1.0941                 1.2331                 2.7769
 Frc consts  --      0.0294                 0.0380                 0.1200
 IR Inten    --      0.7298                 2.6339                 3.5430

                     10                     11                     12
                      A                      A                      A
 Frequencies --    280.1754               281.5549               385.9941
 Red. masses --      4.4818                 3.2342                 8.5275
 Frc consts  --      0.2073                 0.1511                 0.7486
 IR Inten    --      0.0085                 2.4147                29.4565

                     13                     14                     15
                      A                      A                      A
 Frequencies --    406.4183               420.0018               448.5303
 Red. masses --      3.6284                 2.7601                 3.8889
 Frc consts  --      0.3531                 0.2869                 0.4610
 IR Inten    --      1.6858                 2.0657                 0.8695

                     16                     17                     18
                      A                      A                      A
 Frequencies --    495.3167               511.9314               642.8584
 Red. masses --      3.5471                 7.1601                 4.0330
 Frc consts  --      0.5127                 1.1056                 0.9820
 IR Inten    --      2.0713                 0.1578                 3.9133

                     19                     20                     21
                      A                      A                      A
 Frequencies --    679.6916               699.2174               715.6047
 Red. masses --      3.8441                 4.5358                 5.2417
 Frc consts  --      1.0463                 1.3065                 1.5815
 IR Inten    --     11.8160                 4.4507                17.4682

                     22                     23                     24
                      A                      A                      A
 Frequencies --    760.5878               826.8595               863.7164
 Red. masses --      3.3238                 3.7582                 1.5076
 Frc consts  --      1.1329                 1.5139                 0.6626
 IR Inten    --      0.9925                37.3730                 1.5173

                     25                     26                     27
                      A                      A                      A
 Frequencies --    891.4563               895.9888               924.5963
 Red. masses --      2.3710                 1.5217                 1.1579
 Frc consts  --      1.1101                 0.7198                 0.5832
 IR Inten    --      2.5264                67.0049                 4.4771

                     28                     29                     30
                      A                      A                      A
 Frequencies --    958.9992              1008.8308              1031.9963
 Red. masses --      1.5566                 1.6101                 1.9909
 Frc consts  --      0.8435                 0.9655                 1.2492
 IR Inten    --      0.0160               109.7638                36.4990

                     31                     32                     33
                      A                      A                      A
 Frequencies --   1046.7233              1114.2481              1128.9987
 Red. masses --      1.5074                 2.3527                 2.6481
 Frc consts  --      0.9730                 1.7210                 1.9887
 IR Inten    --      2.8709                 3.2011                29.7299

                     34                     35                     36
                      A                      A                      A
 Frequencies --   1168.0413              1185.6066              1224.0614
 Red. masses --      2.0292                 2.9081                 2.9123
 Frc consts  --      1.6311                 2.4085                 2.5709
 IR Inten    --     39.9131                 3.2518                37.8980

                     37                     38                     39
                      A                      A                      A
 Frequencies --   1244.8835              1314.7860              1345.1542
 Red. masses --      1.3517                 2.5129                 1.3025
 Frc consts  --      1.2342                 2.5594                 1.3885
 IR Inten    --      2.1664                11.1902                 4.2367

                     40                     41                     42
                      A                      A                      A
 Frequencies --   1368.5212              1376.2876              1390.0177
 Red. masses --      1.5564                 1.2256                 1.2543
 Frc consts  --      1.7174                 1.3678                 1.4279
 IR Inten    --     50.7113                 8.7026                27.0046

                     43                     44                     45
                      A                      A                      A
 Frequencies --   1399.2019              1442.2164              1459.2393
 Red. masses --      1.2872                 3.5603                 1.0467
 Frc consts  --      1.4848                 4.3631                 1.3132
 IR Inten    --     13.9584                17.4903                 9.8117

                     46                     47                     48
                      A                      A                      A
 Frequencies --   1467.5551              1473.4149              1474.4309
 Red. masses --      2.1741                 3.6240                 1.0488
 Frc consts  --      2.7589                 4.6355                 1.3433
 IR Inten    --    194.2944               138.5470                 2.0428

                     49                     50                     51
                      A                      A                      A
 Frequencies --   1483.0959              1488.9118              1495.0227
 Red. masses --      1.2510                 1.0497                 1.5131
 Frc consts  --      1.6212                 1.3710                 1.9926
 IR Inten    --    334.4034                 2.4756               374.3768

                     52                     53                     54
                      A                      A                      A
 Frequencies --   1503.4471              1532.4970              1642.9561
 Red. masses --      1.3034                 4.2964                 6.7573
 Frc consts  --      1.7358                 5.9450                10.7466
 IR Inten    --    290.2927               111.6681                 1.2633

                     55                     56                     57
                      A                      A                      A
 Frequencies --   3002.3917              3013.3199              3015.1345
 Red. masses --      1.0815                 1.0369                 1.0366
 Frc consts  --      5.7439                 5.5472                 5.5524
 IR Inten    --     39.7404                72.2940                83.6689

                     58                     59                     60
                      A                      A                      A
 Frequencies --   3019.1626              3057.6046              3069.6643
 Red. masses --      1.0393                 1.0993                 1.1014
 Frc consts  --      5.5816                 6.0550                 6.1149
 IR Inten    --     80.3387                37.2724                41.5175

                     61                     62                     63
                      A                      A                      A
 Frequencies --   3071.3265              3095.4292              3105.2314
 Red. masses --      1.1008                 1.1012                 1.0999
 Frc consts  --      6.1178                 6.2166                 6.2487
 IR Inten    --    107.8662                33.3028                 1.5258

                     64                     65                     66
                      A                      A                      A
 Frequencies --   3110.1563              3130.8613              3135.2552
 Red. masses --      1.0989                 1.0887                 1.0894
 Frc consts  --      6.2629                 6.2876                 6.3095
 IR Inten    --     54.1993                92.3703                11.7569

 - Thermochemistry -
 -------------------
 Temperature   298.150 Kelvin.  Pressure   1.00000 Atm.
 Atom     1 has atomic number  6 and mass  12.00000

 Molecular mass:   164.08373 amu.
 Principal axes and moments of inertia in atomic units:
                           1         2         3
     Eigenvalues --  1034.829272918.542793548.74032
           X            0.96912  -0.22015   0.11108
           Y           -0.18017  -0.32458   0.92854
           Z            0.16836   0.91988   0.35422
 This molecule is an asymmetric top.
 Rotational symmetry number  1.
 Warning -- assumption of classical behavior for rotation
           may cause significant error
 Rotational temperatures (Kelvin)      0.08370     0.02968     0.02441
 Rotational constants (GHZ):           1.74400     0.61837     0.50856
 Zero-point vibrational energy     509922.3 (Joules/Mol)
                                  121.87434 (Kcal/Mol)
 Warning -- explicit consideration of  17 degrees of freedom as
           vibrations may cause significant error
 Vibrational temperatures:     91.75   107.46   194.51   220.49   264.62
          (Kelvin)            292.27   307.41   329.00   389.73   403.11
                              405.09   555.36   584.75   604.29   645.34
                              712.65   736.56   924.93   977.92  1006.02
                             1029.60  1094.32  1189.67  1242.70  1282.61
                             1289.13  1330.29  1379.79  1451.48  1484.81
                             1506.00  1603.15  1624.38  1680.55  1705.82
                             1761.15  1791.11  1891.68  1935.38  1969.00
                             1980.17  1999.93  2013.14  2075.03  2099.52
                             2111.48  2119.92  2121.38  2133.84  2142.21
                             2151.00  2163.13  2204.92  2363.85  4319.77
                             4335.50  4338.11  4343.90  4399.21  4416.56
                             4418.95  4453.63  4467.74  4474.82  4504.61
                             4510.93

 Zero-point correction=                           0.194219 (Hartree/Particle)
 Thermal correction to Energy=                    0.206344
 Thermal correction to Enthalpy=                  0.207288
 Thermal correction to Gibbs Free Energy=         0.155839
 Sum of electronic and zero-point Energies=           -538.830676
 Sum of electronic and thermal Energies=              -538.818552
 Sum of electronic and thermal Enthalpies=            -538.817607
 Sum of electronic and thermal Free Energies=         -538.869056

                     E (Thermal)             CV                S
                      KCal/Mol        Cal/Mol-Kelvin    Cal/Mol-Kelvin
 Total                  129.483             45.570            108.282
 Electronic               0.000              0.000              1.377
 Translational            0.889              2.981             41.194
 Rotational               0.889              2.981             30.750
 Vibrational            127.705             39.608             34.960
 Vibration     1          0.597              1.972              4.337
 Vibration     2          0.599              1.966              4.026
 Vibration     3          0.613              1.918              2.871
 Vibration     4          0.619              1.899              2.631
 Vibration     5          0.631              1.862              2.288
 Vibration     6          0.639              1.835              2.104
 Vibration     7          0.644              1.820              2.012
 Vibration     8          0.651              1.797              1.889
 Vibration     9          0.675              1.727              1.591
 Vibration    10          0.680              1.710              1.533
 Vibration    11          0.681              1.708              1.524
 Vibration    12          0.755              1.500              1.016
 Vibration    13          0.771              1.456              0.939
 Vibration    14          0.783              1.427              0.892
 Vibration    15          0.808              1.364              0.800
 Vibration    16          0.851              1.260              0.670
 Vibration    17          0.867              1.224              0.629

 Optimization completed.
    -- Stationary point found.
 Normal termination of Gaussian 16 at Sat Feb 10 11:05:39 2024.
