 Gaussian 16, Revision A.03,
 Gaussian 16:  ES64L-G16RevA.03 25-Dec-2016

 ----------------------------------------------------------------------
 #P UB3LYP/6-311++G(d,p) nosym opt freq SCRF=(PCM,Solvent=n,n-DiMethylF
 ormamide)
 ----------------------------------------------------------------------

 -------
 Reduced
 -------
 Symbolic Z-matrix:
 Charge = -2 Multiplicity = 1

 SCF Done:  E(UB3LYP) =  -571.948011791     A.U. after   14 cycles
 SCF Done:  E(UB3LYP) =  -571.948330097     A.U. after   11 cycles
 SCF Done:  E(UB3LYP) =  -571.948362199     A.U. after   11 cycles
 Optimization completed.
    -- Stationary point found.
 Normal termination of Gaussian 16 at Sun Feb 11 16:08:24 2024.

 ----------------------------------------------------------------------
 #P Geom=AllCheck Guess=TCheck SCRF=Check GenChk UB3LYP/6-311++G(d,p) F
 req
 ----------------------------------------------------------------------

 Structure from the checkpoint file:  "349-an.chk"
 -------
 Reduced
 -------
 Charge = -2 Multiplicity = 1

                          Input orientation:
 ---------------------------------------------------------------------
 Center     Atomic      Atomic             Coordinates (Angstroms)
 Number     Number       Type             X           Y           Z
 ---------------------------------------------------------------------
      1          6           0       -3.632485    0.199337    0.839134
      2          6           0       -3.660895   -0.173437   -0.496401
      3          6           0       -2.443863   -0.365652   -1.189848
      4          6           0       -1.187990   -0.190065   -0.578705
      5          7           0       -0.029741   -0.382653   -1.290826
      6          6           0        1.158300   -0.197923   -0.626915
      7          6           0        2.386776   -0.381748   -1.289018
      8          6           0        3.632479   -0.199337   -0.645362
      9          6           0        3.660897    0.173439    0.690175
     10          6           0        2.443864    0.365652    1.383622
     11          6           0        1.187992    0.190064    0.772471
     12          7           0        0.029740    0.382652    1.484589
     13          6           0       -1.158296    0.197927    0.820685
     14          6           0       -2.386772    0.381748    1.482785
     15          1           0       -4.554160    0.352288    1.393108
     16          1           0       -4.605416   -0.319263   -1.012555
     17          1           0       -2.457070   -0.656913   -2.238049
     18          1           0        2.355258   -0.672402   -2.337001
     19          1           0        4.554156   -0.352291   -1.199340
     20          1           0        4.605422    0.319262    1.206315
     21          1           0        2.457059    0.656914    2.431821
     22          1           0       -2.355253    0.672401    2.530769
 ---------------------------------------------------------------------

 SCF Done:  E(UB3LYP) =  -571.948362199     A.U. after    1 cycles

 Alpha  occ. eigenvalues --  -14.22780 -14.22778 -10.15967 -10.15966 -10.15930
 Alpha  occ. eigenvalues --  -10.15930 -10.13037 -10.13037 -10.12980 -10.12980
 Alpha  occ. eigenvalues --  -10.11990 -10.11990 -10.11986 -10.11986  -0.89490
 Alpha  occ. eigenvalues --   -0.82363  -0.80647  -0.77702  -0.70503  -0.70370
 Alpha  occ. eigenvalues --   -0.67539  -0.63355  -0.57964  -0.55337  -0.54746
 Alpha  occ. eigenvalues --   -0.51316  -0.49100  -0.44414  -0.43581  -0.42670
 Alpha  occ. eigenvalues --   -0.41216  -0.38789  -0.37759  -0.37613  -0.37397
 Alpha  occ. eigenvalues --   -0.34140  -0.33019  -0.32653  -0.31157  -0.30534
 Alpha  occ. eigenvalues --   -0.28325  -0.27717  -0.24056  -0.21718  -0.21392
 Alpha  occ. eigenvalues --   -0.19022  -0.16948  -0.08882
 Alpha virt. eigenvalues --    0.00324   0.00767   0.01523   0.01661   0.02361
 Alpha virt. eigenvalues --    0.02651   0.02737   0.03752   0.04665   0.04793
 Alpha virt. eigenvalues --    0.04822   0.06202   0.06880   0.07080   0.07131

  Beta  occ. eigenvalues --  -14.22780 -14.22778 -10.15967 -10.15966 -10.15930
  Beta  occ. eigenvalues --  -10.15930 -10.13037 -10.13037 -10.12980 -10.12980
  Beta  occ. eigenvalues --  -10.11990 -10.11990 -10.11986 -10.11986  -0.89490
  Beta  occ. eigenvalues --   -0.82363  -0.80647  -0.77702  -0.70503  -0.70370
  Beta  occ. eigenvalues --   -0.67539  -0.63355  -0.57964  -0.55337  -0.54746
  Beta  occ. eigenvalues --   -0.51316  -0.49100  -0.44414  -0.43581  -0.42670
  Beta  occ. eigenvalues --   -0.41216  -0.38789  -0.37759  -0.37613  -0.37397
  Beta  occ. eigenvalues --   -0.34140  -0.33019  -0.32653  -0.31157  -0.30534
  Beta  occ. eigenvalues --   -0.28325  -0.27717  -0.24056  -0.21718  -0.21392
  Beta  occ. eigenvalues --   -0.19022  -0.16948  -0.08882
  Beta virt. eigenvalues --    0.00324   0.00767   0.01523   0.01661   0.02361
  Beta virt. eigenvalues --    0.02651   0.02737   0.03752   0.04665   0.04793
  Beta virt. eigenvalues --    0.04822   0.06202   0.06880   0.07080   0.07131

 Mulliken charges and spin densities:
               1          2
     1  C   -0.357965  -0.000000
     2  C   -0.357701  -0.000000
     3  C   -0.310881  -0.000000
     4  C    0.098215  -0.000000
     5  N   -0.363356   0.000000
     6  C    0.097938   0.000000
     7  C   -0.310628   0.000000
     8  C   -0.357956  -0.000000
     9  C   -0.357708  -0.000000
    10  C   -0.310881  -0.000000
    11  C    0.098209   0.000000
    12  N   -0.363353  -0.000000
    13  C    0.097941   0.000000
    14  C   -0.310642   0.000000
    15  H    0.133833  -0.000000
    16  H    0.133812   0.000000
    17  H    0.118375  -0.000000
    18  H    0.118364   0.000000
    19  H    0.133833  -0.000000
    20  H    0.133813   0.000000
    21  H    0.118376  -0.000000
    22  H    0.118363   0.000000
 Sum of Mulliken charges =  -2.00000  -0.00000

 Dipole moment (field-independent basis, Debye):
    X=              0.0001    Y=             -0.0000    Z=             -0.9307  Tot=              0.9307
 Quadrupole moment (field-independent basis, Debye-Ang):
   XX=           -132.1461   YY=            -98.7702   ZZ=           -110.5372
   XY=              0.0375   XZ=              0.4342   YZ=             -3.4869

  Exact polarizability: 596.189  -0.795 165.487  -6.530  33.191 275.354
 Approx polarizability: 634.766  -0.750 177.246  -6.571  40.865 312.521

                      1                      2                      3
                      A                      A                      A
 Frequencies --     69.6923                87.4362               214.6246
 Red. masses --      6.4758                 3.8660                 7.0163
 Frc consts  --      0.0185                 0.0174                 0.1904
 IR Inten    --      9.9883                 0.1094                 0.0000

                      4                      5                      6
                      A                      A                      A
 Frequencies --    249.4017               253.9376               256.0809
 Red. masses --      4.7385                 4.6538                 5.2010
 Frc consts  --      0.1737                 0.1768                 0.2010
 IR Inten    --     16.7747                 0.0000                 2.2459

                      7                      8                      9
                      A                      A                      A
 Frequencies --    411.4067               439.0221               444.0759
 Red. masses --      6.7461                 3.5122                 4.9551
 Frc consts  --      0.6727                 0.3988                 0.5757
 IR Inten    --      0.0000                 0.0000                 0.0000

                     10                     11                     12
                      A                      A                      A
 Frequencies --    461.8720               546.1348               547.8970
 Red. masses --      3.2155                 5.2713                 8.4390
 Frc consts  --      0.4042                 0.9263                 1.4926
 IR Inten    --      0.3091                 0.0759                 0.0000

                     13                     14                     15
                      A                      A                      A
 Frequencies --    563.1372               597.5756               611.2110
 Red. masses --      5.2588                 9.2404                 7.1419
 Frc consts  --      0.9826                 1.9441                 1.5720
 IR Inten    --      0.0000                 0.0000                16.0030

                     16                     17                     18
                      A                      A                      A
 Frequencies --    669.0140               677.8701               686.7816
 Red. masses --      5.9979                 6.0015                 1.2383
 Frc consts  --      1.5817                 1.6248                 0.3441
 IR Inten    --     10.8807                 0.8164               384.0553

                     19                     20                     21
                      A                      A                      A
 Frequencies --    689.7045               717.7046               742.4105
 Red. masses --      1.2325                 6.6633                 2.6523
 Frc consts  --      0.3454                 2.0222                 0.8613
 IR Inten    --      0.0002                 0.0000                 0.0000

                     22                     23                     24
                      A                      A                      A
 Frequencies --    770.5154               778.7792               813.7314
 Red. masses --      1.3492                 1.8859                 1.3408
 Frc consts  --      0.4719                 0.6739                 0.5231
 IR Inten    --      0.1642                 0.0000                 0.0000

                     25                     26                     27
                      A                      A                      A
 Frequencies --    816.4679               819.9120               867.3490
 Red. masses --      1.4055                 5.9938                 1.1589
 Frc consts  --      0.5520                 2.3740                 0.5137
 IR Inten    --    110.0999               365.5516                 0.0000

                     28                     29                     30
                      A                      A                      A
 Frequencies --    867.5602               882.7763               891.3097
 Red. masses --      1.1407                 6.0950                 5.5190
 Frc consts  --      0.5058                 2.7985                 2.5833
 IR Inten    --      0.4363                55.4375                 0.0000

                     31                     32                     33
                      A                      A                      A
 Frequencies --   1034.8612              1041.9089              1078.8350
 Red. masses --      2.3284                 1.8711                 1.9369
 Frc consts  --      1.4692                 1.1968                 1.3282
 IR Inten    --      0.0000               127.6961                 0.0000

                     34                     35                     36
                      A                      A                      A
 Frequencies --   1103.5351              1146.2896              1151.3469
 Red. masses --      1.4711                 1.0943                 1.0699
 Frc consts  --      1.0555                 0.8472                 0.8356
 IR Inten    --     88.7956                 0.0403                 0.0000

                     37                     38                     39
                      A                      A                      A
 Frequencies --   1205.6528              1214.6999              1229.4642
 Red. masses --      3.2096                 2.1292                 9.5539
 Frc consts  --      2.7488                 1.8510                 8.5087
 IR Inten    --      0.0000                 0.0000                20.3177

                     40                     41                     42
                      A                      A                      A
 Frequencies --   1278.2382              1285.6816              1291.7451
 Red. masses --      4.5215                 1.5765                12.0034
 Frc consts  --      4.3527                 1.5354                11.8007
 IR Inten    --      0.0003                 2.6532              2695.4454

                     43                     44                     45
                      A                      A                      A
 Frequencies --   1349.7352              1369.1096              1407.5423
 Red. masses --      3.4980                 5.9560                 1.8114
 Frc consts  --      3.7546                 6.5778                 2.1144
 IR Inten    --   1464.2232                 0.0000                 0.0000

                     46                     47                     48
                      A                      A                      A
 Frequencies --   1450.5667              1452.0434              1490.5057
 Red. masses --      2.1935                 4.1867                 3.5220
 Frc consts  --      2.7194                 5.2010                 4.6101
 IR Inten    --     11.7324              1521.2893                 0.0000

                     49                     50                     51
                      A                      A                      A
 Frequencies --   1503.8815              1553.6945              1577.5180
 Red. masses --      3.7877                 4.2994                 5.7601
 Frc consts  --      5.0472                 6.1149                 8.4456
 IR Inten    --      0.0000               264.0670                 0.0000

                     52                     53                     54
                      A                      A                      A
 Frequencies --   1590.1863              3113.9045              3114.4408
 Red. masses --      6.2895                 1.0835                 1.0841
 Frc consts  --      9.3704                 6.1902                 6.1957
 IR Inten    --    259.6988                 0.0062               180.6227

                     55                     56                     57
                      A                      A                      A
 Frequencies --   3117.9802              3118.2123              3135.3699
 Red. masses --      1.0860                 1.0860                 1.0883
 Frc consts  --      6.2208                 6.2213                 6.3033
 IR Inten    --     26.6507                 0.0314                 0.0079

                     58                     59                     60
                      A                      A                      A
 Frequencies --   3135.6436              3155.4459              3155.9775
 Red. masses --      1.0885                 1.0966                 1.0963
 Frc consts  --      6.3055                 6.4333                 6.4335
 IR Inten    --    194.5265               254.1237                 0.0069

 - Thermochemistry -
 -------------------
 Temperature   298.150 Kelvin.  Pressure   1.00000 Atm.
 Atom     1 has atomic number  6 and mass  12.00000

 Molecular mass:   180.06875 amu.
 Principal axes and moments of inertia in atomic units:
                           1         2         3
     Eigenvalues --   821.038653902.341604723.37644
           X            0.99978   0.02066  -0.00213
           Y           -0.00348   0.26800   0.96341
           Z           -0.02047   0.96320  -0.26801
 This molecule is an asymmetric top.
 Rotational symmetry number  1.
 Warning -- assumption of classical behavior for rotation
           may cause significant error
 Rotational temperatures (Kelvin)      0.10549     0.02220     0.01834
 Rotational constants (GHZ):           2.19812     0.46248     0.38209
 Zero-point vibrational energy     426465.2 (Joules/Mol)
                                  101.92762 (Kcal/Mol)
 Warning -- explicit consideration of  15 degrees of freedom as
           vibrations may cause significant error
 Vibrational temperatures:    100.27   125.80   308.80   358.83   365.36
          (Kelvin)            368.44   591.92   631.65   638.93   664.53
                              785.77   788.30   810.23   859.78   879.40
                              962.56   975.30   988.13   992.33  1032.62
                             1068.16  1108.60  1120.49  1170.78  1174.72
                             1179.67  1247.92  1248.23  1270.12  1282.40
                             1488.93  1499.07  1552.20  1587.74  1649.26
                             1656.53  1734.67  1747.68  1768.92  1839.10
                             1849.81  1858.53  1941.97  1969.84  2025.14
                             2087.04  2089.17  2144.51  2163.75  2235.42
                             2269.70  2287.92  4480.21  4480.99  4486.08
                             4486.41  4511.10  4511.49  4539.98  4540.75

 Zero-point correction=                           0.162432 (Hartree/Particle)
 Thermal correction to Energy=                    0.172387
 Thermal correction to Enthalpy=                  0.173331
 Thermal correction to Gibbs Free Energy=         0.126933
 Sum of electronic and zero-point Energies=           -571.785930
 Sum of electronic and thermal Energies=              -571.775975
 Sum of electronic and thermal Enthalpies=            -571.775031
 Sum of electronic and thermal Free Energies=         -571.821429

                     E (Thermal)             CV                S
                      KCal/Mol        Cal/Mol-Kelvin    Cal/Mol-Kelvin
 Total                  108.174             41.994             97.652
 Electronic               0.000              0.000              0.000
 Translational            0.889              2.981             41.471
 Rotational               0.889              2.981             31.093
 Vibrational            106.397             36.033             25.088
 Vibration     1          0.598              1.969              4.162
 Vibration     2          0.601              1.958              3.717
 Vibration     3          0.645              1.819              2.004
 Vibration     4          0.662              1.764              1.735
 Vibration     5          0.665              1.756              1.703
 Vibration     6          0.666              1.753              1.688
 Vibration     7          0.775              1.445              0.922
 Vibration     8          0.799              1.385              0.830
 Vibration     9          0.804              1.374              0.814
 Vibration    10          0.820              1.335              0.761
 Vibration    11          0.901              1.148              0.552
 Vibration    12          0.903              1.144              0.549
 Vibration    13          0.919              1.111              0.518
 Vibration    14          0.955              1.037              0.454
 Vibration    15          0.970              1.008              0.431

 Optimization completed.
    -- Stationary point found.
 Normal termination of Gaussian 16 at Sun Feb 11 16:25:01 2024.
