 Q-Chem 5.4, Q-Chem, Inc., Pleasanton, CA (2021)
 Q-Chem 5.4.0 for Intel X86 EM64T Linux

User input:
--------------------------------------------------------------
$molecule
0 1
C                 -1.5146050000     -0.0482520000      1.5555800000
C                 -2.4347820000      1.1514310000      1.1947260000
C                 -2.2224530000      1.8253920000      0.0136650000
C                 -1.1742120000      1.4525550000     -0.8878540000
C                 -0.2540760000      0.2528330000     -0.5270310000
C                 -0.4663740000     -0.4210990000      0.6540560000
O                 -0.9379100000      2.0232700000     -1.9473410000
O                 -1.7508520000     -0.6189280000      2.6151020000
Br                 0.5670070000     -1.9251400000      1.2555940000
Br                -3.2557740000      3.3295000000     -0.5878020000
N                  0.6365650000      0.0753030000     -1.5037400000
N                 -3.3254750000      1.3289470000      2.1713920000
C                 -4.4729220000      2.2275640000      2.3412150000
C                 -5.7463710000      1.6327000000      1.7121460000
C                 -6.9631180000      2.5338650000      1.9673790000
C                 -7.1612600000      2.8069150000      3.4644240000
C                 -5.8887030000      3.3858070000      4.0975320000
C                 -4.6678860000      2.4900110000      3.8423430000
C                  1.7839150000     -0.8234100000     -1.6737110000
C                  3.0575710000     -0.2284930000     -1.0451080000
C                  1.9784480000     -1.0861610000     -3.1748410000
C                  3.1991480000     -1.9820710000     -3.4301890000
C                  4.2742030000     -1.1297670000     -1.3005040000
C                  4.4719120000     -1.4031200000     -2.7975500000
H                  0.5091930000      0.7836680000     -2.2286740000
H                 -3.1981990000      0.6205170000      2.8962790000
H                 -4.2438380000      3.1709570000      1.8487320000
H                 -5.9211510000      0.6395570000      2.1450770000
H                 -5.5898580000      1.4928860000      0.6393460000
H                 -7.8585970000      2.0712380000      1.5414760000
H                 -6.8246740000      3.4854370000      1.4387190000
H                 -7.4246180000      1.8700690000      3.9721070000
H                 -8.0019640000      3.4909220000      3.6166650000
H                 -6.0247740000      3.5212950000      5.1747280000
H                 -5.6973080000      4.3829070000      3.6813430000
H                 -4.8060610000      1.5302130000      4.3589370000
H                 -3.7630330000      2.9464590000      4.2548220000
H                  1.5549110000     -1.7666900000     -1.1809790000
H                  2.9013550000     -0.0884660000      0.0277070000
H                  3.2322860000      0.7645590000     -1.4782750000
H                  2.1165300000     -0.1264730000     -3.6916640000
H                  1.0734570000     -1.5426410000     -3.5869790000
H                  3.3349130000     -2.1177830000     -4.5073950000
H                  3.0078170000     -2.9790780000     -3.0137470000
H                  4.1358610000     -2.0812280000     -0.7716190000
H                  5.1698240000     -0.6671010000     -0.8749430000
H                  5.3125390000     -2.0871990000     -2.9498940000
H                  4.7351740000     -0.4663870000     -3.3054910000
$end

$rem
BASIS  =  6-311++G(d,p)
GUI  =  2
JOB_TYPE  =  SP
METHOD  =  B3LYP
SCF_CONVERGENCE  = 8
SOLVENT_METHOD = sm12
$end

$smx
solvent dimethylformamide
charges CM5
$end

--------------------------------------------------------------

             Standard Nuclear Orientation (Angstroms)
    I     Atom           X                Y                Z
 ----------------------------------------------------------------
    1      C      -1.5146050000    -0.0482520000     1.5555800000
    2      C      -2.4347820000     1.1514310000     1.1947260000
    3      C      -2.2224530000     1.8253920000     0.0136650000
    4      C      -1.1742120000     1.4525550000    -0.8878540000
    5      C      -0.2540760000     0.2528330000    -0.5270310000
    6      C      -0.4663740000    -0.4210990000     0.6540560000
    7      O      -0.9379100000     2.0232700000    -1.9473410000
    8      O      -1.7508520000    -0.6189280000     2.6151020000
    9      Br      0.5670070000    -1.9251400000     1.2555940000
   10      Br     -3.2557740000     3.3295000000    -0.5878020000
   11      N       0.6365650000     0.0753030000    -1.5037400000
   12      N      -3.3254750000     1.3289470000     2.1713920000
   13      C      -4.4729220000     2.2275640000     2.3412150000
   14      C      -5.7463710000     1.6327000000     1.7121460000
   15      C      -6.9631180000     2.5338650000     1.9673790000
   16      C      -7.1612600000     2.8069150000     3.4644240000
   17      C      -5.8887030000     3.3858070000     4.0975320000
   18      C      -4.6678860000     2.4900110000     3.8423430000
   19      C       1.7839150000    -0.8234100000    -1.6737110000
   20      C       3.0575710000    -0.2284930000    -1.0451080000
   21      C       1.9784480000    -1.0861610000    -3.1748410000
   22      C       3.1991480000    -1.9820710000    -3.4301890000
   23      C       4.2742030000    -1.1297670000    -1.3005040000
   24      C       4.4719120000    -1.4031200000    -2.7975500000
   25      H       0.5091930000     0.7836680000    -2.2286740000
   26      H      -3.1981990000     0.6205170000     2.8962790000
   27      H      -4.2438380000     3.1709570000     1.8487320000
   28      H      -5.9211510000     0.6395570000     2.1450770000
   29      H      -5.5898580000     1.4928860000     0.6393460000
   30      H      -7.8585970000     2.0712380000     1.5414760000
   31      H      -6.8246740000     3.4854370000     1.4387190000
   32      H      -7.4246180000     1.8700690000     3.9721070000
   33      H      -8.0019640000     3.4909220000     3.6166650000
   34      H      -6.0247740000     3.5212950000     5.1747280000
   35      H      -5.6973080000     4.3829070000     3.6813430000
   36      H      -4.8060610000     1.5302130000     4.3589370000
   37      H      -3.7630330000     2.9464590000     4.2548220000
   38      H       1.5549110000    -1.7666900000    -1.1809790000
   39      H       2.9013550000    -0.0884660000     0.0277070000
   40      H       3.2322860000     0.7645590000    -1.4782750000
   41      H       2.1165300000    -0.1264730000    -3.6916640000
   42      H       1.0734570000    -1.5426410000    -3.5869790000
   43      H       3.3349130000    -2.1177830000    -4.5073950000
   44      H       3.0078170000    -2.9790780000    -3.0137470000
   45      H       4.1358610000    -2.0812280000    -0.7716190000
   46      H       5.1698240000    -0.6671010000    -0.8749430000
   47      H       5.3125390000    -2.0871990000    -2.9498940000
   48      H       4.7351740000    -0.4663870000    -3.3054910000
 ----------------------------------------------------------------

   15   -6108.8829720088      3.75e-09  Convergence criterion met
 Total energy in the final basis set =    -6108.9068342178

                    Orbital Energies (a.u.)
 --------------------------------------------------------------

 Alpha MOs
 -- Occupied --
********-482.8322 -62.4851 -62.4851 -56.3057 -56.3057 -56.3017 -56.3017
-56.3015 -56.3015 -19.1246 -19.1246 -14.3654 -14.3654 -10.2836 -10.2836
-10.2674 -10.2674 -10.2310 -10.2310 -10.2208 -10.2208 -10.1741 -10.1741
-10.1720 -10.1720 -10.1678 -10.1678 -10.1673 -10.1673 -10.1645 -10.1645
 -8.6940  -8.6940  -6.5257  -6.5257  -6.5124  -6.5124  -6.5120  -6.5120
 -2.6365  -2.6365  -2.6328  -2.6328  -2.6326  -2.6326  -2.6219  -2.6219
 -2.6219  -2.6219  -1.0679  -1.0651  -0.9741  -0.9736  -0.8643  -0.8434
 -0.8334  -0.8231  -0.7850  -0.7674  -0.7504  -0.7499  -0.7468  -0.7173
 -0.6871  -0.6467  -0.6306  -0.6279  -0.6194  -0.6127  -0.5793  -0.5774
 -0.5651  -0.5475  -0.5368  -0.5347  -0.4990  -0.4855  -0.4706  -0.4689
 -0.4624  -0.4532  -0.4505  -0.4475  -0.4459  -0.4428  -0.4398  -0.4264
 -0.4257  -0.4126  -0.4063  -0.4061  -0.3986  -0.3870  -0.3865  -0.3848
 -0.3709  -0.3648  -0.3580  -0.3522  -0.3513  -0.3442  -0.3291  -0.3287
 -0.3230  -0.3216  -0.3200  -0.3194  -0.3038  -0.3004  -0.2966  -0.2947
 -0.2868  -0.2778  -0.2463  -0.2201

          Ground-State Mulliken Net Atomic Charges

     Atom                 Charge (a.u.)
  ----------------------------------------
      1 C                    -0.357991
      2 C                     0.224181
      3 C                    -0.504037
      4 C                    -0.357863
      5 C                     0.223973
      6 C                    -0.504057
      7 O                    -0.254693
      8 O                    -0.254695
      9 Br                   -0.113224
     10 Br                   -0.113186
     11 N                     0.339104
     12 N                     0.338998
     13 C                    -0.463205
     14 C                    -0.036711
     15 C                    -0.229905
     16 C                    -0.350044
     17 C                    -0.255112
     18 C                     0.066056
     19 C                    -0.463250
     20 C                    -0.036711
     21 C                     0.066104
     22 C                    -0.255080
     23 C                    -0.229804
     24 C                    -0.350080
     25 H                     0.331548
     26 H                     0.331556
     27 H                     0.031173
     28 H                     0.138610
     29 H                     0.108754
     30 H                     0.195744
     31 H                     0.123782
     32 H                     0.110105
     33 H                     0.197375
     34 H                     0.229298
     35 H                     0.124294
     36 H                     0.142392
     37 H                     0.202551
     38 H                     0.031102
     39 H                     0.108792
     40 H                     0.138612
     41 H                     0.142395
     42 H                     0.202547
     43 H                     0.229289
     44 H                     0.124298
     45 H                     0.123781
     46 H                     0.195749
     47 H                     0.197375
     48 H                     0.110109
  ----------------------------------------
  Sum of atomic charges =     0.000000

                    Cartesian Multipole Moments
 -----------------------------------------------------------------
    Charge (ESU x 10^10)
                 0.0000
    Dipole Moment (Debye)
         X      -0.0005      Y      -0.0004      Z      -0.0006
       Tot       0.0009
    Quadrupole Moments (Debye-Ang)
        XX    -142.3234     XY     -10.0342     YY    -174.8514
        XZ     -20.3524     YZ      17.8171     ZZ    -167.7602

 Total job time:  2716.26s(wall), 19441.49s(cpu)
        *  Thank you very much for using Q-Chem.  Have a nice day.  *
