 Gaussian 16, Revision A.03,
 Gaussian 16:  ES64L-G16RevA.03 25-Dec-2016

 --------------------------------------
 #P UB3LYP/6-311++G(d,p) nosym opt freq
 --------------------------------------

 --------
 Oxidized
 --------
 Symbolic Z-matrix:
 Charge =  0 Multiplicity = 1

 SCF Done:  E(UB3LYP) =  -839.022531879     A.U. after   16 cycles
 SCF Done:  E(UB3LYP) =  -839.028739906     A.U. after   14 cycles
 SCF Done:  E(UB3LYP) =  -839.030919910     A.U. after   14 cycles
 SCF Done:  E(UB3LYP) =  -839.032784723     A.U. after   13 cycles
 SCF Done:  E(UB3LYP) =  -839.033280830     A.U. after   13 cycles
 SCF Done:  E(UB3LYP) =  -839.033842464     A.U. after   12 cycles
 SCF Done:  E(UB3LYP) =  -839.033984317     A.U. after   13 cycles
 SCF Done:  E(UB3LYP) =  -839.034168495     A.U. after   12 cycles
 SCF Done:  E(UB3LYP) =  -839.034259886     A.U. after   12 cycles
 SCF Done:  E(UB3LYP) =  -839.034294025     A.U. after   11 cycles
 SCF Done:  E(UB3LYP) =  -839.034302369     A.U. after   11 cycles
 SCF Done:  E(UB3LYP) =  -839.034305697     A.U. after   10 cycles
 SCF Done:  E(UB3LYP) =  -839.034308076     A.U. after   10 cycles
 SCF Done:  E(UB3LYP) =  -839.034308606     A.U. after    9 cycles
 SCF Done:  E(UB3LYP) =  -839.034309070     A.U. after    9 cycles
 SCF Done:  E(UB3LYP) =  -839.034309366     A.U. after    9 cycles
 SCF Done:  E(UB3LYP) =  -839.034309564     A.U. after    9 cycles
 SCF Done:  E(UB3LYP) =  -839.034309744     A.U. after    9 cycles
 SCF Done:  E(UB3LYP) =  -839.034309819     A.U. after    9 cycles
 Optimization completed.
    -- Stationary point found.
 Normal termination of Gaussian 16 at Thu Dec 21 08:11:29 2023.

 ----------------------------------------------------------------------
 #P Geom=AllCheck Guess=TCheck SCRF=Check GenChk UB3LYP/6-311++G(d,p) F
 req
 ----------------------------------------------------------------------

 Structure from the checkpoint file:  "156.chk"
 --------
 Oxidized
 --------
 Charge =  0 Multiplicity = 1

                          Input orientation:
 ---------------------------------------------------------------------
 Center     Atomic      Atomic             Coordinates (Angstroms)
 Number     Number       Type             X           Y           Z
 ---------------------------------------------------------------------
      1          6           0       -1.840943    1.908761   -5.158067
      2          6           0       -1.758751    0.583444   -5.561099
      3          6           0       -1.348219   -0.400879   -4.654522
      4          6           0       -1.514179    2.266688   -3.843747
      5          6           0       -1.103348    1.281111   -2.935340
      6          6           0       -1.022798   -0.054499   -3.350681
      7          6           0       -1.605083    3.689972   -3.433900
      8          6           0       -0.753225    1.628025   -1.534826
      9          6           0       -1.256644    4.040880   -2.053010
     10          6           0       -0.844237    3.026567   -1.116943
     11          6           0       -1.341662    5.392625   -1.644249
     12          6           0       -1.022322    5.706329   -0.296268
     13          6           0       -0.634397    4.750300    0.597412
     14          6           0       -0.525769    3.379234    0.224539
     15          8           0       -1.972013    4.534825   -4.265325
     16          8           0       -0.397172    0.718328   -0.764709
     17          7           0       -1.694117    6.408557   -2.481228
     18          7           0       -0.129402    2.460021    1.143634
     19          6           0        0.205733    2.754733    2.519759
     20          1           0       -2.154780    2.688460   -5.840419
     21          1           0       -2.012523    0.310546   -6.579346
     22          1           0       -1.284257   -1.436011   -4.971051
     23          1           0       -0.703192   -0.798116   -2.631827
     24          1           0       -1.087617    6.741766    0.023641
     25          1           0       -0.402081    5.044112    1.612451
     26          1           0       -1.991058    6.164901   -3.419086
     27          1           0       -1.856572    7.326919   -2.105494
     28          1           0       -0.080342    1.507050    0.792195
     29          1           0       -0.640634    3.181862    3.071268
     30          1           0        1.053680    3.445444    2.601898
     31          1           0        0.486074    1.821614    3.007821
 ---------------------------------------------------------------------

 SCF Done:  E(UB3LYP) =  -839.034309819     A.U. after    1 cycles

 Alpha  occ. eigenvalues --  -19.10631 -19.10570 -14.33476 -14.32978 -10.25990
 Alpha  occ. eigenvalues --  -10.25882 -10.23780 -10.23656 -10.21446 -10.19863
 Alpha  occ. eigenvalues --  -10.19692 -10.19228 -10.19182 -10.19176 -10.19114
 Alpha  occ. eigenvalues --  -10.18757 -10.18702 -10.18320 -10.18294  -1.03947
 Alpha  occ. eigenvalues --   -1.03704  -0.95289  -0.93715  -0.87583  -0.85078
 Alpha  occ. eigenvalues --   -0.80253  -0.76479  -0.76367  -0.75422  -0.70087
 Alpha  occ. eigenvalues --   -0.68027  -0.65495  -0.64063  -0.60614  -0.58455
 Alpha  occ. eigenvalues --   -0.56790  -0.54759  -0.53574  -0.52222  -0.49715
 Alpha  occ. eigenvalues --   -0.48871  -0.48071  -0.47434  -0.46097  -0.45476
 Alpha  occ. eigenvalues --   -0.43833  -0.43700  -0.43626  -0.43356  -0.42682
 Alpha  occ. eigenvalues --   -0.40779  -0.40304  -0.40106  -0.39400  -0.38666
 Alpha  occ. eigenvalues --   -0.36794  -0.35918  -0.35465  -0.34739  -0.28147
 Alpha  occ. eigenvalues --   -0.27767  -0.26700  -0.26408  -0.26266  -0.25673
 Alpha  occ. eigenvalues --   -0.19414
 Alpha virt. eigenvalues --   -0.10176  -0.05251  -0.02883  -0.01604  -0.00584
 Alpha virt. eigenvalues --   -0.00043   0.00021   0.01191   0.01934   0.02371
 Alpha virt. eigenvalues --    0.02679   0.03097   0.03966   0.04316   0.05082

  Beta  occ. eigenvalues --  -19.10631 -19.10570 -14.33476 -14.32978 -10.25990
  Beta  occ. eigenvalues --  -10.25882 -10.23780 -10.23656 -10.21446 -10.19863
  Beta  occ. eigenvalues --  -10.19692 -10.19228 -10.19182 -10.19176 -10.19114
  Beta  occ. eigenvalues --  -10.18757 -10.18702 -10.18320 -10.18294  -1.03947
  Beta  occ. eigenvalues --   -1.03704  -0.95289  -0.93715  -0.87583  -0.85078
  Beta  occ. eigenvalues --   -0.80253  -0.76479  -0.76367  -0.75422  -0.70087
  Beta  occ. eigenvalues --   -0.68027  -0.65495  -0.64063  -0.60614  -0.58455
  Beta  occ. eigenvalues --   -0.56790  -0.54759  -0.53574  -0.52222  -0.49715
  Beta  occ. eigenvalues --   -0.48871  -0.48071  -0.47434  -0.46097  -0.45476
  Beta  occ. eigenvalues --   -0.43833  -0.43700  -0.43626  -0.43356  -0.42682
  Beta  occ. eigenvalues --   -0.40779  -0.40304  -0.40106  -0.39400  -0.38666
  Beta  occ. eigenvalues --   -0.36794  -0.35918  -0.35465  -0.34739  -0.28147
  Beta  occ. eigenvalues --   -0.27767  -0.26700  -0.26408  -0.26266  -0.25673
  Beta  occ. eigenvalues --   -0.19414
  Beta virt. eigenvalues --   -0.10176  -0.05251  -0.02883  -0.01604  -0.00584
  Beta virt. eigenvalues --   -0.00043   0.00021   0.01191   0.01934   0.02371
  Beta virt. eigenvalues --    0.02679   0.03097   0.03966   0.04316   0.05082

 Mulliken charges and spin densities:
               1          2
     1  C    0.145379  -0.000000
     2  C   -0.526723  -0.000000
     3  C   -0.496335  -0.000000
     4  C    0.149412  -0.000000
     5  C    0.219430  -0.000000
     6  C    0.068403  -0.000000
     7  C   -0.419564   0.000000
     8  C   -0.221416   0.000000
     9  C    0.621163  -0.000000
    10  C    0.244433  -0.000000
    11  C    0.111165   0.000000
    12  C   -0.341790   0.000000
    13  C   -0.174484   0.000000
    14  C   -0.296909  -0.000000
    15  O   -0.276197  -0.000000
    16  O   -0.282626  -0.000000
    17  N   -0.401821  -0.000000
    18  N   -0.260092   0.000000
    19  C   -0.344276  -0.000000
    20  H    0.186640  -0.000000
    21  H    0.166307  -0.000000
    22  H    0.168616  -0.000000
    23  H    0.179675   0.000000
    24  H    0.157760  -0.000000
    25  H    0.172251  -0.000000
    26  H    0.326834  -0.000000
    27  H    0.257178   0.000000
    28  H    0.398852   0.000000
    29  H    0.154930   0.000000
    30  H    0.154941   0.000000
    31  H    0.158863  -0.000000
 Sum of Mulliken charges =  -0.00000   0.00000

 Dipole moment (field-independent basis, Debye):
    X=              0.1898    Y=              1.8846    Z=              2.6884  Tot=              3.2886
 Quadrupole moment (field-independent basis, Debye-Ang):
   XX=           -114.3979   YY=            -85.4942   ZZ=           -105.5218
   XY=             -1.9379   XZ=              0.7757   YZ=             16.7378

  Exact polarizability: 114.592 -11.418 271.362  46.599  48.783 290.159
 Approx polarizability: 187.720 -29.453 477.519  79.824  59.177 473.741

                      1                      2                      3
                      A                      A                      A
 Frequencies --     42.1443                64.2792                91.0538
 Red. masses --      5.5670                 4.4220                 4.4058
 Frc consts  --      0.0058                 0.0108                 0.0215
 IR Inten    --      8.4249                 0.7772                 0.6119

                      4                      5                      6
                      A                      A                      A
 Frequencies --    121.7187               133.4033               172.8664
 Red. masses --      3.7675                 5.1207                 4.3747
 Frc consts  --      0.0329                 0.0537                 0.0770
 IR Inten    --      7.5328                 0.2022                12.9658

                      7                      8                      9
                      A                      A                      A
 Frequencies --    180.3060               195.6458               228.8405
 Red. masses --      3.7688                 1.2159                 1.4968
 Frc consts  --      0.0722                 0.0274                 0.0462
 IR Inten    --      0.4314                14.9329                88.8892

                     10                     11                     12
                      A                      A                      A
 Frequencies --    252.3241               260.6611               326.9775
 Red. masses --      4.0728                 3.0310                 5.0547
 Frc consts  --      0.1528                 0.1213                 0.3184
 IR Inten    --      4.1693                57.8246                 3.0933

                     13                     14                     15
                      A                      A                      A
 Frequencies --    342.6033               352.5118               392.5228
 Red. masses --      5.2670                 4.4456                10.8952
 Frc consts  --      0.3642                 0.3255                 0.9890
 IR Inten    --      5.1095                 2.3640                 0.8325

                     16                     17                     18
                      A                      A                      A
 Frequencies --    417.7241               430.8744               433.9339
 Red. masses --      4.8989                 3.3648                 6.1141
 Frc consts  --      0.5036                 0.3681                 0.6783
 IR Inten    --      0.0954                 1.4713                 0.0774

                     19                     20                     21
                      A                      A                      A
 Frequencies --    442.6829               451.8219               496.9617
 Red. masses --     11.1673                 6.2380                 5.7178
 Frc consts  --      1.2894                 0.7503                 0.8320
 IR Inten    --     12.8918                27.1922                 2.2585

                     22                     23                     24
                      A                      A                      A
 Frequencies --    499.6426               555.9202               578.8117
 Red. masses --      4.8242                 5.9127                 2.4379
 Frc consts  --      0.7096                 1.0766                 0.4812
 IR Inten    --      0.2213                 5.2528                46.4977

                     25                     26                     27
                      A                      A                      A
 Frequencies --    629.5899               654.3638               664.9096
 Red. masses --      4.7006                 1.3587                 1.3604
 Frc consts  --      1.0978                 0.3428                 0.3544
 IR Inten    --      0.6543                 2.5392                40.9524

                     28                     29                     30
                      A                      A                      A
 Frequencies --    670.4690               679.1722               721.1413
 Red. masses --      6.2755                 2.0334                 5.7646
 Frc consts  --      1.6621                 0.5526                 1.7663
 IR Inten    --     10.3867                 6.8062                 2.5537

                     31                     32                     33
                      A                      A                      A
 Frequencies --    738.5939               745.8545               766.0247
 Red. masses --      5.9936                 1.8343                 5.9744
 Frc consts  --      1.9264                 0.6012                 2.0655
 IR Inten    --      0.9568                78.0360                 1.8935

                     34                     35                     36
                      A                      A                      A
 Frequencies --    806.3852               815.8179               831.3934
 Red. masses --      5.3226                 2.2406                 1.8344
 Frc consts  --      2.0392                 0.8786                 0.7470
 IR Inten    --      0.7002                16.5366                21.7592

                     37                     38                     39
                      A                      A                      A
 Frequencies --    866.9770               905.0897               911.2196
 Red. masses --      6.6883                 7.2003                 1.4042
 Frc consts  --      2.9620                 3.4752                 0.6870
 IR Inten    --      5.7407                10.6893                 0.0038

                     40                     41                     42
                      A                      A                      A
 Frequencies --    956.6846               957.6299              1000.4757
 Red. masses --      1.3686                 4.3579                 1.3775
 Frc consts  --      0.7380                 2.3547                 0.8123
 IR Inten    --      0.8411                12.4461                 1.7457

                     43                     44                     45
                      A                      A                      A
 Frequencies --   1013.6085              1030.4725              1057.4815
 Red. masses --      1.3137                 2.7835                 1.8448
 Frc consts  --      0.7952                 1.7415                 1.2154
 IR Inten    --      0.0000                96.1217                 0.1534

                     46                     47                     48
                      A                      A                      A
 Frequencies --   1100.4265              1114.5805              1129.8597
 Red. masses --      2.2690                 2.3294                 1.8390
 Frc consts  --      1.6188                 1.7050                 1.3832
 IR Inten    --     17.2376                 5.0092                29.0092

                     49                     50                     51
                      A                      A                      A
 Frequencies --   1142.4557              1173.2678              1185.1257
 Red. masses --      1.2739                 1.6517                 1.4736
 Frc consts  --      0.9796                 1.3396                 1.2194
 IR Inten    --      0.2030                 1.4499                12.3101

                     52                     53                     54
                      A                      A                      A
 Frequencies --   1195.8028              1206.4188              1261.9581
 Red. masses --      2.2691                 1.2642                 1.8181
 Frc consts  --      1.9117                 1.0841                 1.7059
 IR Inten    --      2.5539               152.2609                 7.7583

                     55                     56                     57
                      A                      A                      A
 Frequencies --   1281.8524              1301.9148              1327.4566
 Red. masses --      5.2493                 2.4089                 2.1777
 Frc consts  --      5.0820                 2.4057                 2.2609
 IR Inten    --    743.2515                50.5739                56.8823

                     58                     59                     60
                      A                      A                      A
 Frequencies --   1350.1357              1358.2900              1396.4432
 Red. masses --      3.6692                 7.7053                 3.7927
 Frc consts  --      3.9408                 8.3758                 4.3576
 IR Inten    --     67.3460                 4.4181                57.9786

                     61                     62                     63
                      A                      A                      A
 Frequencies --   1430.5682              1455.2644              1471.5892
 Red. masses --      3.7083                 2.5911                 1.4263
 Frc consts  --      4.4714                 3.2331                 1.8199
 IR Inten    --     26.1874                17.4641                22.1564

                     64                     65                     66
                      A                      A                      A
 Frequencies --   1484.4449              1489.8402              1506.4185
 Red. masses --      2.5288                 1.0403                 2.5739
 Frc consts  --      3.2832                 1.3605                 3.4413
 IR Inten    --      5.2193                 8.8090                 0.3031

                     67                     68                     69
                      A                      A                      A
 Frequencies --   1513.9591              1543.2595              1571.7204
 Red. masses --      1.1309                 2.3676                 4.1165
 Frc consts  --      1.5272                 3.3222                 5.9914
 IR Inten    --     15.5654                30.8629               249.8460

                     70                     71                     72
                      A                      A                      A
 Frequencies --   1601.2178              1605.8285              1622.7502
 Red. masses --      2.0470                 4.2032                 4.9900
 Frc consts  --      3.0922                 6.3860                 7.7419
 IR Inten    --    370.4955               130.8343               129.6792

                     73                     74                     75
                      A                      A                      A
 Frequencies --   1637.9457              1659.7934              1686.4831
 Red. masses --      3.2509                 6.4678                 7.7291
 Frc consts  --      5.1387                10.4982                12.9521
 IR Inten    --    234.6143               188.4224                37.6415

                     76                     77                     78
                      A                      A                      A
 Frequencies --   2991.8117              3031.4179              3119.8069
 Red. masses --      1.0393                 1.1039                 1.0953
 Frc consts  --      5.4808                 5.9769                 6.2813
 IR Inten    --    136.6249                38.6494                15.4243

                     79                     80                     81
                      A                      A                      A
 Frequencies --   3156.7414              3166.0487              3181.4311
 Red. masses --      1.0893                 1.0869                 1.0924
 Frc consts  --      6.3953                 6.4188                 6.5145
 IR Inten    --     15.4640                 4.2343                19.0367

                     82                     83                     84
                      A                      A                      A
 Frequencies --   3202.8378              3203.1065              3205.0703
 Red. masses --      1.0922                 1.0917                 1.0938
 Frc consts  --      6.6010                 6.5992                 6.6202
 IR Inten    --      0.9075                 9.4833                11.9733

                     85                     86                     87
                      A                      A                      A
 Frequencies --   3445.1971              3492.9535              3695.8993
 Red. masses --      1.0798                 1.0542                 1.0962
 Frc consts  --      7.5515                 7.5778                 8.8226
 IR Inten    --     46.0577                49.9608                68.0097

 - Thermochemistry -
 -------------------
 Temperature   298.150 Kelvin.  Pressure   1.00000 Atm.
 Atom     1 has atomic number  6 and mass  12.00000

 Molecular mass:   252.08988 amu.
 Principal axes and moments of inertia in atomic units:
                           1         2         3
     Eigenvalues --  3008.337225462.182388458.81284
           X            0.16917  -0.25186   0.95286
           Y            0.49188   0.85936   0.13982
           Z            0.85407  -0.44504  -0.26927
 This molecule is an asymmetric top.
 Rotational symmetry number  1.
 Warning -- assumption of classical behavior for rotation
           may cause significant error
 Rotational temperatures (Kelvin)      0.02879     0.01586     0.01024
 Rotational constants (GHZ):           0.59991     0.33041     0.21336
 Zero-point vibrational energy     631562.4 (Joules/Mol)
                                  150.94703 (Kcal/Mol)
 Warning -- explicit consideration of  24 degrees of freedom as
           vibrations may cause significant error
 Vibrational temperatures:     60.64    92.48   131.01   175.13   191.94
          (Kelvin)            248.72   259.42   281.49   329.25   363.04
                              375.03   470.45   492.93   507.19   564.75
                              601.01   619.93   624.33   636.92   650.07
                              715.02   718.87   799.85   832.78   905.84
                              941.48   956.66   964.66   977.18  1037.56
                             1062.67  1073.12  1102.14  1160.21  1173.78
                             1196.19  1247.39  1302.22  1311.04  1376.46
                             1377.82  1439.46  1458.36  1482.62  1521.48
                             1583.27  1603.63  1625.62  1643.74  1688.07
                             1705.13  1720.49  1735.77  1815.68  1844.30
                             1873.17  1909.91  1942.54  1954.28  2009.17
                             2058.27  2093.80  2117.29  2135.79  2143.55
                             2167.40  2178.25  2220.41  2261.36  2303.80
                             2310.43  2334.78  2356.64  2388.07  2426.47
                             4304.55  4361.53  4488.71  4541.85  4555.24
                             4577.37  4608.17  4608.56  4611.38  4956.87
                             5025.58  5317.57

 Zero-point correction=                           0.240549 (Hartree/Particle)
 Thermal correction to Energy=                    0.255958
 Thermal correction to Enthalpy=                  0.256902
 Thermal correction to Gibbs Free Energy=         0.198310
 Sum of electronic and zero-point Energies=           -838.793760
 Sum of electronic and thermal Energies=              -838.778352
 Sum of electronic and thermal Enthalpies=            -838.777408
 Sum of electronic and thermal Free Energies=         -838.836000

                     E (Thermal)             CV                S
                      KCal/Mol        Cal/Mol-Kelvin    Cal/Mol-Kelvin
 Total                  160.616             61.567            123.317
 Electronic               0.000              0.000              0.000
 Translational            0.889              2.981             42.474
 Rotational               0.889              2.981             33.296
 Vibrational            158.838             55.605             47.547
 Vibration     1          0.595              1.980              5.156
 Vibration     2          0.597              1.971              4.321
 Vibration     3          0.602              1.956              3.637
 Vibration     4          0.609              1.931              3.073
 Vibration     5          0.613              1.920              2.896
 Vibration     6          0.626              1.876              2.404
 Vibration     7          0.629              1.866              2.325
 Vibration     8          0.636              1.846              2.174
 Vibration     9          0.652              1.797              1.888
 Vibration    10          0.664              1.759              1.714
 Vibration    11          0.669              1.745              1.657
 Vibration    12          0.711              1.622              1.275
 Vibration    13          0.722              1.590              1.200
 Vibration    14          0.729              1.570              1.155
 Vibration    15          0.760              1.486              0.991
 Vibration    16          0.781              1.432              0.900
 Vibration    17          0.792              1.403              0.856
 Vibration    18          0.795              1.396              0.846
 Vibration    19          0.802              1.377              0.818
 Vibration    20          0.810              1.357              0.790
 Vibration    21          0.852              1.257              0.666
 Vibration    22          0.855              1.251              0.659
 Vibration    23          0.911              1.127              0.532
 Vibration    24          0.935              1.077              0.488

                           ! Non-Optimized Parameters !
 Normal termination of Gaussian 16 at Thu Dec 21 09:57:11 2023.
