 Gaussian 16, Revision A.03,
 Gaussian 16:  ES64L-G16RevA.03 25-Dec-2016

 ----------------------------------------------------------------
 #P UB3LYP/6-311++G(d,p) SCRF=(PCM,Solvent=n,n-DiMethylFormamide)
 ----------------------------------------------------------------

 ------------------
 Quinone PCM in DMF
 ------------------
 Symbolic Z-matrix:
 Charge =  0 Multiplicity = 1

                         Standard orientation:
 ---------------------------------------------------------------------
 Center     Atomic      Atomic             Coordinates (Angstroms)
 Number     Number       Type             X           Y           Z
 ---------------------------------------------------------------------
      1          6           0       -3.356188    0.750806    0.011417
      2          6           0       -4.326751   -0.240991    0.010641
      3          6           0       -3.951239   -1.589406    0.001868
      4          6           0       -1.998179    0.407182    0.003813
      5          6           0       -1.621647   -0.943189   -0.004576
      6          6           0       -2.608028   -1.938127   -0.005658
      7          6           0       -0.976069    1.482942    0.000970
      8          6           0       -0.190858   -1.339663   -0.009675
      9          6           0        0.439490    1.098876   -0.008371
     10          6           0        0.826221   -0.288772   -0.006778
     11          6           0        1.427221    2.111751   -0.007071
     12          6           0        2.791578    1.717096    0.007673
     13          6           0        3.165749    0.404423    0.012994
     14          6           0        2.203611   -0.646679    0.001576
     15          8           0       -1.346683    2.667120    0.008023
     16          8           0        0.093969   -2.550555   -0.013773
     17          7           0        1.136726    3.442709   -0.039325
     18          7           0        2.618805   -1.940668    0.000529
     19          6           0        4.000916   -2.367943    0.010470
     20          1           0       -3.620953    1.800518    0.017182
     21          1           0       -5.376832    0.029187    0.016502
     22          1           0       -4.710831   -2.363227    0.001015
     23          1           0       -2.293524   -2.973941   -0.012154
     24          1           0        3.553992    2.490046    0.010664
     25          1           0        4.219457    0.159104    0.023774
     26          1           0        0.162388    3.714040    0.025211
     27          1           0        1.874016    4.114440    0.087709
     28          1           0        1.866227   -2.624509   -0.007064
     29          1           0        4.535057   -2.026332    0.905419
     30          1           0        4.549980   -2.018471   -0.872276
     31          1           0        4.019067   -3.457509    0.005833
 ---------------------------------------------------------------------

 SCF Done:  E(UB3LYP) =  -839.046130367     A.U. after   15 cycles

 The electronic state is 1-A.
 Alpha  occ. eigenvalues --  -19.11413 -19.11299 -14.33860 -14.33258 -10.26710
 Alpha  occ. eigenvalues --  -10.26539 -10.24185 -10.24033 -10.20563 -10.19862
 Alpha  occ. eigenvalues --  -10.19854 -10.19801 -10.19714 -10.19587 -10.19529
 Alpha  occ. eigenvalues --  -10.19209 -10.19154 -10.18981 -10.18946  -1.04829
 Alpha  occ. eigenvalues --   -1.04568  -0.95500  -0.93956  -0.88240  -0.85360
 Alpha  occ. eigenvalues --   -0.80609  -0.77108  -0.76738  -0.75592  -0.69982
 Alpha  occ. eigenvalues --   -0.68372  -0.65835  -0.64468  -0.60894  -0.59027
 Alpha  occ. eigenvalues --   -0.57031  -0.55021  -0.53812  -0.52361  -0.50271
 Alpha  occ. eigenvalues --   -0.48827  -0.48480  -0.47683  -0.45911  -0.45769
 Alpha  occ. eigenvalues --   -0.44522  -0.44383  -0.44201  -0.43848  -0.42717
 Alpha  occ. eigenvalues --   -0.40989  -0.40800  -0.40280  -0.39870  -0.38553
 Alpha  occ. eigenvalues --   -0.37198  -0.36647  -0.36102  -0.35010  -0.28760
 Alpha  occ. eigenvalues --   -0.27954  -0.27577  -0.27205  -0.26798  -0.26473
 Alpha  occ. eigenvalues --   -0.19813
 Alpha virt. eigenvalues --   -0.10786  -0.05933  -0.03288  -0.00786  -0.00442
 Alpha virt. eigenvalues --   -0.00023   0.00303   0.01520   0.01740   0.02644
 Alpha virt. eigenvalues --    0.03299   0.03521   0.03862   0.03978   0.04813

  Beta  occ. eigenvalues --  -19.11413 -19.11299 -14.33860 -14.33258 -10.26710
  Beta  occ. eigenvalues --  -10.26539 -10.24185 -10.24033 -10.20563 -10.19862
  Beta  occ. eigenvalues --  -10.19854 -10.19801 -10.19714 -10.19587 -10.19529
  Beta  occ. eigenvalues --  -10.19209 -10.19154 -10.18981 -10.18946  -1.04829
  Beta  occ. eigenvalues --   -1.04568  -0.95500  -0.93956  -0.88240  -0.85360
  Beta  occ. eigenvalues --   -0.80609  -0.77108  -0.76738  -0.75592  -0.69982
  Beta  occ. eigenvalues --   -0.68372  -0.65835  -0.64468  -0.60894  -0.59027
  Beta  occ. eigenvalues --   -0.57031  -0.55021  -0.53812  -0.52361  -0.50271
  Beta  occ. eigenvalues --   -0.48827  -0.48480  -0.47683  -0.45911  -0.45769
  Beta  occ. eigenvalues --   -0.44522  -0.44383  -0.44201  -0.43848  -0.42717
  Beta  occ. eigenvalues --   -0.40989  -0.40800  -0.40280  -0.39870  -0.38553
  Beta  occ. eigenvalues --   -0.37198  -0.36647  -0.36102  -0.35010  -0.28760
  Beta  occ. eigenvalues --   -0.27954  -0.27577  -0.27205  -0.26798  -0.26473
  Beta  occ. eigenvalues --   -0.19813
  Beta virt. eigenvalues --   -0.10786  -0.05933  -0.03288  -0.00786  -0.00442
  Beta virt. eigenvalues --   -0.00023   0.00303   0.01520   0.01740   0.02644
  Beta virt. eigenvalues --    0.03299   0.03521   0.03862   0.03978   0.04813

 Mulliken charges and spin densities:
               1          2
     1  C    0.147793  -0.000000
     2  C   -0.581429  -0.000000
     3  C   -0.543292  -0.000000
     4  C    0.109430  -0.000000
     5  C    0.180474   0.000000
     6  C    0.068861  -0.000000
     7  C   -0.339268   0.000000
     8  C   -0.158610   0.000000
     9  C    0.621514  -0.000000
    10  C    0.238179  -0.000000
    11  C    0.109541   0.000000
    12  C   -0.365479   0.000000
    13  C   -0.167962  -0.000000
    14  C   -0.300015   0.000000
    15  O   -0.344070   0.000000
    16  O   -0.352524   0.000000
    17  N   -0.430006  -0.000000
    18  N   -0.269875  -0.000000
    19  C   -0.363326  -0.000000
    20  H    0.187900  -0.000000
    21  H    0.197024  -0.000000
    22  H    0.199563  -0.000000
    23  H    0.181543  -0.000000
    24  H    0.207405   0.000000
    25  H    0.211855  -0.000000
    26  H    0.335135   0.000000
    27  H    0.298914   0.000000
    28  H    0.407913   0.000000
    29  H    0.169527   0.000000
    30  H    0.169381   0.000000
    31  H    0.173904   0.000000
 Sum of Mulliken charges =  -0.00000   0.00000

 Dipole moment (field-independent basis, Debye):
    X=              5.0097    Y=              0.7900    Z=              0.3630  Tot=              5.0846
 Quadrupole moment (field-independent basis, Debye-Ang):
   XX=            -75.5752   YY=           -105.0055   ZZ=           -115.5414
   XY=              8.0915   XZ=              0.5469   YZ=              1.3208

 Normal termination of Gaussian 16 at Sun Jan 14 01:05:51 2024.
