 Gaussian 16, Revision A.03,
 Gaussian 16:  ES64L-G16RevA.03 25-Dec-2016

 --------------------------------------
 #P UB3LYP/6-311++G(d,p) nosym opt freq
 --------------------------------------

 -------
 Reduced
 -------
 Symbolic Z-matrix:
 Charge = -2 Multiplicity = 1

 SCF Done:  E(UB3LYP) =  -916.884734975     A.U. after   44 cycles
 Optimization completed.
    -- Stationary point found.
 Normal termination of Gaussian 16 at Wed Dec 27 20:51:50 2023.

 ----------------------------------------------------------------------
 #P Geom=AllCheck Guess=TCheck SCRF=Check GenChk UB3LYP/6-311++G(d,p) F
 req
 ----------------------------------------------------------------------

 Structure from the checkpoint file:  "144-an.chk"
 -------
 Reduced
 -------
 Charge = -2 Multiplicity = 1

                          Input orientation:
 ---------------------------------------------------------------------
 Center     Atomic      Atomic             Coordinates (Angstroms)
 Number     Number       Type             X           Y           Z
 ---------------------------------------------------------------------
      1          6           0       -2.999769    3.707068    0.202023
      2          6           0       -4.258869    3.143287    0.222372
      3          6           0       -4.398870    1.731408    0.127754
      4          6           0       -1.824090    2.923179    0.089115
      5          6           0       -1.966488    1.487835   -0.007645
      6          6           0       -3.273352    0.940743    0.016190
      7          6           0       -0.532064    3.585073    0.071678
      8          6           0        0.604272    2.691633   -0.047552
      9          6           0        0.463888    1.256549   -0.143754
     10          6           0       -0.827215    0.594963   -0.130078
     11          6           0        1.909700    3.244007   -0.085027
     12          6           0        3.012301    2.440163   -0.205583
     13          6           0        2.902080    1.032265   -0.299100
     14          6           0        1.640804    0.476599   -0.261062
     15          8           0       -0.405707    4.854433    0.152391
     16          8           0       -0.954246   -0.673657   -0.218670
     17          1           0       -3.346271   -0.139737   -0.058345
     18          1           0        1.506102   -0.597865   -0.328603
     19          1           0       -2.859611    4.781146    0.272165
     20          1           0        2.003369    4.322416   -0.025760
     21          1           0        3.789305    0.416929   -0.388405
     22          1           0       -5.388481    1.278929    0.143615
     23          8           0        4.276714    3.081981   -0.349315
     24          6           0        5.327024    2.774510    0.437702
     25          6           0        6.562037    3.529127   -0.012251
     26          8           0        5.320448    1.977611    1.348104
     27          1           0       -5.141227    3.774155    0.310852
     28          1           0        6.310645    4.481619   -0.478465
     29          1           0        7.110575    2.927827   -0.750514
     30          1           0        7.225094    3.683682    0.838399
 ---------------------------------------------------------------------

 SCF Done:  E(UB3LYP) =  -916.884734975     A.U. after    3 cycles

 Alpha  occ. eigenvalues --  -18.97901 -18.92380 -18.81012 -18.80968 -10.11814
 Alpha  occ. eigenvalues --  -10.01070 -10.00391  -9.96850  -9.96793  -9.95209
 Alpha  occ. eigenvalues --   -9.95195  -9.95163  -9.94568  -9.94524  -9.94383
 Alpha  occ. eigenvalues --   -9.94365  -9.93304  -9.93088  -9.93046  -9.92975
 Alpha  occ. eigenvalues --   -0.91597  -0.83560  -0.73014  -0.72646  -0.62942
 Alpha  occ. eigenvalues --   -0.62025  -0.57928  -0.54667  -0.52585  -0.51915
 Alpha  occ. eigenvalues --   -0.50639  -0.44586  -0.42186  -0.40335  -0.36696
 Alpha  occ. eigenvalues --   -0.35939  -0.32158  -0.31232  -0.30280  -0.29402
 Alpha  occ. eigenvalues --   -0.28558  -0.27198  -0.24300  -0.23841  -0.23621
 Alpha  occ. eigenvalues --   -0.22481  -0.21357  -0.20487  -0.19522  -0.19322
 Alpha  occ. eigenvalues --   -0.17661  -0.17140  -0.16687  -0.16442  -0.14541
 Alpha  occ. eigenvalues --   -0.14117  -0.12746  -0.12045  -0.11415  -0.11179
 Alpha  occ. eigenvalues --   -0.09441  -0.09363  -0.09163  -0.02953  -0.01831
 Alpha  occ. eigenvalues --   -0.01173  -0.00875   0.01227   0.01888   0.11250
 Alpha virt. eigenvalues --    0.12435   0.14947   0.15495   0.16715   0.16767
 Alpha virt. eigenvalues --    0.17762   0.17903   0.18794   0.19244   0.19465
 Alpha virt. eigenvalues --    0.20670   0.21016   0.21649   0.22385   0.23029

  Beta  occ. eigenvalues --  -18.97901 -18.92380 -18.81012 -18.80968 -10.11814
  Beta  occ. eigenvalues --  -10.01070 -10.00391  -9.96850  -9.96793  -9.95209
  Beta  occ. eigenvalues --   -9.95195  -9.95163  -9.94568  -9.94524  -9.94383
  Beta  occ. eigenvalues --   -9.94365  -9.93304  -9.93088  -9.93046  -9.92975
  Beta  occ. eigenvalues --   -0.91597  -0.83560  -0.73014  -0.72646  -0.62942
  Beta  occ. eigenvalues --   -0.62025  -0.57928  -0.54667  -0.52585  -0.51915
  Beta  occ. eigenvalues --   -0.50639  -0.44586  -0.42186  -0.40335  -0.36696
  Beta  occ. eigenvalues --   -0.35939  -0.32158  -0.31232  -0.30280  -0.29402
  Beta  occ. eigenvalues --   -0.28558  -0.27198  -0.24300  -0.23841  -0.23621
  Beta  occ. eigenvalues --   -0.22481  -0.21357  -0.20487  -0.19522  -0.19322
  Beta  occ. eigenvalues --   -0.17661  -0.17140  -0.16687  -0.16442  -0.14541
  Beta  occ. eigenvalues --   -0.14117  -0.12746  -0.12045  -0.11415  -0.11179
  Beta  occ. eigenvalues --   -0.09441  -0.09363  -0.09163  -0.02953  -0.01831
  Beta  occ. eigenvalues --   -0.01173  -0.00875   0.01227   0.01888   0.11250
  Beta virt. eigenvalues --    0.12435   0.14947   0.15495   0.16715   0.16767
  Beta virt. eigenvalues --    0.17762   0.17903   0.18794   0.19244   0.19465
  Beta virt. eigenvalues --    0.20670   0.21016   0.21649   0.22385   0.23029

 Mulliken charges and spin densities:
               1          2
     1  C   -0.014429   0.000000
     2  C   -0.440471   0.000000
     3  C   -0.439049  -0.000000
     4  C    0.478229   0.000000
     5  C    0.357894   0.000000
     6  C    0.025098   0.000000
     7  C   -0.878304  -0.000000
     8  C    0.394538   0.000000
     9  C    0.455488  -0.000000
    10  C   -0.726941   0.000000
    11  C   -0.023182   0.000000
    12  C   -0.753218  -0.000000
    13  C    0.120788  -0.000000
    14  C    0.160295  -0.000000
    15  O   -0.466339   0.000000
    16  O   -0.471312  -0.000000
    17  H    0.137738  -0.000000
    18  H    0.139778  -0.000000
    19  H    0.136181   0.000000
    20  H    0.178799   0.000000
    21  H    0.138450  -0.000000
    22  H    0.085201  -0.000000
    23  O   -0.027833   0.000000
    24  C   -0.815751   0.000000
    25  C    1.405263  -0.000000
    26  O   -0.285733  -0.000000
    27  H    0.086013  -0.000000
    28  H   -0.170340   0.000000
    29  H   -0.522631   0.000000
    30  H   -0.264220   0.000000
 Sum of Mulliken charges =  -2.00000  -0.00000

 Dipole moment (field-independent basis, Debye):
    X=             -8.9503    Y=            -21.8847    Z=             -0.7642  Tot=             23.6565
 Quadrupole moment (field-independent basis, Debye-Ang):
   XX=           -279.3155   YY=           -224.8830   ZZ=           -137.7770
   XY=            -35.8058   XZ=             -2.7904   YZ=             -1.8502

  Exact polarizability:2454.497 376.009 598.175 -69.418  70.670 414.157
 Approx polarizability:********2411.5431130.343-724.273 -70.220 427.362

                      1                      2                      3
                      A                      A                      A
 Frequencies --     24.1308                42.2030                68.2359
 Red. masses --      7.8018                 5.7742                 3.9782
 Frc consts  --      0.0027                 0.0061                 0.0109
 IR Inten    --      1.1348                 1.2432                 1.8135

                      4                      5                      6
                      A                      A                      A
 Frequencies --     76.8952                79.2917               125.2544
 Red. masses --      5.6393                 1.0804                 4.1423
 Frc consts  --      0.0196                 0.0040                 0.0383
 IR Inten    --      5.5790                 6.5060                 0.1992

                      7                      8                      9
                      A                      A                      A
 Frequencies --    152.0327               167.8314               199.4656
 Red. masses --      5.4307                 9.3448                 7.2580
 Frc consts  --      0.0740                 0.1551                 0.1701
 IR Inten    --      0.8524                 5.9386                 5.3072

                     10                     11                     12
                      A                      A                      A
 Frequencies --    218.4682               251.5095               285.6320
 Red. masses --      6.1505                 5.0150                 6.9231
 Frc consts  --      0.1730                 0.1869                 0.3328
 IR Inten    --      1.1358                17.1704                 3.6963

                     13                     14                     15
                      A                      A                      A
 Frequencies --    325.0906               368.1125               391.6981
 Red. masses --      5.9992                10.9285                 7.0295
 Frc consts  --      0.3736                 0.8725                 0.6354
 IR Inten    --      5.0490                10.1522                34.5687

                     16                     17                     18
                      A                      A                      A
 Frequencies --    401.0216               415.1461               433.4866
 Red. masses --      4.9338                 5.7347                 3.7527
 Frc consts  --      0.4675                 0.5823                 0.4155
 IR Inten    --    105.3141                11.0146                 3.7442

                     19                     20                     21
                      A                      A                      A
 Frequencies --    449.5608               476.2192               488.4133
 Red. masses --      5.9434                 3.0074                10.3777
 Frc consts  --      0.7077                 0.4018                 1.4586
 IR Inten    --     25.6988                 1.9578               545.3882

                     22                     23                     24
                      A                      A                      A
 Frequencies --    526.9078               555.1990               601.3232
 Red. masses --      4.6726                 4.9865                 3.1693
 Frc consts  --      0.7643                 0.9056                 0.6752
 IR Inten    --      3.0856                18.5862                12.4656

                     25                     26                     27
                      A                      A                      A
 Frequencies --    630.2355               638.3877               649.9368
 Red. masses --      5.3641                 4.9601                 5.4659
 Frc consts  --      1.2553                 1.1910                 1.3604
 IR Inten    --      6.7291                11.0249                14.6826

                     28                     29                     30
                      A                      A                      A
 Frequencies --    683.4813               692.6745               695.7002
 Red. masses --      3.5250                 6.1291                 2.4447
 Frc consts  --      0.9702                 1.7326                 0.6971
 IR Inten    --     25.6215                10.5144                46.7953

                     31                     32                     33
                      A                      A                      A
 Frequencies --    713.4959               748.8689               766.3948
 Red. masses --      4.3963                 1.8118                 4.6495
 Frc consts  --      1.3186                 0.5986                 1.6090
 IR Inten    --      0.5397                 1.7785                38.8788

                     34                     35                     36
                      A                      A                      A
 Frequencies --    769.9336               797.1507               832.6614
 Red. masses --      2.2790                 1.6533                 3.3087
 Frc consts  --      0.7960                 0.6190                 1.3516
 IR Inten    --     41.7525                 8.0053                 1.7662

                     37                     38                     39
                      A                      A                      A
 Frequencies --    845.3676               906.9527               929.7001
 Red. masses --      5.9959                 3.4745                 3.3504
 Frc consts  --      2.5246                 1.6839                 1.7062
 IR Inten    --     48.7369                27.6805                 8.6976

                     40                     41                     42
                      A                      A                      A
 Frequencies --    937.3402               960.1075               964.5775
 Red. masses --      2.4867                 1.2387                 1.3567
 Frc consts  --      1.2873                 0.6728                 0.7437
 IR Inten    --      8.6828                 0.0555                 1.6463

                     43                     44                     45
                      A                      A                      A
 Frequencies --    971.9249               981.0510              1016.2227
 Red. masses --      1.3455                 3.5482                 1.9239
 Frc consts  --      0.7489                 2.0121                 1.1706
 IR Inten    --     14.9307               298.1586               380.9486

                     46                     47                     48
                      A                      A                      A
 Frequencies --   1017.6451              1042.5126              1093.4599
 Red. masses --      1.7758                 1.7510                 2.4635
 Frc consts  --      1.0835                 1.1212                 1.7354
 IR Inten    --     39.3564               101.9027                59.7051

                     49                     50                     51
                      A                      A                      A
 Frequencies --   1102.7464              1110.8610              1133.3303
 Red. masses --      1.7884                 1.8757                 1.3917
 Frc consts  --      1.2814                 1.3637                 1.0532
 IR Inten    --     41.7206                52.1149               284.7536

                     52                     53                     54
                      A                      A                      A
 Frequencies --   1181.4789              1192.6484              1206.7390
 Red. masses --      1.9892                 5.8602                 1.6580
 Frc consts  --      1.6360                 4.9112                 1.4225
 IR Inten    --    108.3762               323.8442                 6.7227

                     55                     56                     57
                      A                      A                      A
 Frequencies --   1214.2340              1223.2822              1243.5939
 Red. masses --      2.7572                 4.1460                 2.1837
 Frc consts  --      2.3951                 3.6553                 1.9898
 IR Inten    --    177.5913               627.7174               204.8173

                     58                     59                     60
                      A                      A                      A
 Frequencies --   1328.8546              1341.2237              1353.9959
 Red. masses --      2.7389                 6.1337                 7.3740
 Frc consts  --      2.8496                 6.5009                 7.9651
 IR Inten    --    193.6505               543.3547               244.8443

                     61                     62                     63
                      A                      A                      A
 Frequencies --   1377.7117              1384.6627              1449.3619
 Red. masses --      1.3304                 2.7394                 3.0503
 Frc consts  --      1.4878                 3.0945                 3.7752
 IR Inten    --    810.6061               728.0704               131.6466

                     64                     65                     66
                      A                      A                      A
 Frequencies --   1457.9372              1466.6931              1471.0688
 Red. masses --      1.0652                 3.3661                 1.0650
 Frc consts  --      1.3340                 4.2663                 1.3579
 IR Inten    --    196.2233                35.8371               199.0270

                     67                     68                     69
                      A                      A                      A
 Frequencies --   1478.1646              1484.2615              1491.7993
 Red. masses --      6.5705                 3.9921                 4.4624
 Frc consts  --      8.4585                 5.1817                 5.8511
 IR Inten    --   2520.6919                47.7963               470.8776

                     70                     71                     72
                      A                      A                      A
 Frequencies --   1532.9769              1572.8978              1592.5037
 Red. masses --      5.8544                 7.7968                 5.5620
 Frc consts  --      8.1059                11.3649                 8.3108
 IR Inten    --    130.1562              3890.4209                26.6264

                     73                     74                     75
                      A                      A                      A
 Frequencies --   1599.9437              1757.0868              2984.5045
 Red. masses --      6.6570                11.3295                 1.0575
 Frc consts  --     10.0401                20.6085                 5.5498
 IR Inten    --     73.7290               294.7189               162.6222

                     76                     77                     78
                      A                      A                      A
 Frequencies --   3086.9276              3099.1290              3121.9476
 Red. masses --      1.0751                 1.0829                 1.0905
 Frc consts  --      6.0362                 6.1279                 6.2625
 IR Inten    --     40.4315                37.3054               309.7718

                     79                     80                     81
                      A                      A                      A
 Frequencies --   3138.7048              3161.1569              3161.7807
 Red. masses --      1.1056                 1.0903                 1.0860
 Frc consts  --      6.4171                 6.4193                 6.3966
 IR Inten    --      4.0869                26.0153                 3.7514

                     82                     83                     84
                      A                      A                      A
 Frequencies --   3163.6957              3181.1923              3181.9040
 Red. masses --      1.0916                 1.0935                 1.0901
 Frc consts  --      6.4375                 6.5200                 6.5024
 IR Inten    --    229.5148                27.4334                26.1215

 - Thermochemistry -
 -------------------
 Temperature   298.150 Kelvin.  Pressure   1.00000 Atm.
 Atom     1 has atomic number  6 and mass  12.00000

 Molecular mass:   266.05791 amu.
 Principal axes and moments of inertia in atomic units:
                           1         2         3
     Eigenvalues --  1982.78299********************
           X            0.99750  -0.06912  -0.01494
           Y            0.06817   0.99605  -0.05693
           Z            0.01882   0.05577   0.99827
 This molecule is an asymmetric top.
 Rotational symmetry number  1.
 Warning -- assumption of classical behavior for rotation
           may cause significant error
 Rotational temperatures (Kelvin)      0.04368     0.00843     0.00723
 Rotational constants (GHZ):           0.91021     0.17571     0.15058
 Zero-point vibrational energy     564876.1 (Joules/Mol)
                                  135.00863 (Kcal/Mol)
 Warning -- explicit consideration of  24 degrees of freedom as
           vibrations may cause significant error
 Vibrational temperatures:     34.72    60.72    98.18   110.64   114.08
          (Kelvin)            180.21   218.74   241.47   286.99   314.33
                              361.87   410.96   467.73   529.63   563.57
                              576.98   597.30   623.69   646.82   685.17
                              702.72   758.10   798.81   865.17   906.77
                              918.50   935.11   983.38   996.60  1000.96
                             1026.56  1077.46  1102.67  1107.76  1146.92
                             1198.01  1216.30  1304.90  1337.63  1348.62
                             1381.38  1387.81  1398.38  1411.51  1462.12
                             1464.16  1499.94  1573.24  1586.61  1598.28
                             1630.61  1699.88  1715.96  1736.23  1747.01
                             1760.03  1789.25  1911.93  1929.72  1948.10
                             1982.22  1992.22  2085.31  2097.65  2110.24
                             2116.54  2126.75  2135.52  2146.37  2205.61
                             2263.05  2291.26  2301.96  2528.06  4294.04
                             4441.40  4458.96  4491.79  4515.90  4548.20
                             4549.10  4551.85  4577.03  4578.05

 Zero-point correction=                           0.215150 (Hartree/Particle)
 Thermal correction to Energy=                    0.231320
 Thermal correction to Enthalpy=                  0.232265
 Thermal correction to Gibbs Free Energy=         0.170134
 Sum of electronic and zero-point Energies=           -916.669585
 Sum of electronic and thermal Energies=              -916.653415
 Sum of electronic and thermal Enthalpies=            -916.652470
 Sum of electronic and thermal Free Energies=         -916.714601

                     E (Thermal)             CV                S
                      KCal/Mol        Cal/Mol-Kelvin    Cal/Mol-Kelvin
 Total                  145.156             62.899            130.766
 Electronic               0.000              0.000              0.000
 Translational            0.889              2.981             42.635
 Rotational               0.889              2.981             33.856
 Vibrational            143.378             56.937             54.275
 Vibration     1          0.593              1.985              6.261
 Vibration     2          0.595              1.980              5.153
 Vibration     3          0.598              1.969              4.204
 Vibration     4          0.599              1.965              3.969
 Vibration     5          0.600              1.963              3.908
 Vibration     6          0.610              1.928              3.018
 Vibration     7          0.619              1.900              2.647
 Vibration     8          0.625              1.882              2.460
 Vibration     9          0.638              1.841              2.138
 Vibration    10          0.646              1.813              1.972
 Vibration    11          0.663              1.760              1.720
 Vibration    12          0.683              1.700              1.500
 Vibration    13          0.709              1.625              1.284
 Vibration    14          0.741              1.538              1.088
 Vibration    15          0.759              1.488              0.994
 Vibration    16          0.767              1.468              0.959
 Vibration    17          0.779              1.437              0.909
 Vibration    18          0.794              1.397              0.847
 Vibration    19          0.808              1.362              0.797
 Vibration    20          0.833              1.303              0.720
 Vibration    21          0.844              1.276              0.688
 Vibration    22          0.882              1.190              0.594
 Vibration    23          0.911              1.128              0.534
 Vibration    24          0.960              1.029              0.447

                           ! Non-Optimized Parameters !
 Normal termination of Gaussian 16 at Wed Dec 27 22:12:40 2023.
