 Gaussian 16, Revision A.03,
 Gaussian 16:  ES64L-G16RevA.03 25-Dec-2016

 ----------------------------------------------------------------
 #P UB3LYP/6-311++G(d,p) SCRF=(PCM,Solvent=n,n-DiMethylFormamide)
 ----------------------------------------------------------------

 -------
 Reduced
 -------
 Symbolic Z-matrix:
 Charge = -2 Multiplicity = 1

                         Standard orientation:
 ---------------------------------------------------------------------
 Center     Atomic      Atomic             Coordinates (Angstroms)
 Number     Number       Type             X           Y           Z
 ---------------------------------------------------------------------
      1          6           0        3.546817   -1.707823    0.108759
      2          6           0        4.842025   -1.237133    0.175718
      3          6           0        5.082475    0.164301    0.164773
      4          6           0        2.431075   -0.837111    0.028557
      5          6           0        2.675600    0.587643    0.016862
      6          6           0        4.017220    1.038115    0.086860
      7          6           0        1.096076   -1.403328   -0.041554
      8          6           0        0.027382   -0.425960   -0.121273
      9          6           0        0.269872    0.998646   -0.132448
     10          6           0        1.603985    1.564837   -0.066119
     11          6           0       -1.312971   -0.881016   -0.205178
     12          6           0       -2.354305    0.004805   -0.291048
     13          6           0       -2.143854    1.404331   -0.301455
     14          6           0       -0.847315    1.865774   -0.217285
     15          8           0        0.879477   -2.663015   -0.036065
     16          8           0        1.821324    2.824189   -0.079509
     17          1           0        4.167132    2.113159    0.075983
     18          1           0       -0.636310    2.930032   -0.220846
     19          1           0        3.330358   -2.771456    0.114879
     20          1           0       -1.483202   -1.951648   -0.209652
     21          1           0       -2.984112    2.085323   -0.364691
     22          1           0        6.101127    0.543582    0.217812
     23          8           0       -3.658437   -0.536170   -0.485764
     24          6           0       -4.696293   -0.200213    0.306117
     25          6           0       -5.974406   -0.838117   -0.200507
     26          8           0       -4.647423    0.540891    1.261260
     27          1           0        5.676348   -1.933199    0.237175
     28          1           0       -5.783653   -1.777890   -0.718420
     29          1           0       -6.468020   -0.158129   -0.908638
     30          1           0       -6.659498   -0.993445    0.632355
 ---------------------------------------------------------------------

 SCF Done:  E(UB3LYP) =  -917.140574086     A.U. after   18 cycles

 The electronic state is 1-A.
 Alpha  occ. eigenvalues --  -19.17421 -19.11697 -19.02088 -19.01966 -10.31023
 Alpha  occ. eigenvalues --  -10.21535 -10.17627 -10.17505 -10.17358 -10.15563
 Alpha  occ. eigenvalues --  -10.15296 -10.15196 -10.14935 -10.14872 -10.14607
 Alpha  occ. eigenvalues --  -10.14579 -10.13925 -10.13685 -10.13611 -10.13561
 Alpha  occ. eigenvalues --   -1.11069  -1.02998  -0.94340  -0.93997  -0.83555
 Alpha  occ. eigenvalues --   -0.82357  -0.76804  -0.74604  -0.72934  -0.72271
 Alpha  occ. eigenvalues --   -0.70767  -0.64698  -0.62404  -0.60656  -0.56844
 Alpha  occ. eigenvalues --   -0.56378  -0.52646  -0.50818  -0.49944  -0.48720
 Alpha  occ. eigenvalues --   -0.47433  -0.47146  -0.44181  -0.43911  -0.42825
 Alpha  occ. eigenvalues --   -0.41304  -0.41205  -0.40198  -0.39845  -0.38952
 Alpha  occ. eigenvalues --   -0.38187  -0.37619  -0.37227  -0.36860  -0.35872
 Alpha  occ. eigenvalues --   -0.34444  -0.33118  -0.32736  -0.32336  -0.31703
 Alpha  occ. eigenvalues --   -0.30198  -0.29896  -0.28767  -0.23765  -0.22732
 Alpha  occ. eigenvalues --   -0.22483  -0.21633  -0.20332  -0.19564  -0.10419
 Alpha virt. eigenvalues --   -0.02967  -0.00918  -0.00220   0.00361   0.00776
 Alpha virt. eigenvalues --    0.01412   0.01821   0.01905   0.02534   0.03554
 Alpha virt. eigenvalues --    0.03867   0.04263   0.04912   0.05157   0.05608

  Beta  occ. eigenvalues --  -19.17421 -19.11697 -19.02088 -19.01966 -10.31023
  Beta  occ. eigenvalues --  -10.21535 -10.17627 -10.17505 -10.17358 -10.15563
  Beta  occ. eigenvalues --  -10.15296 -10.15196 -10.14935 -10.14872 -10.14607
  Beta  occ. eigenvalues --  -10.14579 -10.13925 -10.13685 -10.13611 -10.13561
  Beta  occ. eigenvalues --   -1.11069  -1.02998  -0.94340  -0.93997  -0.83555
  Beta  occ. eigenvalues --   -0.82357  -0.76804  -0.74604  -0.72934  -0.72271
  Beta  occ. eigenvalues --   -0.70767  -0.64698  -0.62404  -0.60656  -0.56844
  Beta  occ. eigenvalues --   -0.56378  -0.52646  -0.50818  -0.49944  -0.48720
  Beta  occ. eigenvalues --   -0.47433  -0.47146  -0.44181  -0.43911  -0.42825
  Beta  occ. eigenvalues --   -0.41304  -0.41205  -0.40198  -0.39845  -0.38952
  Beta  occ. eigenvalues --   -0.38187  -0.37619  -0.37227  -0.36860  -0.35872
  Beta  occ. eigenvalues --   -0.34444  -0.33118  -0.32736  -0.32336  -0.31703
  Beta  occ. eigenvalues --   -0.30198  -0.29896  -0.28767  -0.23765  -0.22732
  Beta  occ. eigenvalues --   -0.22483  -0.21633  -0.20332  -0.19564  -0.10419
  Beta virt. eigenvalues --   -0.02967  -0.00918  -0.00220   0.00361   0.00776
  Beta virt. eigenvalues --    0.01412   0.01821   0.01905   0.02534   0.03554
  Beta virt. eigenvalues --    0.03867   0.04263   0.04912   0.05157   0.05608

 Mulliken charges and spin densities:
               1          2
     1  C   -0.025720  -0.000000
     2  C   -0.509692  -0.000000
     3  C   -0.505980   0.000000
     4  C    0.333582   0.000000
     5  C    0.225324  -0.000000
     6  C    0.017618  -0.000000
     7  C   -0.600551  -0.000000
     8  C    0.283207   0.000000
     9  C    0.303326  -0.000000
    10  C   -0.420897  -0.000000
    11  C   -0.034239   0.000000
    12  C   -0.701395   0.000000
    13  C   -0.038281   0.000000
    14  C    0.020932  -0.000000
    15  O   -0.645198   0.000000
    16  O   -0.642417  -0.000000
    17  H    0.145125   0.000000
    18  H    0.150198   0.000000
    19  H    0.143477   0.000000
    20  H    0.172441   0.000000
    21  H    0.201042  -0.000000
    22  H    0.157308   0.000000
    23  O   -0.041890   0.000000
    24  C    0.176711   0.000000
    25  C   -0.528054  -0.000000
    26  O   -0.335001  -0.000000
    27  H    0.158004  -0.000000
    28  H    0.172893   0.000000
    29  H    0.194234   0.000000
    30  H    0.173897  -0.000000
 Sum of Mulliken charges =  -2.00000   0.00000

 Dipole moment (field-independent basis, Debye):
    X=            -11.3733    Y=             -1.8077    Z=             -1.6681  Tot=             11.6362
 Quadrupole moment (field-independent basis, Debye-Ang):
   XX=           -157.9970   YY=           -174.1446   ZZ=           -131.7535
   XY=             -0.0297   XZ=             10.7677   YZ=             -2.2883

 Normal termination of Gaussian 16 at Sun Jan 14 01:26:44 2024.
