 Gaussian 16, Revision A.03,
 Gaussian 16:  ES64L-G16RevA.03 25-Dec-2016

 ----------------------------------------------
 #P UB3LYP/6-311++G(d,p) nosym opt freq SCF=YQC
 ----------------------------------------------

 -------
 Reduced
 -------
 Symbolic Z-matrix:
 Charge = -2 Multiplicity = 1

 SCF Done:  E(UB3LYP) =  -972.737861867     a.u. after    9 cycles
 SCF Done:  E(UB3LYP) =  -972.746814566     A.U. after   33 cycles
 SCF Done:  E(UB3LYP) =  -972.747166657     a.u. after    8 cycles
 SCF Done:  E(UB3LYP) =  -972.774336817     a.u. after  177 cycles
 SCF Done:  E(UB3LYP) =  -972.774898962     A.U. after   29 cycles
 SCF Done:  E(UB3LYP) =  -972.778817565     a.u. after  249 cycles
 SCF Done:  E(UB3LYP) =  -972.779075102     A.U. after   25 cycles
 SCF Done:  E(UB3LYP) =  -972.779063869     a.u. after  158 cycles
 SCF Done:  E(UB3LYP) =  -972.779206996     A.U. after   23 cycles
 SCF Done:  E(UB3LYP) =  -972.779247839     a.u. after   71 cycles
 SCF Done:  E(UB3LYP) =  -972.779359683     a.u. after   90 cycles
 SCF Done:  E(UB3LYP) =  -972.779445103     A.U. after   26 cycles
 SCF Done:  E(UB3LYP) =  -972.779408601     a.u. after   23 cycles
 SCF Done:  E(UB3LYP) =  -972.779452574     A.U. after   23 cycles
 SCF Done:  E(UB3LYP) =  -972.779437161     a.u. after    4 cycles
 SCF Done:  E(UB3LYP) =  -972.779460494     A.U. after   19 cycles
 SCF Done:  E(UB3LYP) =  -972.779458541     a.u. after    1 cycles
 SCF Done:  E(UB3LYP) =  -972.779460850     A.U. after   21 cycles
 Optimization completed.
    -- Stationary point found.
 Normal termination of Gaussian 16 at Wed Dec 27 06:52:33 2023.

 ----------------------------------------------------------------------
 #P Geom=AllCheck Guess=TCheck SCRF=Check GenChk UB3LYP/6-311++G(d,p) F
 req
 ----------------------------------------------------------------------

 Structure from the checkpoint file:  "276-an.chk"
 -------
 Reduced
 -------
 Charge = -2 Multiplicity = 1

                          Input orientation:
 ---------------------------------------------------------------------
 Center     Atomic      Atomic             Coordinates (Angstroms)
 Number     Number       Type             X           Y           Z
 ---------------------------------------------------------------------
      1          6           0        4.234064   -0.028081   -0.047568
      2         16           0        3.022598   -1.330172   -0.479583
      3          6           0        1.444894   -0.484102   -0.242773
      4          6           0        1.329586    0.906867   -0.069584
      5          6           0        0.089609    1.581644    0.103700
      6          8           0       -0.009347    2.855168    0.275990
      7          6           0       -1.077311    0.701972    0.085214
      8          6           0       -2.369519    1.244287    0.258353
      9          6           0       -3.507995    0.456484    0.249104
     10          6           0       -3.385163   -0.944372    0.056915
     11          6           0       -2.133274   -1.504812   -0.118232
     12          6           0       -0.951449   -0.724673   -0.108429
     13          6           0        0.334803   -1.377321   -0.299026
     14          8           0        0.460887   -2.641594   -0.510190
     15          1           0        4.204390    0.812634   -0.743834
     16          1           0        5.225038   -0.487981   -0.103691
     17          1           0        4.072423    0.347756    0.968180
     18          1           0        2.212262    1.536839   -0.033175
     19          1           0       -2.425244    2.319714    0.401150
     20          1           0       -4.490255    0.906334    0.386119
     21          1           0       -4.273839   -1.574085    0.045015
     22          1           0       -2.007159   -2.572503   -0.271791
 ---------------------------------------------------------------------

 SCF Done:  E(UB3LYP) =  -972.779460850     a.u. after    1 cycles
 SCF Done:  E(UB3LYP) =  -972.779460850     A.U. after    2 cycles

 Alpha  occ. eigenvalues --  -88.59977 -18.77740 -18.77448  -9.96685  -9.93634
 Alpha  occ. eigenvalues --   -9.93568  -9.92924  -9.92811  -9.92287  -9.91919
 Alpha  occ. eigenvalues --   -9.91917  -9.90560  -9.90384  -9.88825  -7.68448
 Alpha  occ. eigenvalues --   -5.64868  -5.64440  -5.63857  -0.69425  -0.68757
 Alpha  occ. eigenvalues --   -0.59593  -0.56039  -0.52116  -0.49386  -0.47419
 Alpha  occ. eigenvalues --   -0.42376  -0.39100  -0.35609  -0.33164  -0.29344
 Alpha  occ. eigenvalues --   -0.24851  -0.23726  -0.20962  -0.20201  -0.19704
 Alpha  occ. eigenvalues --   -0.18794  -0.17153  -0.14923  -0.13672  -0.13216
 Alpha  occ. eigenvalues --   -0.12141  -0.11230  -0.09191  -0.08747  -0.07804
 Alpha  occ. eigenvalues --   -0.07555  -0.06334  -0.01813   0.00215   0.01613
 Alpha  occ. eigenvalues --    0.04231   0.04514   0.05019   0.13311
 Alpha virt. eigenvalues --    0.15002   0.16146   0.17915   0.19238   0.20541
 Alpha virt. eigenvalues --    0.20668   0.21761   0.22262   0.23080   0.23705
 Alpha virt. eigenvalues --    0.24202   0.25553   0.26122   0.26792   0.27017

  Beta  occ. eigenvalues --  -88.59977 -18.77740 -18.77448  -9.96685  -9.93634
  Beta  occ. eigenvalues --   -9.93568  -9.92924  -9.92811  -9.92287  -9.91919
  Beta  occ. eigenvalues --   -9.91917  -9.90560  -9.90384  -9.88825  -7.68448
  Beta  occ. eigenvalues --   -5.64868  -5.64440  -5.63857  -0.69425  -0.68757
  Beta  occ. eigenvalues --   -0.59593  -0.56039  -0.52116  -0.49386  -0.47419
  Beta  occ. eigenvalues --   -0.42376  -0.39100  -0.35609  -0.33164  -0.29344
  Beta  occ. eigenvalues --   -0.24851  -0.23726  -0.20962  -0.20201  -0.19704
  Beta  occ. eigenvalues --   -0.18794  -0.17153  -0.14923  -0.13672  -0.13216
  Beta  occ. eigenvalues --   -0.12141  -0.11230  -0.09191  -0.08747  -0.07804
  Beta  occ. eigenvalues --   -0.07555  -0.06334  -0.01813   0.00215   0.01613
  Beta  occ. eigenvalues --    0.04231   0.04514   0.05019   0.13311
  Beta virt. eigenvalues --    0.15002   0.16146   0.17915   0.19238   0.20541
  Beta virt. eigenvalues --    0.20668   0.21761   0.22262   0.23080   0.23705
  Beta virt. eigenvalues --    0.24202   0.25553   0.26122   0.26792   0.27017

 Mulliken charges and spin densities:
               1          2
     1  C    0.124711   0.000000
     2  S   -0.547181   0.000000
     3  C    0.913521  -0.000000
     4  C    0.756243  -0.000000
     5  C   -0.941061   0.000000
     6  O   -0.528862  -0.000000
     7  C    0.644169  -0.000000
     8  C    0.096833   0.000000
     9  C   -0.328444  -0.000000
    10  C   -0.372068  -0.000000
    11  C    0.187810   0.000000
    12  C    0.337271   0.000000
    13  C   -1.792673   0.000000
    14  O   -0.472459  -0.000000
    15  H    0.070960  -0.000000
    16  H   -0.784140  -0.000000
    17  H    0.107165  -0.000000
    18  H    0.128750  -0.000000
    19  H    0.119608  -0.000000
    20  H    0.075587   0.000000
    21  H    0.069981  -0.000000
    22  H    0.134278  -0.000000
 Sum of Mulliken charges =  -2.00000  -0.00000

 Dipole moment (field-independent basis, Debye):
    X=             -5.8000    Y=              1.2236    Z=              1.4502  Tot=              6.1025
 Quadrupole moment (field-independent basis, Debye-Ang):
   XX=           -171.2257   YY=           -153.2913   ZZ=           -106.6386
   XY=             11.8081   XZ=              5.5679   YZ=             -7.5111

  Exact polarizability:1815.681-117.390 292.629 -38.297  17.513 179.843
 Approx polarizability:4041.907-246.889 457.037-102.083  38.157 228.298

                      1                      2                      3
                      A                      A                      A
 Frequencies --     40.7925                85.3483               132.0149
 Red. masses --      3.6445                 7.4930                 4.3263
 Frc consts  --      0.0036                 0.0322                 0.0444
 IR Inten    --      1.2294                 1.8741                 0.9583

                      4                      5                      6
                      A                      A                      A
 Frequencies --    153.9615               167.4061               215.5710
 Red. masses --      4.8588                 7.2410                 2.7753
 Frc consts  --      0.0679                 0.1196                 0.0760
 IR Inten    --      6.5172                10.3066                 8.5715

                      7                      8                      9
                      A                      A                      A
 Frequencies --    247.8475               262.8149               267.8851
 Red. masses --      4.3831                 1.3215                 6.5395
 Frc consts  --      0.1586                 0.0538                 0.2765
 IR Inten    --      6.8032                79.7633                 5.8830

                     10                     11                     12
                      A                      A                      A
 Frequencies --    343.7068               354.3854               360.4570
 Red. masses --      9.0102                 8.7040                 8.0348
 Frc consts  --      0.6271                 0.6440                 0.6151
 IR Inten    --      5.8472                15.3236                24.6207

                     13                     14                     15
                      A                      A                      A
 Frequencies --    436.5436               457.9420               484.7196
 Red. masses --      3.3554                11.1189                 4.4113
 Frc consts  --      0.3767                 1.3738                 0.6107
 IR Inten    --      8.5374               779.6446                 6.8062

                     16                     17                     18
                      A                      A                      A
 Frequencies --    504.0106               601.0850               620.0507
 Red. masses --      7.8462                 7.3418                 3.8456
 Frc consts  --      1.1743                 1.5629                 0.8711
 IR Inten    --    115.2124                 4.6606                 9.5587

                     19                     20                     21
                      A                      A                      A
 Frequencies --    656.6454               658.1934               694.7143
 Red. masses --      5.5063                 2.6739                 5.9161
 Frc consts  --      1.3989                 0.6825                 1.6823
 IR Inten    --      3.2416                27.1237                 3.1620

                     22                     23                     24
                      A                      A                      A
 Frequencies --    720.4652               732.1870               747.0968
 Red. masses --      6.2231                 1.5796                 2.6607
 Frc consts  --      1.9032                 0.4989                 0.8750
 IR Inten    --     10.8350                50.9635                12.3912

                     25                     26                     27
                      A                      A                      A
 Frequencies --    799.9954               813.2783               828.1513
 Red. masses --      1.7283                 1.7931                 6.5453
 Frc consts  --      0.6517                 0.6988                 2.6448
 IR Inten    --      9.6262                11.8917                81.0967

                     28                     29                     30
                      A                      A                      A
 Frequencies --    837.5361               947.0673               950.8139
 Red. masses --      6.0448                 1.2296                 1.2079
 Frc consts  --      2.4983                 0.6498                 0.6434
 IR Inten    --     58.8584                 0.4562                52.5520

                     31                     32                     33
                      A                      A                      A
 Frequencies --    955.3143               964.5171              1012.8600
 Red. masses --      1.3463                 1.3023                 2.3699
 Frc consts  --      0.7239                 0.7138                 1.4325
 IR Inten    --      3.4039               530.1805               475.6887

                     34                     35                     36
                      A                      A                      A
 Frequencies --   1077.7630              1087.7183              1123.6272
 Red. masses --      3.5076                 2.6230                 1.4369
 Frc consts  --      2.4005                 1.8284                 1.0689
 IR Inten    --    129.7391               138.3844                75.8880

                     37                     38                     39
                      A                      A                      A
 Frequencies --   1146.2401              1210.2795              1223.4128
 Red. masses --      1.8211                 2.4135                 2.0120
 Frc consts  --      1.4097                 2.0829                 1.7743
 IR Inten    --     67.0654               232.4094                66.5252

                     40                     41                     42
                      A                      A                      A
 Frequencies --   1266.8557              1328.1342              1336.1942
 Red. masses --      1.8974                 8.7242                 1.1753
 Frc consts  --      1.7942                 9.0669                 1.2364
 IR Inten    --    337.5471               606.0331               271.3564

                     43                     44                     45
                      A                      A                      A
 Frequencies --   1382.0828              1389.6330              1416.6567
 Red. masses --      4.7358                 4.8676                 4.0984
 Frc consts  --      5.3298                 5.5382                 4.8461
 IR Inten    --    424.9765               512.4508              1221.4121

                     46                     47                     48
                      A                      A                      A
 Frequencies --   1448.1682              1453.1628              1480.1851
 Red. masses --      2.9585                 1.1009                 1.5825
 Frc consts  --      3.6556                 1.3697                 2.0428
 IR Inten    --    408.0228               112.7333               986.7286

                     49                     50                     51
                      A                      A                      A
 Frequencies --   1491.4073              1506.6534              1564.3942
 Red. masses --      1.7490                 4.1641                 6.4704
 Frc consts  --      2.2921                 5.5693                 9.3298
 IR Inten    --    276.8497               376.4852              2751.4302

                     52                     53                     54
                      A                      A                      A
 Frequencies --   1585.0428              2995.6838              3066.6305
 Red. masses --      5.4354                 1.0314                 1.1029
 Frc consts  --      8.0457                 5.4532                 6.1109
 IR Inten    --    178.6595                42.0505               252.7214

                     55                     56                     57
                      A                      A                      A
 Frequencies --   3080.5622              3086.5494              3110.8285
 Red. masses --      1.1040                 1.0824                 1.0905
 Frc consts  --      6.1727                 6.0753                 6.2177
 IR Inten    --     10.1067                37.2716               315.0464

                     58                     59                     60
                      A                      A                      A
 Frequencies --   3151.3683              3153.6796              3155.3064
 Red. masses --      1.0901                 1.0863                 1.0911
 Frc consts  --      6.3782                 6.3655                 6.4002
 IR Inten    --     32.6918               130.8990               186.4210

 - Thermochemistry -
 -------------------
 Temperature   298.150 Kelvin.  Pressure   1.00000 Atm.
 Atom     1 has atomic number  6 and mass  12.00000

 Molecular mass:   204.02450 amu.
 Principal axes and moments of inertia in atomic units:
                           1         2         3
     Eigenvalues --  1563.746324028.870635570.91087
           X            0.98262   0.17780   0.05326
           Y           -0.16903   0.97578  -0.13888
           Z           -0.07666   0.12747   0.98888
 This molecule is an asymmetric top.
 Rotational symmetry number  1.
 Warning -- assumption of classical behavior for rotation
           may cause significant error
 Rotational temperatures (Kelvin)      0.05539     0.02150     0.01555
 Rotational constants (GHZ):           1.15411     0.44795     0.32396
 Zero-point vibrational energy     408964.9 (Joules/Mol)
                                   97.74497 (Kcal/Mol)
 Warning -- explicit consideration of  18 degrees of freedom as
           vibrations may cause significant error
 Vibrational temperatures:     58.69   122.80   189.94   221.52   240.86
          (Kelvin)            310.16   356.60   378.13   385.43   494.52
                              509.88   518.62   628.09   658.88   697.40
                              725.16   864.83   892.11   944.77   946.99
                              999.54  1036.59  1053.45  1074.91  1151.01
                             1170.13  1191.52  1205.03  1362.62  1368.01
                             1374.48  1387.72  1457.28  1550.66  1564.98
                             1616.65  1649.18  1741.32  1760.22  1822.72
                             1910.89  1922.49  1988.51  1999.37  2038.25
                             2083.59  2090.78  2129.66  2145.80  2167.74
                             2250.81  2280.52  4310.12  4412.20  4432.24
                             4440.86  4475.79  4534.12  4537.44  4539.78

 Zero-point correction=                           0.155767 (Hartree/Particle)
 Thermal correction to Energy=                    0.167869
 Thermal correction to Enthalpy=                  0.168813
 Thermal correction to Gibbs Free Energy=         0.117156
 Sum of electronic and zero-point Energies=           -972.623694
 Sum of electronic and thermal Energies=              -972.611592
 Sum of electronic and thermal Enthalpies=            -972.610648
 Sum of electronic and thermal Free Energies=         -972.662305

                     E (Thermal)             CV                S
                      KCal/Mol        Cal/Mol-Kelvin    Cal/Mol-Kelvin
 Total                  105.339             46.932            108.720
 Electronic               0.000              0.000              0.000
 Translational            0.889              2.981             41.844
 Rotational               0.889              2.981             31.929
 Vibrational            103.562             40.970             34.948
 Vibration     1          0.594              1.981              5.220
 Vibration     2          0.601              1.959              3.764
 Vibration     3          0.612              1.921              2.916
 Vibration     4          0.619              1.898              2.623
 Vibration     5          0.624              1.883              2.464
 Vibration     6          0.645              1.817              1.996
 Vibration     7          0.661              1.766              1.746
 Vibration     8          0.670              1.741              1.643
 Vibration     9          0.673              1.732              1.610
 Vibration    10          0.722              1.588              1.195
 Vibration    11          0.730              1.566              1.147
 Vibration    12          0.735              1.554              1.120
 Vibration    13          0.797              1.391              0.838
 Vibration    14          0.816              1.343              0.772
 Vibration    15          0.841              1.284              0.697
 Vibration    16          0.859              1.241              0.648
 Vibration    17          0.959              1.029              0.448
 Vibration    18          0.980              0.990              0.416

                           ! Non-Optimized Parameters !
 Normal termination of Gaussian 16 at Wed Dec 27 07:16:22 2023.
