 Gaussian 16, Revision A.03,
 Gaussian 16:  ES64L-G16RevA.03 25-Dec-2016

 --------------------------------------
 #P UB3LYP/6-311++G(d,p) nosym opt freq
 --------------------------------------

 --------
 Oxidized
 --------
 Symbolic Z-matrix:
 Charge =  0 Multiplicity = 1

 SCF Done:  E(UB3LYP) =  -883.041914328     A.U. after   16 cycles
 SCF Done:  E(UB3LYP) =  -883.072986946     A.U. after   15 cycles
 SCF Done:  E(UB3LYP) =  -883.091610328     A.U. after   15 cycles
 SCF Done:  E(UB3LYP) =  -883.102340032     A.U. after   16 cycles
 SCF Done:  E(UB3LYP) =  -883.104988498     A.U. after   15 cycles
 SCF Done:  E(UB3LYP) =  -883.107963562     A.U. after   14 cycles
 SCF Done:  E(UB3LYP) =  -883.108943533     A.U. after   14 cycles
 SCF Done:  E(UB3LYP) =  -883.111198787     A.U. after   14 cycles
 SCF Done:  E(UB3LYP) =  -883.112434385     A.U. after   14 cycles
 SCF Done:  E(UB3LYP) =  -883.113230370     A.U. after   13 cycles
 SCF Done:  E(UB3LYP) =  -883.115436957     A.U. after   12 cycles
 SCF Done:  E(UB3LYP) =  -883.115459349     A.U. after   12 cycles
 SCF Done:  E(UB3LYP) =  -883.115474041     A.U. after   12 cycles
 SCF Done:  E(UB3LYP) =  -883.115485637     A.U. after   12 cycles
 SCF Done:  E(UB3LYP) =  -883.115491323     A.U. after   12 cycles
 SCF Done:  E(UB3LYP) =  -883.115495115     A.U. after   11 cycles
 SCF Done:  E(UB3LYP) =  -883.115496618     A.U. after   11 cycles
 SCF Done:  E(UB3LYP) =  -883.115496754     A.U. after    9 cycles
 SCF Done:  E(UB3LYP) =  -883.115496825     A.U. after   10 cycles
 Optimization completed.
    -- Stationary point found.
 Normal termination of Gaussian 16 at Wed Dec 20 05:48:23 2023.

 ----------------------------------------------------------------------
 #P Geom=AllCheck Guess=TCheck SCRF=Check GenChk UB3LYP/6-311++G(d,p) F
 req
 ----------------------------------------------------------------------

 Structure from the checkpoint file:  "113.chk"
 --------
 Oxidized
 --------
 Charge =  0 Multiplicity = 1

                          Input orientation:
 ---------------------------------------------------------------------
 Center     Atomic      Atomic             Coordinates (Angstroms)
 Number     Number       Type             X           Y           Z
 ---------------------------------------------------------------------
      1          8           0        1.198425    1.650664    1.846660
      2          6           0        0.652782    0.843489    1.093253
      3          6           0       -0.771819    0.643117    1.115099
      4          6           0       -1.463418   -0.086861    0.177425
      5          7           0       -2.815806   -0.218071    0.202496
      6          6           0       -3.545872    0.245227    1.392851
      7          6           0       -4.956481   -0.340214    1.433904
      8          6           0       -5.797453    0.099757    0.220002
      9          6           0       -4.900055    0.286532   -1.021248
     10          6           0       -3.645712   -0.590170   -0.967223
     11          6           0       -0.652809   -0.846198   -0.866915
     12          8           0       -1.198368   -1.654092   -1.619596
     13          6           0        0.771715   -0.645471   -0.889039
     14          6           0        1.463289    0.084784    0.048471
     15          7           0        2.815624    0.216482    0.022933
     16          6           0        3.545418   -0.245728   -1.168013
     17          6           0        4.955007    0.342124   -1.210287
     18          6           0        5.797817   -0.096419    0.002833
     19          6           0        4.901703   -0.285569    1.244633
     20          6           0        3.645810    0.589010    1.192316
     21          1           0       -1.277576    1.223271    1.873856
     22          1           0       -3.588279    1.344530    1.415232
     23          1           0       -2.983999   -0.069331    2.275805
     24          1           0       -5.433780   -0.039117    2.370143
     25          1           0       -4.876760   -1.431365    1.463065
     26          1           0       -6.570664   -0.648629    0.023911
     27          1           0       -6.320371    1.035025    0.441004
     28          1           0       -5.448742    0.050428   -1.937105
     29          1           0       -4.587494    1.332349   -1.108519
     30          1           0       -3.055903   -0.468970   -1.868695
     31          1           0       -3.913352   -1.650920   -0.914059
     32          1           0        1.277590   -1.225749   -1.647631
     33          1           0        3.589597   -1.344954   -1.190425
     34          1           0        2.982276    0.067925   -2.050467
     35          1           0        5.431972    0.041924   -2.146986
     36          1           0        4.873312    1.433137   -1.239307
     37          1           0        6.569533    0.653577    0.198660
     38          1           0        6.322604   -1.030486   -0.218813
     39          1           0        5.450718   -0.049158    2.160210
     40          1           0        4.591049   -1.331997    1.331422
     41          1           0        3.056958    0.465835    2.094166
     42          1           0        3.911510    1.650286    1.139998
 ---------------------------------------------------------------------

 SCF Done:  E(UB3LYP) =  -883.115496825     A.U. after    1 cycles

 Alpha  occ. eigenvalues --  -19.09571 -19.09571 -14.35518 -14.35517 -10.25354
 Alpha  occ. eigenvalues --  -10.25353 -10.23232 -10.23231 -10.21500 -10.21500
 Alpha  occ. eigenvalues --  -10.20505 -10.20505 -10.18225 -10.18224 -10.17777
 Alpha  occ. eigenvalues --  -10.17777 -10.17735 -10.17735 -10.15946 -10.15945
 Alpha  occ. eigenvalues --   -1.03218  -1.02931  -0.96552  -0.96524  -0.83759
 Alpha  occ. eigenvalues --   -0.82226  -0.79561  -0.77262  -0.77147  -0.74535
 Alpha  occ. eigenvalues --   -0.69815  -0.68524  -0.65944  -0.65347  -0.63659
 Alpha  occ. eigenvalues --   -0.60150  -0.58172  -0.55637  -0.54753  -0.53330
 Alpha  occ. eigenvalues --   -0.52057  -0.51785  -0.50764  -0.49889  -0.46044
 Alpha  occ. eigenvalues --   -0.45470  -0.45239  -0.45154  -0.43855  -0.43289
 Alpha  occ. eigenvalues --   -0.42645  -0.42584  -0.42297  -0.41405  -0.41318
 Alpha  occ. eigenvalues --   -0.41191  -0.39977  -0.38946  -0.38654  -0.38122
 Alpha  occ. eigenvalues --   -0.37945  -0.37561  -0.35129  -0.35084  -0.33982
 Alpha  occ. eigenvalues --   -0.33954  -0.33299  -0.33251  -0.31005  -0.30403
 Alpha  occ. eigenvalues --   -0.25176  -0.24770  -0.22423  -0.20700
 Alpha virt. eigenvalues --   -0.09119  -0.01534  -0.01336   0.00271   0.00426
 Alpha virt. eigenvalues --    0.00580   0.00826   0.01076   0.01438   0.01766
 Alpha virt. eigenvalues --    0.02767   0.03248   0.03360   0.03552   0.03677

  Beta  occ. eigenvalues --  -19.09571 -19.09571 -14.35518 -14.35517 -10.25354
  Beta  occ. eigenvalues --  -10.25353 -10.23232 -10.23231 -10.21500 -10.21500
  Beta  occ. eigenvalues --  -10.20505 -10.20505 -10.18225 -10.18224 -10.17777
  Beta  occ. eigenvalues --  -10.17777 -10.17735 -10.17735 -10.15946 -10.15945
  Beta  occ. eigenvalues --   -1.03218  -1.02931  -0.96552  -0.96524  -0.83759
  Beta  occ. eigenvalues --   -0.82226  -0.79561  -0.77262  -0.77147  -0.74535
  Beta  occ. eigenvalues --   -0.69815  -0.68524  -0.65944  -0.65347  -0.63659
  Beta  occ. eigenvalues --   -0.60150  -0.58172  -0.55637  -0.54753  -0.53330
  Beta  occ. eigenvalues --   -0.52057  -0.51785  -0.50764  -0.49889  -0.46044
  Beta  occ. eigenvalues --   -0.45470  -0.45239  -0.45154  -0.43855  -0.43289
  Beta  occ. eigenvalues --   -0.42645  -0.42584  -0.42297  -0.41405  -0.41318
  Beta  occ. eigenvalues --   -0.41191  -0.39977  -0.38946  -0.38654  -0.38122
  Beta  occ. eigenvalues --   -0.37945  -0.37561  -0.35129  -0.35084  -0.33982
  Beta  occ. eigenvalues --   -0.33954  -0.33299  -0.33251  -0.31005  -0.30403
  Beta  occ. eigenvalues --   -0.25176  -0.24770  -0.22423  -0.20700
  Beta virt. eigenvalues --   -0.09119  -0.01534  -0.01336   0.00271   0.00426
  Beta virt. eigenvalues --    0.00580   0.00826   0.01076   0.01438   0.01766
  Beta virt. eigenvalues --    0.02767   0.03248   0.03360   0.03552   0.03677

 Mulliken charges and spin densities:
               1          2
     1  O   -0.254328  -0.000000
     2  C   -0.108959  -0.000000
     3  C    0.028080  -0.000000
     4  C   -0.309347   0.000000
     5  N    0.294279  -0.000000
     6  C   -0.147891  -0.000000
     7  C   -0.465033   0.000000
     8  C   -0.510710   0.000000
     9  C   -0.252188  -0.000000
    10  C   -0.265610  -0.000000
    11  C   -0.108959   0.000000
    12  O   -0.254364  -0.000000
    13  C    0.028399  -0.000000
    14  C   -0.307852  -0.000000
    15  N    0.294225  -0.000000
    16  C   -0.148590   0.000000
    17  C   -0.464226  -0.000000
    18  C   -0.511069  -0.000000
    19  C   -0.252545  -0.000000
    20  C   -0.265006  -0.000000
    21  H    0.230902  -0.000000
    22  H    0.170070   0.000000
    23  H    0.186324   0.000000
    24  H    0.172414  -0.000000
    25  H    0.179823  -0.000000
    26  H    0.154834   0.000000
    27  H    0.153536  -0.000000
    28  H    0.174637   0.000000
    29  H    0.164781  -0.000000
    30  H    0.208600   0.000000
    31  H    0.194845  -0.000000
    32  H    0.230891  -0.000000
    33  H    0.170102   0.000000
    34  H    0.186299  -0.000000
    35  H    0.172396   0.000000
    36  H    0.179805   0.000000
    37  H    0.154857   0.000000
    38  H    0.153557  -0.000000
    39  H    0.174657  -0.000000
    40  H    0.164782   0.000000
    41  H    0.208596   0.000000
    42  H    0.194990  -0.000000
 Sum of Mulliken charges =  -0.00000   0.00000

 Dipole moment (field-independent basis, Debye):
    X=              0.0002    Y=              0.0042    Z=             -0.0032  Tot=              0.0053
 Quadrupole moment (field-independent basis, Debye-Ang):
   XX=            -87.4802   YY=           -130.4587   ZZ=           -125.2227
   XY=             -5.1028   XZ=             -7.0990   YZ=             -7.8113

  Exact polarizability: 342.859  26.178 163.088  19.155  26.287 185.574
 Approx polarizability: 445.001  80.791 290.985  72.751  69.517 305.677

                      1                      2                      3
                      A                      A                      A
 Frequencies --     17.3969                48.2967                55.1746
 Red. masses --      4.5931                 3.0830                 3.6206
 Frc consts  --      0.0008                 0.0042                 0.0065
 IR Inten    --      2.6685                 0.0001                 2.9986

                      4                      5                      6
                      A                      A                      A
 Frequencies --     58.7406                73.4147               124.2299
 Red. masses --      2.7621                 4.0703                 2.6798
 Frc consts  --      0.0056                 0.0129                 0.0244
 IR Inten    --      0.9750                 0.0000                 2.0632

                      7                      8                      9
                      A                      A                      A
 Frequencies --    131.6177               135.0396               166.3161
 Red. masses --      2.5603                 6.1043                 3.4750
 Frc consts  --      0.0261                 0.0656                 0.0566
 IR Inten    --      0.0001                 4.0611                 0.0000

                     10                     11                     12
                      A                      A                      A
 Frequencies --    179.9194               205.3182               224.9585
 Red. masses --      3.1129                 4.5516                 5.0640
 Frc consts  --      0.0594                 0.1131                 0.1510
 IR Inten    --      1.4197                 0.0000                 0.0000

                     13                     14                     15
                      A                      A                      A
 Frequencies --    282.1904               284.2949               300.6399
 Red. masses --      1.8277                 1.8681                 2.3372
 Frc consts  --      0.0858                 0.0890                 0.1245
 IR Inten    --      0.1302                 0.0001                 0.0033

                     16                     17                     18
                      A                      A                      A
 Frequencies --    303.1111               328.8122               344.4781
 Red. masses --      2.4970                 5.8482                 5.4742
 Frc consts  --      0.1352                 0.3725                 0.3827
 IR Inten    --      9.5327                12.8262                 0.0000

                     19                     20                     21
                      A                      A                      A
 Frequencies --    373.4785               443.1952               458.7385
 Red. masses --      4.6970                 7.6198                 4.3761
 Frc consts  --      0.3860                 0.8818                 0.5426
 IR Inten    --      2.5906                 0.0000                23.9464

                     22                     23                     24
                      A                      A                      A
 Frequencies --    465.0993               468.5028               486.9704
 Red. masses --      3.2823                 2.9655                 3.1028
 Frc consts  --      0.4183                 0.3835                 0.4335
 IR Inten    --      4.7236                 0.0000                 3.4870

                     25                     26                     27
                      A                      A                      A
 Frequencies --    514.6467               532.4747               564.4925
 Red. masses --      5.0088                 6.7343                 1.9608
 Frc consts  --      0.7816                 1.1250                 0.3681
 IR Inten    --      0.0000                 0.0000                 1.8521

                     28                     29                     30
                      A                      A                      A
 Frequencies --    577.4963               646.6892               658.4143
 Red. masses --      2.1180                 3.8747                 3.3211
 Frc consts  --      0.4162                 0.9547                 0.8483
 IR Inten    --      0.0000                 0.0000                 2.2048

                     31                     32                     33
                      A                      A                      A
 Frequencies --    700.8184               753.4571               758.5081
 Red. masses --      4.5960                 1.9554                 6.1116
 Frc consts  --      1.3300                 0.6540                 2.0717
 IR Inten    --      0.0000                 0.0000                12.7872

                     34                     35                     36
                      A                      A                      A
 Frequencies --    776.7240               778.5494               813.0137
 Red. masses --      1.3446                 1.3410                 4.4379
 Frc consts  --      0.4779                 0.4789                 1.7283
 IR Inten    --      2.4733                 0.0000                 0.0000

                     37                     38                     39
                      A                      A                      A
 Frequencies --    821.8738               836.5974               839.9288
 Red. masses --      4.5893                 2.3700                 1.9013
 Frc consts  --      1.8265                 0.9773                 0.7903
 IR Inten    --      6.4632                 0.0003                56.3198

                     40                     41                     42
                      A                      A                      A
 Frequencies --    854.1369               876.3723               883.6208
 Red. masses --      2.3187                 3.1809                 1.5595
 Frc consts  --      0.9967                 1.4394                 0.7174
 IR Inten    --     30.7353                 0.0001                 4.2206

                     43                     44                     45
                      A                      A                      A
 Frequencies --    883.8632               920.5069               922.2833
 Red. masses --      1.4843                 2.4152                 2.3094
 Frc consts  --      0.6832                 1.2057                 1.1574
 IR Inten    --      0.0050                 7.6706                 0.0002

                     46                     47                     48
                      A                      A                      A
 Frequencies --    943.6183               991.6383               991.7267
 Red. masses --      2.6483                 1.4834                 1.4747
 Frc consts  --      1.3894                 0.8595                 0.8545
 IR Inten    --     57.0077                 3.8031                 0.0025

                     49                     50                     51
                      A                      A                      A
 Frequencies --   1021.5337              1024.5156              1041.0919
 Red. masses --      2.2103                 2.2692                 2.0558
 Frc consts  --      1.3589                 1.4033                 1.3128
 IR Inten    --      0.0000                45.3026                 0.0000

                     52                     53                     54
                      A                      A                      A
 Frequencies --   1047.8271              1098.0960              1099.0847
 Red. masses --      2.0080                 1.7505                 1.7725
 Frc consts  --      1.2990                 1.2436                 1.2615
 IR Inten    --      4.0695                 0.6782                 0.0001

                     55                     56                     57
                      A                      A                      A
 Frequencies --   1125.6404              1129.2887              1140.5888
 Red. masses --      3.7109                 2.9057                 2.1648
 Frc consts  --      2.7703                 2.1833                 1.6593
 IR Inten    --     13.9277                 0.0000                18.7292

                     58                     59                     60
                      A                      A                      A
 Frequencies --   1142.5601              1196.8896              1198.6034
 Red. masses --      2.2872                 1.2505                 1.2029
 Frc consts  --      1.7592                 1.0554                 1.0182
 IR Inten    --      0.0002               161.4858                 0.0010

                     61                     62                     63
                      A                      A                      A
 Frequencies --   1230.5776              1239.7579              1257.8634
 Red. masses --      2.0399                 1.4919                 1.8715
 Frc consts  --      1.8200                 1.3510                 1.7446
 IR Inten    --    251.4720                 0.0000                 0.0009

                     64                     65                     66
                      A                      A                      A
 Frequencies --   1262.2757              1268.0414              1274.3119
 Red. masses --      1.3494                 1.3214                 1.3128
 Frc consts  --      1.2667                 1.2518                 1.2561
 IR Inten    --    119.9060                 0.0001               144.5006

                     67                     68                     69
                      A                      A                      A
 Frequencies --   1279.2323              1294.5203              1298.8026
 Red. masses --      1.2805                 1.2525                 1.1640
 Frc consts  --      1.2347                 1.2367                 1.1569
 IR Inten    --      0.0007               112.2791                 0.0000

                     70                     71                     72
                      A                      A                      A
 Frequencies --   1312.8476              1352.9021              1355.2237
 Red. masses --      1.8908                 1.6408                 1.2942
 Frc consts  --      1.9202                 1.7694                 1.4005
 IR Inten    --     95.9668                28.6373                 0.0004

                     73                     74                     75
                      A                      A                      A
 Frequencies --   1357.3576              1367.8179              1370.2893
 Red. masses --      1.3189                 1.6282                 1.3227
 Frc consts  --      1.4317                 1.7948                 1.4633
 IR Inten    --     13.6902                 0.0000                 5.7094

                     76                     77                     78
                      A                      A                      A
 Frequencies --   1371.1652              1380.6292              1382.4306
 Red. masses --      1.6933                 1.3693                 1.4026
 Frc consts  --      1.8758                 1.5378                 1.5793
 IR Inten    --      0.0010                 0.0005                15.4597

                     79                     80                     81
                      A                      A                      A
 Frequencies --   1388.7237              1388.8511              1398.8666
 Red. masses --      1.4251                 1.4217                 1.4896
 Frc consts  --      1.6193                 1.6158                 1.7174
 IR Inten    --      2.2692                 0.0159                26.1897

                     82                     83                     84
                      A                      A                      A
 Frequencies --   1406.3710              1426.8348              1442.5618
 Red. masses --      1.8978                 3.8340                 4.6636
 Frc consts  --      2.2116                 4.5988                 5.7179
 IR Inten    --      0.0000                 0.0001               114.5592

                     85                     86                     87
                      A                      A                      A
 Frequencies --   1486.0598              1486.2497              1492.6782
 Red. masses --      1.0799                 1.0788                 1.0841
 Frc consts  --      1.4051                 1.4040                 1.4232
 IR Inten    --     11.3088                 0.0005                26.4951

                     88                     89                     90
                      A                      A                      A
 Frequencies --   1492.7480              1502.2920              1503.2058
 Red. masses --      1.0838                 1.1043                 1.0986
 Frc consts  --      1.4229                 1.4685                 1.4626
 IR Inten    --      0.0197               152.4594                 0.0032

                     91                     92                     93
                      A                      A                      A
 Frequencies --   1511.0253              1511.1946              1518.1098
 Red. masses --      1.0823                 1.0830                 1.1007
 Frc consts  --      1.4560                 1.4573                 1.4946
 IR Inten    --      0.0641                 7.6746                58.5835

                     94                     95                     96
                      A                      A                      A
 Frequencies --   1518.8144              1583.3884              1605.4370
 Red. masses --      1.0968                 5.9379                 7.1038
 Frc consts  --      1.4906                 8.7712                10.7876
 IR Inten    --      0.0007              1338.6240                 0.0028

                     97                     98                     99
                      A                      A                      A
 Frequencies --   1661.0951              1674.7054              2967.5969
 Red. masses --      8.7961                11.8243                 1.0723
 Frc consts  --     14.2998                19.5391                 5.5641
 IR Inten    --      0.0018               520.0367                15.1804

                    100                    101                    102
                      A                      A                      A
 Frequencies --   2967.6725              3019.6397              3019.6760
 Red. masses --      1.0724                 1.0730                 1.0730
 Frc consts  --      5.5644                 5.7645                 5.7645
 IR Inten    --     48.1671                 1.1236                30.1155

                    103                    104                    105
                      A                      A                      A
 Frequencies --   3027.2762              3027.2963              3034.1501
 Red. masses --      1.0614                 1.0615                 1.0672
 Frc consts  --      5.7313                 5.7314                 5.7887
 IR Inten    --     53.4344                 0.8954                 0.4957

                    106                    107                    108
                      A                      A                      A
 Frequencies --   3034.1997              3037.3184              3037.4420
 Red. masses --      1.0673                 1.0654                 1.0656
 Frc consts  --      5.7892                 5.7910                 5.7922
 IR Inten    --     72.5884                62.6720                 0.1305

                    109                    110                    111
                      A                      A                      A
 Frequencies --   3055.6492              3055.6668              3061.5475
 Red. masses --      1.0987                 1.0986                 1.0897
 Frc consts  --      6.0439                 6.0438                 6.0177
 IR Inten    --      4.8887                22.1330                 5.0425

                    112                    113                    114
                      A                      A                      A
 Frequencies --   3061.7320              3072.1792              3072.2984
 Red. masses --      1.0897                 1.0998                 1.0997
 Frc consts  --      6.0186                 6.1159                 6.1158
 IR Inten    --     48.4389                74.8569                 0.0208

                    115                    116                    117
                      A                      A                      A
 Frequencies --   3082.6445              3082.7012              3163.7841
 Red. masses --      1.1044                 1.1044                 1.0905
 Frc consts  --      6.1835                 6.1837                 6.4315
 IR Inten    --      0.2211               130.7799                 4.7603

                    118                    119                    120
                      A                      A                      A
 Frequencies --   3163.9982              3209.5065              3211.1562
 Red. masses --      1.0905                 1.0888                 1.0892
 Frc consts  --      6.4323                 6.6081                 6.6171
 IR Inten    --      4.5368                11.1518                 0.0047

 - Thermochemistry -
 -------------------
 Temperature   298.150 Kelvin.  Pressure   1.00000 Atm.
 Atom     1 has atomic number  8 and mass  15.99491

 Molecular mass:   274.16813 amu.
 Principal axes and moments of inertia in atomic units:
                           1         2         3
     Eigenvalues --  1746.56910********************
           X            0.99944  -0.01296  -0.03090
           Y            0.03338   0.46581   0.88426
           Z           -0.00294   0.88479  -0.46598
 This molecule is an asymmetric top.
 Rotational symmetry number  1.
 Warning -- assumption of classical behavior for rotation
           may cause significant error
 Rotational temperatures (Kelvin)      0.04959     0.00694     0.00634
 Rotational constants (GHZ):           1.03331     0.14468     0.13209
 Zero-point vibrational energy     952152.7 (Joules/Mol)
                                  227.56995 (Kcal/Mol)
 Warning -- explicit consideration of  28 degrees of freedom as
           vibrations may cause significant error
 Vibrational temperatures:     25.03    69.49    79.38    84.51   105.63
          (Kelvin)            178.74   189.37   194.29   239.29   258.86
                              295.41   323.67   406.01   409.04   432.55
                              436.11   473.09   495.63   537.35   637.66
                              660.02   669.17   674.07   700.64   740.46
                              766.11   812.18   830.89   930.44   947.31
                             1008.32  1084.06  1091.32  1117.53  1120.16
                             1169.75  1182.49  1203.68  1208.47  1228.91
                             1260.90  1271.33  1271.68  1324.40  1326.96
                             1357.66  1426.75  1426.87  1469.76  1474.05
                             1497.90  1507.59  1579.92  1581.34  1619.55
                             1624.79  1641.05  1643.89  1722.06  1724.52
                             1770.53  1783.74  1809.78  1816.13  1824.43
                             1833.45  1840.53  1862.53  1868.69  1888.89
                             1946.52  1949.86  1952.93  1967.98  1971.54
                             1972.80  1986.42  1989.01  1998.06  1998.25
                             2012.66  2023.45  2052.90  2075.52  2138.11
                             2138.38  2147.63  2147.73  2161.46  2162.78
                             2174.03  2174.27  2184.22  2185.24  2278.14
                             2309.87  2389.95  2409.53  4269.71  4269.82
                             4344.59  4344.64  4355.58  4355.60  4365.47
                             4365.54  4370.02  4370.20  4396.40  4396.42
                             4404.88  4405.15  4420.18  4420.35  4435.24
                             4435.32  4551.98  4552.29  4617.76  4620.14

 Zero-point correction=                           0.362656 (Hartree/Particle)
 Thermal correction to Energy=                    0.380887
 Thermal correction to Enthalpy=                  0.381831
 Thermal correction to Gibbs Free Energy=         0.315252
 Sum of electronic and zero-point Energies=           -882.752841
 Sum of electronic and thermal Energies=              -882.734610
 Sum of electronic and thermal Enthalpies=            -882.733666
 Sum of electronic and thermal Free Energies=         -882.800245

                     E (Thermal)             CV                S
                      KCal/Mol        Cal/Mol-Kelvin    Cal/Mol-Kelvin
 Total                  239.010             71.414            140.128
 Electronic               0.000              0.000              0.000
 Translational            0.889              2.981             42.724
 Rotational               0.889              2.981             34.053
 Vibrational            237.233             65.453             63.351
 Vibration     1          0.593              1.986              6.911
 Vibration     2          0.595              1.978              4.886
 Vibration     3          0.596              1.976              4.623
 Vibration     4          0.596              1.974              4.499
 Vibration     5          0.599              1.967              4.060
 Vibration     6          0.610              1.929              3.033
 Vibration     7          0.612              1.922              2.922
 Vibration     8          0.613              1.918              2.873
 Vibration     9          0.624              1.884              2.477
 Vibration    10          0.629              1.867              2.329
 Vibration    11          0.640              1.832              2.085
 Vibration    12          0.650              1.803              1.919
 Vibration    13          0.681              1.707              1.520
 Vibration    14          0.683              1.703              1.508
 Vibration    15          0.693              1.672              1.413
 Vibration    16          0.695              1.668              1.400
 Vibration    17          0.712              1.618              1.266
 Vibration    18          0.723              1.586              1.191
 Vibration    19          0.745              1.527              1.065
 Vibration    20          0.803              1.376              0.817
 Vibration    21          0.817              1.342              0.770
 Vibration    22          0.823              1.327              0.751
 Vibration    23          0.826              1.320              0.742
 Vibration    24          0.843              1.279              0.692
 Vibration    25          0.870              1.218              0.622
 Vibration    26          0.887              1.178              0.582
 Vibration    27          0.920              1.108              0.515
 Vibration    28          0.934              1.080              0.490

                           ! Non-Optimized Parameters !
 Normal termination of Gaussian 16 at Wed Dec 20 08:11:23 2023.
