 Gaussian 16, Revision A.03,
 Gaussian 16:  ES64L-G16RevA.03 25-Dec-2016

 ----------------------------------------------------------------
 #P UB3LYP/6-311++G(d,p) SCRF=(PCM,Solvent=n,n-DiMethylFormamide)
 ----------------------------------------------------------------

 -------
 Reduced
 -------
 Symbolic Z-matrix:
 Charge = -2 Multiplicity = 1

                         Standard orientation:
 ---------------------------------------------------------------------
 Center     Atomic      Atomic             Coordinates (Angstroms)
 Number     Number       Type             X           Y           Z
 ---------------------------------------------------------------------
      1          6           0       -0.337565   -1.285216    0.094204
      2          6           0        0.909520   -0.705835    0.058145
      3          6           0        1.037485    0.694364   -0.081934
      4          6           0       -1.518270   -0.507425    0.064533
      5          6           0       -1.386602    0.927037   -0.110081
      6          6           0       -0.090597    1.483704   -0.128825
      7          6           0       -2.805883   -1.166211    0.162518
      8          6           0       -3.927570   -0.280801    0.047799
      9          6           0       -3.786739    1.103903   -0.115497
     10          6           0       -2.545952    1.800454   -0.222535
     11          8           0       -2.938626   -2.437019    0.337718
     12          8           0       -2.453001    3.070860   -0.400227
     13          1           0       -0.461712   -2.362753    0.118003
     14          1           0       -0.023582    2.566348   -0.158007
     15         35           0        2.471318   -1.904168   -0.205243
     16         35           0        2.778916    1.598010    0.227140
     17          6           0       -5.297818   -0.903033    0.141547
     18          1           0       -4.684730    1.718420   -0.194407
     19          1           0       -5.455708   -1.378652    1.120024
     20          1           0       -5.414913   -1.708806   -0.595281
     21          1           0       -6.084583   -0.155408   -0.015918
 ---------------------------------------------------------------------

 SCF Done:  E(UB3LYP) =  -5721.92213410     A.U. after   18 cycles

 The electronic state is 1-A.
 Alpha  occ. eigenvalues -- -482.82157-482.82142 -62.47425 -62.47409 -56.29453
 Alpha  occ. eigenvalues --  -56.29437 -56.29080 -56.29070 -56.29064 -56.29054
 Alpha  occ. eigenvalues --  -19.02213 -19.02018 -10.21883 -10.21751 -10.17758
 Alpha  occ. eigenvalues --  -10.17274 -10.16714 -10.16634 -10.14735 -10.14688
 Alpha  occ. eigenvalues --  -10.14208 -10.13608 -10.12509  -8.68364  -8.68348
 Alpha  occ. eigenvalues --   -6.51457  -6.51441  -6.50237  -6.50220  -6.50212
 Alpha  occ. eigenvalues --   -6.50197  -2.62549  -2.62533  -2.62208  -2.62191
 Alpha  occ. eigenvalues --   -2.62191  -2.62175  -2.61222  -2.61222  -2.61206
 Alpha  occ. eigenvalues --   -2.61205  -0.93975  -0.93539  -0.86075  -0.79481
 Alpha  occ. eigenvalues --   -0.78656  -0.76572  -0.72695  -0.71487  -0.66963
 Alpha  occ. eigenvalues --   -0.63250  -0.59564  -0.56733  -0.52963  -0.47895
 Alpha  occ. eigenvalues --   -0.46066  -0.44671  -0.41928  -0.41635  -0.39975
 Alpha  occ. eigenvalues --   -0.39492  -0.38520  -0.37331  -0.36004  -0.35670
 Alpha  occ. eigenvalues --   -0.35067  -0.34322  -0.32272  -0.32195  -0.31574
 Alpha  occ. eigenvalues --   -0.30600  -0.29740  -0.28525  -0.27423  -0.23793
 Alpha  occ. eigenvalues --   -0.22683  -0.21491  -0.20313  -0.19740  -0.11593
 Alpha virt. eigenvalues --   -0.04339  -0.02104  -0.00067   0.00202   0.00373
 Alpha virt. eigenvalues --    0.01034   0.01790   0.03251   0.03431   0.03999
 Alpha virt. eigenvalues --    0.04580   0.04812   0.05427   0.05763   0.06000

  Beta  occ. eigenvalues -- -482.82157-482.82142 -62.47425 -62.47409 -56.29453
  Beta  occ. eigenvalues --  -56.29437 -56.29080 -56.29070 -56.29064 -56.29054
  Beta  occ. eigenvalues --  -19.02213 -19.02018 -10.21883 -10.21751 -10.17758
  Beta  occ. eigenvalues --  -10.17274 -10.16714 -10.16634 -10.14735 -10.14688
  Beta  occ. eigenvalues --  -10.14208 -10.13608 -10.12509  -8.68364  -8.68348
  Beta  occ. eigenvalues --   -6.51457  -6.51441  -6.50237  -6.50220  -6.50212
  Beta  occ. eigenvalues --   -6.50197  -2.62549  -2.62533  -2.62208  -2.62191
  Beta  occ. eigenvalues --   -2.62191  -2.62175  -2.61222  -2.61222  -2.61206
  Beta  occ. eigenvalues --   -2.61205  -0.93975  -0.93539  -0.86075  -0.79481
  Beta  occ. eigenvalues --   -0.78656  -0.76572  -0.72695  -0.71487  -0.66963
  Beta  occ. eigenvalues --   -0.63250  -0.59564  -0.56733  -0.52963  -0.47895
  Beta  occ. eigenvalues --   -0.46066  -0.44671  -0.41928  -0.41635  -0.39975
  Beta  occ. eigenvalues --   -0.39492  -0.38520  -0.37331  -0.36004  -0.35670
  Beta  occ. eigenvalues --   -0.35067  -0.34322  -0.32272  -0.32195  -0.31574
  Beta  occ. eigenvalues --   -0.30600  -0.29740  -0.28525  -0.27423  -0.23793
  Beta  occ. eigenvalues --   -0.22683  -0.21491  -0.20313  -0.19740  -0.11593
  Beta virt. eigenvalues --   -0.04339  -0.02104  -0.00067   0.00202   0.00373
  Beta virt. eigenvalues --    0.01034   0.01790   0.03251   0.03431   0.03999
  Beta virt. eigenvalues --    0.04580   0.04812   0.05427   0.05763   0.06000

 Mulliken charges and spin densities:
               1          2
     1  C   -0.215107  -0.000000
     2  C   -0.003181   0.000000
     3  C    0.221324  -0.000000
     4  C    0.141288  -0.000000
     5  C    0.379119   0.000000
     6  C   -0.350412  -0.000000
     7  C   -0.673430  -0.000000
     8  C    0.806332   0.000000
     9  C   -0.354599   0.000000
    10  C   -0.774590  -0.000000
    11  O   -0.665746   0.000000
    12  O   -0.681397   0.000000
    13  H    0.201428   0.000000
    14  H    0.200356  -0.000000
    15  Br  -0.214469  -0.000000
    16  Br  -0.212102   0.000000
    17  C   -0.339379  -0.000000
    18  H    0.106777  -0.000000
    19  H    0.145076  -0.000000
    20  H    0.147401  -0.000000
    21  H    0.135313   0.000000
 Sum of Mulliken charges =  -2.00000  -0.00000

 Dipole moment (field-independent basis, Debye):
    X=             16.0563    Y=             -2.4203    Z=              0.2569  Tot=             16.2397
 Quadrupole moment (field-independent basis, Debye-Ang):
   XX=           -190.4575   YY=           -179.9564   ZZ=           -123.7104
   XY=              2.9277   XZ=             -0.0899   YZ=              7.4137

 Normal termination of Gaussian 16 at Sun Jan 21 08:45:36 2024.
