 Gaussian 16, Revision A.03,
 Gaussian 16:  ES64L-G16RevA.03 25-Dec-2016

 ----------------------------------------------------------------------
 #P UB3LYP/6-311++G(d,p) nosym opt freq SCRF=(PCM,Solvent=n,n-DiMethylF
 ormamide)
 ----------------------------------------------------------------------

 --------
 Oxidized
 --------
 Symbolic Z-matrix:
 Charge =  0 Multiplicity = 1

 SCF Done:  E(UB3LYP) =  -1243.28769064     A.U. after   16 cycles
 SCF Done:  E(UB3LYP) =  -1243.28783575     A.U. after   12 cycles
 SCF Done:  E(UB3LYP) =  -1243.28788353     A.U. after   13 cycles
 SCF Done:  E(UB3LYP) =  -1243.28791775     A.U. after   11 cycles
 SCF Done:  E(UB3LYP) =  -1243.28792226     A.U. after   11 cycles
 SCF Done:  E(UB3LYP) =  -1243.28793689     A.U. after   12 cycles
 SCF Done:  E(UB3LYP) =  -1243.28794542     A.U. after   13 cycles
 SCF Done:  E(UB3LYP) =  -1243.28795525     A.U. after   11 cycles
 SCF Done:  E(UB3LYP) =  -1243.28796579     A.U. after   12 cycles
 SCF Done:  E(UB3LYP) =  -1243.28796626     A.U. after   11 cycles
 SCF Done:  E(UB3LYP) =  -1243.28796644     A.U. after   10 cycles
 SCF Done:  E(UB3LYP) =  -1243.28796655     A.U. after    9 cycles
 SCF Done:  E(UB3LYP) =  -1243.28796661     A.U. after    9 cycles
 SCF Done:  E(UB3LYP) =  -1243.28796677     A.U. after    9 cycles
 SCF Done:  E(UB3LYP) =  -1243.28796688     A.U. after    9 cycles
 Optimization completed.
    -- Stationary point found.
 Normal termination of Gaussian 16 at Sat Feb 10 16:51:15 2024.

 ----------------------------------------------------------------------
 #P Geom=AllCheck Guess=TCheck SCRF=Check GenChk UB3LYP/6-311++G(d,p) F
 req
 ----------------------------------------------------------------------

 Structure from the checkpoint file:  "162.chk"
 --------
 Oxidized
 --------
 Charge =  0 Multiplicity = 1

                          Input orientation:
 ---------------------------------------------------------------------
 Center     Atomic      Atomic             Coordinates (Angstroms)
 Number     Number       Type             X           Y           Z
 ---------------------------------------------------------------------
      1          6           0       -4.382238   -0.448060   -0.235765
      2          6           0       -2.902524   -0.704072   -0.160010
      3          6           0       -2.395369   -1.965916   -0.357461
      4          6           0       -1.022315   -2.243287   -0.272752
      5         17           0       -0.603242   -3.926749   -0.572308
      6          6           0       -0.102384   -1.232782   -0.005880
      7          6           0        1.360871   -1.509315    0.131483
      8          8           0        1.806030   -2.644249    0.239365
      9          6           0        2.289182   -0.349171    0.145461
     10          6           0        3.668780   -0.574167    0.070410
     11          6           0        4.553064    0.497022    0.097084
     12          6           0        4.066220    1.802933    0.214722
     13          6           0        2.698335    2.031766    0.302185
     14          6           0        1.800966    0.958174    0.261312
     15          6           0        0.341162    1.220782    0.355709
     16          8           0       -0.039745    2.383082    0.562915
     17          6           0       -0.594730    0.105223    0.166452
     18          6           0       -1.997292    0.368092    0.117434
     19          7           0       -2.509381    1.602651    0.325242
     20          1           0       -4.767861   -0.053544    0.710587
     21          1           0       -4.623939    0.280809   -1.017278
     22          1           0       -4.922370   -1.367455   -0.459518
     23          1           0       -3.073493   -2.780744   -0.578666
     24          1           0        4.029611   -1.591305   -0.011815
     25          1           0        5.619961    0.319735    0.028823
     26          1           0        4.756192    2.638316    0.239201
     27          1           0        2.307859    3.036179    0.400603
     28          1           0       -1.868376    2.370517    0.478829
     29          1           0       -3.492972    1.775536    0.206704
 ---------------------------------------------------------------------

 SCF Done:  E(UB3LYP) =  -1243.28796688     A.U. after    2 cycles

 Alpha  occ. eigenvalues -- -101.56150 -19.12694 -19.12570 -14.33978 -10.28345
 Alpha  occ. eigenvalues --  -10.27976 -10.25402 -10.25285 -10.21939 -10.21144
 Alpha  occ. eigenvalues --  -10.20932 -10.20661 -10.20585 -10.20300 -10.19737
 Alpha  occ. eigenvalues --  -10.19683 -10.19627 -10.19559 -10.18243  -9.47625
 Alpha  occ. eigenvalues --   -7.24094  -7.23138  -7.23029  -1.06278  -1.05812
 Alpha  occ. eigenvalues --   -0.95360  -0.90362  -0.88782  -0.84706  -0.82243
 Alpha  occ. eigenvalues --   -0.78264  -0.77705  -0.74864  -0.72581  -0.68394
 Alpha  occ. eigenvalues --   -0.66354  -0.64282  -0.60972  -0.59006  -0.58035
 Alpha  occ. eigenvalues --   -0.55129  -0.53966  -0.51357  -0.50222  -0.48062
 Alpha  occ. eigenvalues --   -0.47874  -0.47225  -0.46201  -0.45330  -0.45095
 Alpha  occ. eigenvalues --   -0.44896  -0.44057  -0.43389  -0.41928  -0.41555
 Alpha  occ. eigenvalues --   -0.40046  -0.39478  -0.39139  -0.37878  -0.37393
 Alpha  occ. eigenvalues --   -0.36794  -0.36732  -0.33113  -0.31752  -0.28728
 Alpha  occ. eigenvalues --   -0.28354  -0.27788  -0.27507  -0.26746  -0.22754
 Alpha virt. eigenvalues --   -0.11596  -0.06930  -0.03773  -0.02058  -0.00896
 Alpha virt. eigenvalues --   -0.00102   0.00292   0.00975   0.01671   0.01927
 Alpha virt. eigenvalues --    0.02749   0.03522   0.03589   0.03696   0.03842

  Beta  occ. eigenvalues -- -101.56150 -19.12694 -19.12570 -14.33978 -10.28345
  Beta  occ. eigenvalues --  -10.27976 -10.25402 -10.25285 -10.21939 -10.21144
  Beta  occ. eigenvalues --  -10.20932 -10.20661 -10.20585 -10.20300 -10.19737
  Beta  occ. eigenvalues --  -10.19683 -10.19627 -10.19559 -10.18243  -9.47625
  Beta  occ. eigenvalues --   -7.24094  -7.23138  -7.23029  -1.06278  -1.05812
  Beta  occ. eigenvalues --   -0.95360  -0.90362  -0.88782  -0.84706  -0.82243
  Beta  occ. eigenvalues --   -0.78264  -0.77705  -0.74864  -0.72581  -0.68394
  Beta  occ. eigenvalues --   -0.66354  -0.64282  -0.60972  -0.59006  -0.58035
  Beta  occ. eigenvalues --   -0.55129  -0.53966  -0.51357  -0.50222  -0.48062
  Beta  occ. eigenvalues --   -0.47874  -0.47225  -0.46201  -0.45330  -0.45095
  Beta  occ. eigenvalues --   -0.44896  -0.44057  -0.43389  -0.41928  -0.41555
  Beta  occ. eigenvalues --   -0.40046  -0.39478  -0.39139  -0.37878  -0.37393
  Beta  occ. eigenvalues --   -0.36794  -0.36732  -0.33113  -0.31752  -0.28728
  Beta  occ. eigenvalues --   -0.28354  -0.27788  -0.27507  -0.26746  -0.22754
  Beta virt. eigenvalues --   -0.11596  -0.06930  -0.03773  -0.02058  -0.00896
  Beta virt. eigenvalues --   -0.00102   0.00292   0.00975   0.01671   0.01927
  Beta virt. eigenvalues --    0.02749   0.03522   0.03589   0.03696   0.03842

 Mulliken charges and spin densities:
               1          2
     1  C   -0.548850   0.000000
     2  C    0.294300   0.000000
     3  C   -0.847415  -0.000000
     4  C    0.714489   0.000000
     5  Cl   0.440442  -0.000000
     6  C    0.647982   0.000000
     7  C   -1.445034  -0.000000
     8  O   -0.206672  -0.000000
     9  C    0.164955   0.000000
    10  C    0.168907  -0.000000
    11  C   -0.366126  -0.000000
    12  C   -0.479577  -0.000000
    13  C    0.194460   0.000000
    14  C   -0.133795  -0.000000
    15  C   -0.341929  -0.000000
    16  O   -0.321991   0.000000
    17  C    0.221079   0.000000
    18  C    0.018432  -0.000000
    19  N   -0.387529   0.000000
    20  H    0.186590   0.000000
    21  H    0.189146   0.000000
    22  H    0.179958   0.000000
    23  H    0.215734  -0.000000
    24  H    0.182869   0.000000
    25  H    0.207104  -0.000000
    26  H    0.203449   0.000000
    27  H    0.193385   0.000000
    28  H    0.345406  -0.000000
    29  H    0.310232  -0.000000
 Sum of Mulliken charges =  -0.00000   0.00000

 Dipole moment (field-independent basis, Debye):
    X=             -3.8587    Y=              4.0046    Z=             -0.8487  Tot=              5.6256
 Quadrupole moment (field-independent basis, Debye-Ang):
   XX=            -77.9307   YY=           -131.1397   ZZ=           -120.2816
   XY=              7.7816   XZ=              0.4854   YZ=              0.0191

  Exact polarizability: 428.256  17.918 362.041  10.231  28.444 144.720
 Approx polarizability: 461.611  -0.733 443.459   9.483  34.113 171.252

                      1                      2                      3
                      A                      A                      A
 Frequencies --     24.9978                46.9421                91.0368
 Red. masses --      7.6853                 7.2837                 5.2766
 Frc consts  --      0.0028                 0.0095                 0.0258
 IR Inten    --      9.3969                 0.7135                 0.3332

                      4                      5                      6
                      A                      A                      A
 Frequencies --    115.2912               141.2922               179.9363
 Red. masses --      5.4701                 5.4218                 5.9899
 Frc consts  --      0.0428                 0.0638                 0.1143
 IR Inten    --      0.7268                 0.0509                 2.2195

                      7                      8                      9
                      A                      A                      A
 Frequencies --    181.9884               200.0020               227.5243
 Red. masses --      4.4513                 1.1365                 1.3793
 Frc consts  --      0.0869                 0.0268                 0.0421
 IR Inten    --      1.8638                82.3679               124.3355

                     10                     11                     12
                      A                      A                      A
 Frequencies --    242.2108               271.8241               291.6906
 Red. masses --      4.2086                 3.9268                 5.3663
 Frc consts  --      0.1455                 0.1709                 0.2690
 IR Inten    --     18.2907                48.2217                 1.3989

                     13                     14                     15
                      A                      A                      A
 Frequencies --    330.3532               354.4445               369.0465
 Red. masses --      6.8098                 7.2898                 5.3033
 Frc consts  --      0.4379                 0.5396                 0.4256
 IR Inten    --      2.7512                19.1059                23.9165

                     16                     17                     18
                      A                      A                      A
 Frequencies --    381.0489               404.7388               426.1816
 Red. masses --      4.6446                 7.6196                 3.5057
 Frc consts  --      0.3973                 0.7354                 0.3752
 IR Inten    --      1.2401                 4.4124                 4.3750

                     19                     20                     21
                      A                      A                      A
 Frequencies --    430.9915               442.5325               487.4440
 Red. masses --      7.4985                 4.9988                 9.7975
 Frc consts  --      0.8207                 0.5768                 1.3716
 IR Inten    --     39.4271                 4.0590                 0.3797

                     22                     23                     24
                      A                      A                      A
 Frequencies --    498.3221               503.4144               584.9318
 Red. masses --      4.7847                 3.9998                 5.8342
 Frc consts  --      0.7000                 0.5972                 1.1761
 IR Inten    --      7.8165                15.0759                10.4643

                     25                     26                     27
                      A                      A                      A
 Frequencies --    596.1653               632.7356               652.0488
 Red. masses --      5.5895                 4.6314                 1.2661
 Frc consts  --      1.1705                 1.0925                 0.3171
 IR Inten    --     10.7297                 1.2246                12.8835

                     28                     29                     30
                      A                      A                      A
 Frequencies --    672.2247               689.9114               726.0998
 Red. masses --      5.6092                 3.1074                 5.1319
 Frc consts  --      1.4934                 0.8714                 1.5941
 IR Inten    --     22.8866                 6.6340                13.1997

                     31                     32                     33
                      A                      A                      A
 Frequencies --    733.9220               750.0232               811.8358
 Red. masses --      3.9419                 2.7214                 6.8428
 Frc consts  --      1.2510                 0.9020                 2.6572
 IR Inten    --     32.7416                80.7987                92.0102

                     34                     35                     36
                      A                      A                      A
 Frequencies --    814.4793               819.7116               823.9961
 Red. masses --      2.6961                 4.5876                 6.0393
 Frc consts  --      1.0538                 1.8162                 2.4160
 IR Inten    --     10.2926                21.0406                20.0785

                     37                     38                     39
                      A                      A                      A
 Frequencies --    908.8598               910.2701               913.2179
 Red. masses --      4.6385                 1.4003                 1.5400
 Frc consts  --      2.2575                 0.6836                 0.7567
 IR Inten    --     39.4352                16.8598                 5.4028

                     40                     41                     42
                      A                      A                      A
 Frequencies --    985.3988              1000.3876              1015.7071
 Red. masses --      3.3483                 1.3889                 1.7988
 Frc consts  --      1.9156                 0.8190                 1.0934
 IR Inten    --    128.0668                 3.9217               115.8551

                     43                     44                     45
                      A                      A                      A
 Frequencies --   1021.0996              1052.6548              1057.5608
 Red. masses --      1.3267                 2.1257                 1.5303
 Frc consts  --      0.8150                 1.3878                 1.0084
 IR Inten    --      0.0890                 3.3210                 3.9765

                     46                     47                     48
                      A                      A                      A
 Frequencies --   1075.4145              1113.6086              1141.5071
 Red. masses --      2.8002                 2.2088                 1.9949
 Frc consts  --      1.9081                 1.6139                 1.5315
 IR Inten    --      4.9512                 0.3711                78.7723

                     49                     50                     51
                      A                      A                      A
 Frequencies --   1179.1327              1193.1540              1217.5563
 Red. masses --      1.1448                 2.5364                 3.3595
 Frc consts  --      0.9378                 2.1275                 2.9343
 IR Inten    --     12.3151               156.7525               119.6422

                     52                     53                     54
                      A                      A                      A
 Frequencies --   1262.2237              1267.5121              1306.1302
 Red. masses --      1.8314                 4.5779                 2.1758
 Frc consts  --      1.7191                 4.3333                 2.1870
 IR Inten    --     42.1521              1208.4935                75.7238

                     55                     56                     57
                      A                      A                      A
 Frequencies --   1350.1736              1358.8664              1376.9747
 Red. masses --      4.3539                 7.7765                 3.4310
 Frc consts  --      4.6764                 8.4603                 3.8329
 IR Inten    --     59.2159                 1.7576                 0.7221

                     58                     59                     60
                      A                      A                      A
 Frequencies --   1402.4104              1415.7347              1440.0483
 Red. masses --      2.1398                 2.3522                 3.2239
 Frc consts  --      2.4795                 2.7778                 3.9390
 IR Inten    --    262.9154               115.3564                23.3264

                     61                     62                     63
                      A                      A                      A
 Frequencies --   1476.6587              1480.3643              1489.9856
 Red. masses --      1.0422                 2.3668                 1.1677
 Frc consts  --      1.3389                 3.0559                 1.5274
 IR Inten    --     15.0385                12.9423                36.5893

                     64                     65                     66
                      A                      A                      A
 Frequencies --   1507.9336              1559.7440              1575.9593
 Red. masses --      2.5974                 7.0449                 2.3565
 Frc consts  --      3.4798                10.0979                 3.4484
 IR Inten    --      9.2344               289.8856               671.2429

                     67                     68                     69
                      A                      A                      A
 Frequencies --   1612.0185              1622.7116              1624.3783
 Red. masses --      4.2746                 4.3217                 3.4089
 Frc consts  --      6.5447                 6.7048                 5.2995
 IR Inten    --     42.2674                68.8987               262.2779

                     70                     71                     72
                      A                      A                      A
 Frequencies --   1654.5487              1694.6388              3015.8911
 Red. masses --      7.3224                11.9662                 1.0404
 Frc consts  --     11.8103                20.2471                 5.5755
 IR Inten    --    192.1596               429.5229                34.0881

                     73                     74                     75
                      A                      A                      A
 Frequencies --   3061.0400              3122.1888              3177.1867
 Red. masses --      1.1002                 1.0977                 1.0875
 Frc consts  --      6.0736                 6.3045                 6.4682
 IR Inten    --     18.1357                19.6753                 3.9752

                     76                     77                     78
                      A                      A                      A
 Frequencies --   3190.0749              3192.2342              3205.2297
 Red. masses --      1.0921                 1.0918                 1.0926
 Frc consts  --      6.5478                 6.5551                 6.6137
 IR Inten    --     16.4569                 6.8918                 4.9691

                     79                     80                     81
                      A                      A                      A
 Frequencies --   3208.2090              3512.2716              3697.3146
 Red. masses --      1.0944                 1.0545                 1.0967
 Frc consts  --      6.6369                 7.6640                 8.8332
 IR Inten    --     18.5710               152.3759               195.8154

 - Thermochemistry -
 -------------------
 Temperature   298.150 Kelvin.  Pressure   1.00000 Atm.
 Atom     1 has atomic number  6 and mass  12.00000

 Molecular mass:   271.04001 amu.
 Principal axes and moments of inertia in atomic units:
                           1         2         3
     Eigenvalues --  3381.708726154.290839474.34812
           X            0.92325  -0.38312  -0.02868
           Y            0.37652   0.91713  -0.13080
           Z            0.07642   0.10997   0.99099
 This molecule is an asymmetric top.
 Rotational symmetry number  1.
 Warning -- assumption of classical behavior for rotation
           may cause significant error
 Rotational temperatures (Kelvin)      0.02561     0.01407     0.00914
 Rotational constants (GHZ):           0.53368     0.29325     0.19049
 Zero-point vibrational energy     559837.5 (Joules/Mol)
                                  133.80438 (Kcal/Mol)
 Warning -- explicit consideration of  25 degrees of freedom as
           vibrations may cause significant error
 Vibrational temperatures:     35.97    67.54   130.98   165.88   203.29
          (Kelvin)            258.89   261.84   287.76   327.36   348.49
                              391.09   419.68   475.30   509.97   530.98
                              548.24   582.33   613.18   620.10   636.71
                              701.32   716.97   724.30   841.59   857.75
                              910.37   938.15   967.18   992.63  1044.70
                             1055.95  1079.12  1168.05  1171.85  1179.38
                             1185.55  1307.65  1309.68  1313.92  1417.77
                             1439.33  1461.38  1469.13  1514.54  1521.59
                             1547.28  1602.23  1642.37  1696.51  1716.68
                             1751.79  1816.06  1823.67  1879.23  1942.60
                             1955.11  1981.16  2017.76  2036.93  2071.91
                             2124.58  2129.91  2143.76  2169.58  2244.12
                             2267.45  2319.34  2334.72  2337.12  2380.53
                             2438.21  4339.19  4404.15  4492.13  4571.26
                             4589.81  4592.91  4611.61  4615.90  5053.38
                             5319.61

 Zero-point correction=                           0.213231 (Hartree/Particle)
 Thermal correction to Energy=                    0.228832
 Thermal correction to Enthalpy=                  0.229776
 Thermal correction to Gibbs Free Energy=         0.169889
 Sum of electronic and zero-point Energies=          -1243.074736
 Sum of electronic and thermal Energies=             -1243.059135
 Sum of electronic and thermal Enthalpies=           -1243.058191
 Sum of electronic and thermal Free Energies=        -1243.118078

                     E (Thermal)             CV                S
                      KCal/Mol        Cal/Mol-Kelvin    Cal/Mol-Kelvin
 Total                  143.594             61.255            126.044
 Electronic               0.000              0.000              0.000
 Translational            0.889              2.981             42.690
 Rotational               0.889              2.981             33.644
 Vibrational            141.817             55.294             49.710
 Vibration     1          0.593              1.985              6.191
 Vibration     2          0.595              1.979              4.942
 Vibration     3          0.602              1.956              3.638
 Vibration     4          0.608              1.937              3.178
 Vibration     5          0.615              1.912              2.786
 Vibration     6          0.629              1.867              2.329
 Vibration     7          0.630              1.864              2.308
 Vibration     8          0.638              1.840              2.133
 Vibration     9          0.651              1.799              1.898
 Vibration    10          0.658              1.776              1.787
 Vibration    11          0.675              1.725              1.585
 Vibration    12          0.687              1.689              1.464
 Vibration    13          0.713              1.615              1.258
 Vibration    14          0.730              1.566              1.146
 Vibration    15          0.741              1.536              1.084
 Vibration    16          0.751              1.511              1.035
 Vibration    17          0.770              1.460              0.945
 Vibration    18          0.788              1.413              0.871
 Vibration    19          0.792              1.403              0.855
 Vibration    20          0.802              1.377              0.819
 Vibration    21          0.843              1.278              0.690
 Vibration    22          0.854              1.254              0.662
 Vibration    23          0.859              1.242              0.650
 Vibration    24          0.942              1.064              0.476
 Vibration    25          0.954              1.040              0.456

                           ! Non-Optimized Parameters !
 Normal termination of Gaussian 16 at Sat Feb 10 17:35:11 2024.
