 Q-Chem 5.4, Q-Chem, Inc., Pleasanton, CA (2021)
 Q-Chem 5.4.0 for Intel X86 EM64T Linux

User input:
--------------------------------------------------------------
$molecule
-2 1
C                  1.0080280000      4.2977880000      5.3424610000
C                  1.2297930000      4.0008060000      3.9424480000
C                  0.8424110000      2.8358000000      3.3333400000
C                  0.1462980000      1.7699750000      4.0160520000
C                 -0.0874750000      2.0479370000      5.4090640000
C                  0.3202130000      3.2654000000      6.0505450000
O                  1.4488860000      5.3800880000      5.8781500000
O                 -0.2466480000      0.7222430000      3.3932480000
H                  1.7488380000      4.7726440000      3.3746430000
H                  1.0316620000      2.6690610000      2.2739410000
S                 -1.1174830000      0.8843230000      6.2576960000
C                  0.2349790000      3.4993230000      7.5193170000
O                  0.9767400000      3.0666200000      8.3751240000
O                 -0.7640330000      4.3822940000      7.8404660000
C                 -0.8307770000      4.7409530000      9.2130590000
H                 -1.6568000000      5.4516750000      9.2974060000
H                  0.1018620000      5.2100440000      9.5422840000
H                 -1.0224740000      3.8632550000      9.8381520000
C                 -2.6829260000      0.8479310000      5.3313740000
C                 -2.8395070000      0.0109440000      4.2209900000
C                 -3.7205390000      1.6878870000      5.7432630000
C                 -4.0533660000      0.0205910000      3.5325810000
C                 -4.9286760000      1.6864750000      5.0498170000
C                 -5.1000110000      0.8500250000      3.9401620000
O                 -0.5994750000     -0.5005370000      6.2446090000
O                 -1.4921360000      1.4443040000      7.5817460000
H                 -2.0040100000     -0.5984810000      3.9093730000
H                 -3.5630040000      2.3256150000      6.6048140000
H                 -4.1783770000     -0.6213710000      2.6647460000
H                 -5.7364140000      2.3373920000      5.3730400000
H                 -6.0401570000      0.8522280000      3.3948480000
$end
$rem
MAX_SCF_CYCLES=200
BASIS  =  6-311++G(d,p)
GUI  =  2
JOB_TYPE  =  SP
METHOD  =  B3LYP
SOLVENT_METHOD = PCM
$end
$pcm
theory = CPCM
$end
$solvent
dielectric 37.219
opticaldielectric 1.43
$end

--------------------------------------------------------------

             Standard Nuclear Orientation (Angstroms)
    I     Atom           X                Y                Z
 ----------------------------------------------------------------
    1      C       1.0080280000     4.2977880000     5.3424610000
    2      C       1.2297930000     4.0008060000     3.9424480000
    3      C       0.8424110000     2.8358000000     3.3333400000
    4      C       0.1462980000     1.7699750000     4.0160520000
    5      C      -0.0874750000     2.0479370000     5.4090640000
    6      C       0.3202130000     3.2654000000     6.0505450000
    7      O       1.4488860000     5.3800880000     5.8781500000
    8      O      -0.2466480000     0.7222430000     3.3932480000
    9      H       1.7488380000     4.7726440000     3.3746430000
   10      H       1.0316620000     2.6690610000     2.2739410000
   11      S      -1.1174830000     0.8843230000     6.2576960000
   12      C       0.2349790000     3.4993230000     7.5193170000
   13      O       0.9767400000     3.0666200000     8.3751240000
   14      O      -0.7640330000     4.3822940000     7.8404660000
   15      C      -0.8307770000     4.7409530000     9.2130590000
   16      H      -1.6568000000     5.4516750000     9.2974060000
   17      H       0.1018620000     5.2100440000     9.5422840000
   18      H      -1.0224740000     3.8632550000     9.8381520000
   19      C      -2.6829260000     0.8479310000     5.3313740000
   20      C      -2.8395070000     0.0109440000     4.2209900000
   21      C      -3.7205390000     1.6878870000     5.7432630000
   22      C      -4.0533660000     0.0205910000     3.5325810000
   23      C      -4.9286760000     1.6864750000     5.0498170000
   24      C      -5.1000110000     0.8500250000     3.9401620000
   25      O      -0.5994750000    -0.5005370000     6.2446090000
   26      O      -1.4921360000     1.4443040000     7.5817460000
   27      H      -2.0040100000    -0.5984810000     3.9093730000
   28      H      -3.5630040000     2.3256150000     6.6048140000
   29      H      -4.1783770000    -0.6213710000     2.6647460000
   30      H      -5.7364140000     2.3373920000     5.3730400000
   31      H      -6.0401570000     0.8522280000     3.3948480000
 ----------------------------------------------------------------

    9   -1389.5548216522      6.39e-06  Convergence criterion met
 Total energy in the final basis set =    -1389.5548216522

                    Orbital Energies (a.u.)
 --------------------------------------------------------------

 Alpha MOs
 -- Occupied --
-89.0376 -19.1547 -19.1073 -19.1058 -19.1024 -19.0401 -19.0321 -10.2968
-10.2079 -10.2048 -10.1991 -10.1951 -10.1824 -10.1794 -10.1783 -10.1778
-10.1768 -10.1765 -10.1589 -10.1494 -10.1469  -8.1011  -6.0642  -6.0629
 -6.0617  -1.0980  -1.0930  -1.0119  -0.9897  -0.9624  -0.9515  -0.8637
 -0.8125  -0.7696  -0.7519  -0.7498  -0.7255  -0.6847  -0.6519  -0.6131
 -0.6091  -0.5925  -0.5579  -0.5475  -0.5247  -0.4951  -0.4820  -0.4756
 -0.4744  -0.4695  -0.4665  -0.4516  -0.4440  -0.4376  -0.4307  -0.4250
 -0.4101  -0.3862  -0.3842  -0.3828  -0.3720  -0.3685  -0.3594  -0.3565
 -0.3485  -0.3441  -0.3359  -0.3290  -0.3155  -0.3032  -0.2935  -0.2883
 -0.2832  -0.2662  -0.2612  -0.2463  -0.2396  -0.2170  -0.2126  -0.1432

          Ground-State Mulliken Net Atomic Charges

     Atom                 Charge (a.u.)
  ----------------------------------------
      1 C                    -0.426531
      2 C                    -0.217382
      3 C                     0.004455
      4 C                    -0.180379
      5 C                     0.192292
      6 C                     0.602153
      7 O                    -0.671793
      8 O                    -0.565285
      9 H                     0.180278
     10 H                     0.185804
     11 S                    -0.174295
     12 C                    -0.494752
     13 O                    -0.247482
     14 O                     0.002835
     15 C                    -0.258696
     16 H                     0.163679
     17 H                     0.178321
     18 H                     0.174410
     19 C                     0.084879
     20 C                     0.037239
     21 C                    -0.026094
     22 C                    -0.420502
     23 C                    -0.463282
     24 C                    -0.331393
     25 O                    -0.212883
     26 O                    -0.252501
     27 H                     0.276681
     28 H                     0.218246
     29 H                     0.219047
     30 H                     0.223895
     31 H                     0.199036
  ----------------------------------------
  Sum of atomic charges =    -2.000000

                    Cartesian Multipole Moments
 -----------------------------------------------------------------
    Charge (ESU x 10^10)
                -9.6064
    Dipole Moment (Debye)
         X      -5.6902      Y     -22.8497      Z     -55.5285
       Tot      60.3150
    Quadrupole Moments (Debye-Ang)
        XX    -136.6662     XY     -33.3320     YY    -243.7019
        XZ     -33.0884     YZ    -132.1891     ZZ    -477.9578

 Total job time:  95.53s(wall), 523.81s(cpu)
        *  Thank you very much for using Q-Chem.  Have a nice day.  *
