 Gaussian 16, Revision A.03,
 Gaussian 16:  ES64L-G16RevA.03 25-Dec-2016

 ----------------------------------------------------------------------
 #P UB3LYP/6-311++G(d,p) nosym opt freq SCRF=(PCM,Solvent=n,n-DiMethylF
 ormamide)
 ----------------------------------------------------------------------

 -------
 Reduced
 -------
 Symbolic Z-matrix:
 Charge = -2 Multiplicity = 1

 SCF Done:  E(UB3LYP) =  -914.961979487     A.U. after   15 cycles
 SCF Done:  E(UB3LYP) =  -914.962548294     A.U. after   12 cycles
 SCF Done:  E(UB3LYP) =  -914.962598769     A.U. after   12 cycles
 SCF Done:  E(UB3LYP) =  -914.962615403     A.U. after   12 cycles
 SCF Done:  E(UB3LYP) =  -914.962680340     A.U. after   11 cycles
 SCF Done:  E(UB3LYP) =  -914.962682036     A.U. after   10 cycles
 SCF Done:  E(UB3LYP) =  -914.962685758     A.U. after   10 cycles
 SCF Done:  E(UB3LYP) =  -914.962685348     A.U. after    9 cycles
 SCF Done:  E(UB3LYP) =  -914.962685283     A.U. after    9 cycles
 SCF Done:  E(UB3LYP) =  -914.962685970     A.U. after    9 cycles
 SCF Done:  E(UB3LYP) =  -914.962686340     A.U. after    8 cycles
 Optimization completed.
    -- Stationary point found.
 Normal termination of Gaussian 16 at Sat Feb 10 23:04:44 2024.

 ----------------------------------------------------------------------
 #P Geom=AllCheck Guess=TCheck SCRF=Check GenChk UB3LYP/6-311++G(d,p) F
 req
 ----------------------------------------------------------------------

 Structure from the checkpoint file:  "201-an.chk"
 -------
 Reduced
 -------
 Charge = -2 Multiplicity = 1

                          Input orientation:
 ---------------------------------------------------------------------
 Center     Atomic      Atomic             Coordinates (Angstroms)
 Number     Number       Type             X           Y           Z
 ---------------------------------------------------------------------
      1          8           0       -2.696941    2.524113   -0.442083
      2          6           0       -2.652006    1.182113   -0.213400
      3          6           0       -3.826715    0.470204   -0.089401
      4          6           0       -3.782651   -0.928207    0.148651
      5          6           0       -2.577703   -1.582841    0.256659
      6          6           0       -1.341283   -0.886681    0.137034
      7          6           0       -0.096245   -1.623533    0.260547
      8          8           0       -0.127770   -2.895487    0.461238
      9          6           0        1.124428   -0.850419    0.145939
     10          6           0        2.437351   -1.431362    0.267524
     11          8           0        2.567702   -2.788117    0.524315
     12          6           0        3.578756   -0.674573    0.141658
     13          6           0        3.517255    0.720728   -0.110000
     14          6           0        2.300319    1.339565   -0.228781
     15          8           0        2.253393    2.686615   -0.466748
     16          6           0        1.069467    0.589745   -0.105471
     17          6           0       -0.167925    1.269042   -0.231040
     18          8           0       -0.216539    2.604586   -0.468008
     19          6           0       -1.370277    0.529688   -0.103779
     20          1           0       -1.716750    2.803052   -0.494330
     21          1           0       -4.773071    0.993711   -0.176130
     22          1           0       -4.714155   -1.477797    0.245373
     23          1           0       -2.537281   -2.649260    0.438578
     24          1           0        3.512782   -2.975072    0.578682
     25          1           0        4.549102   -1.154595    0.240221
     26          1           0        4.427024    1.303105   -0.206508
     27          1           0        1.259733    2.901675   -0.510742
 ---------------------------------------------------------------------

 SCF Done:  E(UB3LYP) =  -914.962686340     A.U. after    1 cycles

 Alpha  occ. eigenvalues --  -19.12974 -19.10746 -19.10156 -19.05648 -19.02026
 Alpha  occ. eigenvalues --  -10.21162 -10.20958 -10.20383 -10.18746 -10.18707
 Alpha  occ. eigenvalues --  -10.15314 -10.15106 -10.15085 -10.14976 -10.14572
 Alpha  occ. eigenvalues --  -10.14226 -10.14193 -10.14137 -10.13990  -1.03762
 Alpha  occ. eigenvalues --   -1.02741  -1.01753  -0.94899  -0.93880  -0.82997
 Alpha  occ. eigenvalues --   -0.81564  -0.76191  -0.71884  -0.71702  -0.70727
 Alpha  occ. eigenvalues --   -0.64868  -0.61883  -0.61043  -0.56550  -0.55789
 Alpha  occ. eigenvalues --   -0.53099  -0.50953  -0.49931  -0.47882  -0.45638
 Alpha  occ. eigenvalues --   -0.45008  -0.44222  -0.42366  -0.41453  -0.40918
 Alpha  occ. eigenvalues --   -0.39332  -0.39190  -0.38889  -0.37350  -0.37138
 Alpha  occ. eigenvalues --   -0.36928  -0.35669  -0.34715  -0.34515  -0.33616
 Alpha  occ. eigenvalues --   -0.32904  -0.32541  -0.31273  -0.29897  -0.28195
 Alpha  occ. eigenvalues --   -0.23890  -0.23372  -0.22304  -0.20529  -0.19467
 Alpha  occ. eigenvalues --   -0.19150  -0.11553
 Alpha virt. eigenvalues --   -0.01653  -0.00370   0.00158   0.00715   0.01321
 Alpha virt. eigenvalues --    0.02337   0.02499   0.03449   0.04269   0.04738
 Alpha virt. eigenvalues --    0.04998   0.05029   0.06678   0.06756   0.06790

  Beta  occ. eigenvalues --  -19.12974 -19.10746 -19.10156 -19.05648 -19.02026
  Beta  occ. eigenvalues --  -10.21162 -10.20958 -10.20383 -10.18746 -10.18707
  Beta  occ. eigenvalues --  -10.15314 -10.15106 -10.15085 -10.14976 -10.14572
  Beta  occ. eigenvalues --  -10.14226 -10.14193 -10.14137 -10.13990  -1.03762
  Beta  occ. eigenvalues --   -1.02741  -1.01753  -0.94899  -0.93880  -0.82997
  Beta  occ. eigenvalues --   -0.81564  -0.76191  -0.71884  -0.71702  -0.70727
  Beta  occ. eigenvalues --   -0.64868  -0.61883  -0.61043  -0.56550  -0.55789
  Beta  occ. eigenvalues --   -0.53099  -0.50953  -0.49931  -0.47882  -0.45638
  Beta  occ. eigenvalues --   -0.45008  -0.44222  -0.42366  -0.41453  -0.40918
  Beta  occ. eigenvalues --   -0.39332  -0.39190  -0.38889  -0.37350  -0.37138
  Beta  occ. eigenvalues --   -0.36928  -0.35669  -0.34715  -0.34515  -0.33616
  Beta  occ. eigenvalues --   -0.32904  -0.32541  -0.31273  -0.29897  -0.28195
  Beta  occ. eigenvalues --   -0.23890  -0.23372  -0.22304  -0.20529  -0.19467
  Beta  occ. eigenvalues --   -0.19150  -0.11553
  Beta virt. eigenvalues --   -0.01653  -0.00370   0.00158   0.00715   0.01321
  Beta virt. eigenvalues --    0.02337   0.02499   0.03449   0.04269   0.04738
  Beta virt. eigenvalues --    0.04998   0.05029   0.06678   0.06756   0.06790

 Mulliken charges and spin densities:
               1          2
     1  O   -0.475158   0.000000
     2  C   -0.045352  -0.000000
     3  C   -0.321378  -0.000000
     4  C   -0.411425  -0.000000
     5  C   -0.275171   0.000000
     6  C    0.274921   0.000000
     7  C   -0.269341   0.000000
     8  O   -0.636647  -0.000000
     9  C    0.142551  -0.000000
    10  C   -0.364505  -0.000000
    11  O   -0.272856   0.000000
    12  C   -0.241317  -0.000000
    13  C   -0.189744  -0.000000
    14  C   -0.307220   0.000000
    15  O   -0.491534  -0.000000
    16  C    0.574770  -0.000000
    17  C   -0.282206   0.000000
    18  O   -0.765819  -0.000000
    19  C    0.438455   0.000000
    20  H    0.436794  -0.000000
    21  H    0.158601  -0.000000
    22  H    0.164522   0.000000
    23  H    0.139758  -0.000000
    24  H    0.280358  -0.000000
    25  H    0.140495   0.000000
    26  H    0.164685   0.000000
    27  H    0.433760   0.000000
 Sum of Mulliken charges =  -2.00000   0.00000

 Dipole moment (field-independent basis, Debye):
    X=              2.6720    Y=             -0.2534    Z=              0.2465  Tot=              2.6953
 Quadrupole moment (field-independent basis, Debye-Ang):
   XX=           -141.3151   YY=           -178.0737   ZZ=           -122.8188
   XY=             -4.1107   XZ=              0.8166   YZ=              9.4291

  Exact polarizability: 550.007   6.729 362.495   0.657 -36.228 157.435
 Approx polarizability: 607.754   7.322 449.826   0.649 -48.114 177.329

                      1                      2                      3
                      A                      A                      A
 Frequencies --     51.0017                69.7470                97.1461
 Red. masses --      7.0706                 7.5427                10.8953
 Frc consts  --      0.0108                 0.0216                 0.0606
 IR Inten    --      7.6255                 6.2082                 5.3296

                      4                      5                      6
                      A                      A                      A
 Frequencies --    113.8048               166.6667               225.6837
 Red. masses --      6.3725                 7.1474                 5.0683
 Frc consts  --      0.0486                 0.1170                 0.1521
 IR Inten    --      3.6166                 1.0547                 5.6699

                      7                      8                      9
                      A                      A                      A
 Frequencies --    225.8128               276.3368               308.0505
 Red. masses --      5.7450                 4.7312                 7.6662
 Frc consts  --      0.1726                 0.2129                 0.4286
 IR Inten    --     13.5957                 2.5272                14.4891

                     10                     11                     12
                      A                      A                      A
 Frequencies --    322.9167               345.4805               361.5303
 Red. masses --      1.4437                 6.7030                12.0461
 Frc consts  --      0.0887                 0.4714                 0.9277
 IR Inten    --     88.4039                12.5055                 3.4715

                     13                     14                     15
                      A                      A                      A
 Frequencies --    380.7381               385.1118               418.1785
 Red. masses --      5.3184                 4.4660                 6.6753
 Frc consts  --      0.4542                 0.3903                 0.6878
 IR Inten    --      8.5043                25.5773                26.9227

                     16                     17                     18
                      A                      A                      A
 Frequencies --    456.8843               463.5599               474.4708
 Red. masses --      7.9588                 9.3730                 9.3696
 Frc consts  --      0.9788                 1.1867                 1.2428
 IR Inten    --     55.7335               139.1314                 1.5169

                     19                     20                     21
                      A                      A                      A
 Frequencies --    488.4561               501.7368               521.9891
 Red. masses --      4.2267                 8.0642                 6.9379
 Frc consts  --      0.5942                 1.1961                 1.1138
 IR Inten    --      0.1575                 0.3436                15.1776

                     22                     23                     24
                      A                      A                      A
 Frequencies --    540.3085               582.4306               599.7540
 Red. masses --      4.5538                 8.0465                 4.1067
 Frc consts  --      0.7833                 1.6082                 0.8703
 IR Inten    --     14.4724                68.1237                 6.4850

                     25                     26                     27
                      A                      A                      A
 Frequencies --    604.5876               633.5493               708.5414
 Red. masses --      4.7520                 3.7491                 2.9705
 Frc consts  --      1.0234                 0.8866                 0.8786
 IR Inten    --     19.4566                14.9889                21.9510

                     28                     29                     30
                      A                      A                      A
 Frequencies --    711.2427               735.5305               750.4070
 Red. masses --      6.2237                 3.7291                 2.0821
 Frc consts  --      1.8550                 1.1887                 0.6908
 IR Inten    --     57.6912                26.5091                68.1231

                     31                     32                     33
                      A                      A                      A
 Frequencies --    753.0767               774.7031               797.4387
 Red. masses --      7.2807                 1.9863                 4.7530
 Frc consts  --      2.4328                 0.7024                 1.7808
 IR Inten    --    158.7406               114.7139                 4.4136

                     34                     35                     36
                      A                      A                      A
 Frequencies --    820.9823               829.5064               848.4760
 Red. masses --      8.8265                 1.3914                 1.5202
 Frc consts  --      3.5051                 0.5641                 0.6448
 IR Inten    --    119.9624                10.2477                 6.1682

                     37                     38                     39
                      A                      A                      A
 Frequencies --    872.0892               909.7491               946.0491
 Red. masses --      8.7629                 1.0572                 6.5719
 Frc consts  --      3.9266                 0.5155                 3.4655
 IR Inten    --    241.1588               238.3671               318.2367

                     40                     41                     42
                      A                      A                      A
 Frequencies --    951.8931               965.5943               987.7711
 Red. masses --      1.2592                 1.0384                 5.4169
 Frc consts  --      0.6722                 0.5704                 3.1140
 IR Inten    --      1.2353                13.3494               147.7079

                     43                     44                     45
                      A                      A                      A
 Frequencies --   1045.0852              1063.0884              1115.8579
 Red. masses --      3.5535                 1.7994                 2.0294
 Frc consts  --      2.2867                 1.1982                 1.4888
 IR Inten    --    233.0446               313.8457               268.9429

                     46                     47                     48
                      A                      A                      A
 Frequencies --   1148.8227              1160.7179              1210.7480
 Red. masses --      1.5538                 2.6827                 3.4146
 Frc consts  --      1.2082                 2.1295                 2.9492
 IR Inten    --    142.4037                85.7244               430.3661

                     49                     50                     51
                      A                      A                      A
 Frequencies --   1224.0691              1233.6750              1256.4233
 Red. masses --      2.2544                 1.9639                 2.9499
 Frc consts  --      1.9901                 1.7610                 2.7436
 IR Inten    --     30.3411                46.4022               225.1257

                     52                     53                     54
                      A                      A                      A
 Frequencies --   1264.3221              1284.0348              1312.2377
 Red. masses --      3.1669                 6.0622                 2.2619
 Frc consts  --      2.9827                 5.8889                 2.2948
 IR Inten    --    145.3145                83.2516                36.8519

                     55                     56                     57
                      A                      A                      A
 Frequencies --   1348.4081              1367.6488              1387.7399
 Red. masses --      6.3027                 6.5217                 4.8556
 Frc consts  --      6.7517                 7.1872                 5.5095
 IR Inten    --    863.4253               980.7701               398.5616

                     58                     59                     60
                      A                      A                      A
 Frequencies --   1425.6153              1458.3295              1474.9833
 Red. masses --      2.5243                 4.7503                 2.9656
 Frc consts  --      3.0228                 5.9523                 3.8013
 IR Inten    --    277.9051               284.0356               750.1469

                     61                     62                     63
                      A                      A                      A
 Frequencies --   1501.5995              1544.4440              1557.2885
 Red. masses --      3.7059                 3.4026                 2.8206
 Frc consts  --      4.9232                 4.7820                 4.0303
 IR Inten    --      8.8442               543.8538               265.7456

                     64                     65                     66
                      A                      A                      A
 Frequencies --   1572.8064              1594.4355              1636.6037
 Red. masses --      2.3605                 7.4253                 3.0450
 Frc consts  --      3.4404                11.1219                 4.8054
 IR Inten    --    360.9582                 0.3229               228.7706

                     67                     68                     69
                      A                      A                      A
 Frequencies --   1688.0032              2649.1401              2785.6091
 Red. masses --      1.9021                 1.0767                 1.0785
 Frc consts  --      3.1932                 4.4521                 4.9309
 IR Inten    --      8.0258              2635.9969                78.8667

                     70                     71                     72
                      A                      A                      A
 Frequencies --   3132.3087              3144.6228              3166.6975
 Red. masses --      1.0883                 1.0863                 1.0920
 Frc consts  --      6.2910                 6.3289                 6.4517
 IR Inten    --     63.6663                38.7495                51.2257

                     73                     74                     75
                      A                      A                      A
 Frequencies --   3169.4525              3191.5978              3790.9949
 Red. masses --      1.0919                 1.0911                 1.0657
 Frc consts  --      6.4627                 6.5485                 9.0242
 IR Inten    --     44.5555                41.3170                51.1303

 - Thermochemistry -
 -------------------
 Temperature   298.150 Kelvin.  Pressure   1.00000 Atm.
 Atom     1 has atomic number  8 and mass  15.99491

 Molecular mass:   256.03717 amu.
 Principal axes and moments of inertia in atomic units:
                           1         2         3
     Eigenvalues --  2940.299375190.606658130.49187
           X            0.98546   0.16985  -0.00490
           Y           -0.16652   0.97109   0.17105
           Z            0.03381  -0.16775   0.98525
 This molecule is an asymmetric top.
 Rotational symmetry number  1.
 Warning -- assumption of classical behavior for rotation
           may cause significant error
 Rotational temperatures (Kelvin)      0.02946     0.01669     0.01065
 Rotational constants (GHZ):           0.61380     0.34769     0.22197
 Zero-point vibrational energy     489789.4 (Joules/Mol)
                                  117.06248 (Kcal/Mol)
 Warning -- explicit consideration of  25 degrees of freedom as
           vibrations may cause significant error
 Vibrational temperatures:     73.38   100.35   139.77   163.74   239.80
          (Kelvin)            324.71   324.89   397.59   443.22   464.61
                              497.07   520.16   547.80   554.09   601.67
                              657.35   666.96   682.66   702.78   721.89
                              751.03   777.38   837.99   862.91   869.87
                              911.54  1019.43  1023.32  1058.26  1079.67
                             1083.51  1114.63  1147.34  1181.21  1193.47
                             1220.77  1254.74  1308.93  1361.15  1369.56
                             1389.27  1421.18  1503.64  1529.55  1605.47
                             1652.90  1670.01  1742.00  1761.16  1774.98
                             1807.71  1819.08  1847.44  1888.02  1940.06
                             1967.74  1996.65  2051.14  2098.21  2122.17
                             2160.47  2222.11  2240.59  2262.92  2294.04
                             2354.71  2428.66  3811.52  4007.87  4506.69
                             4524.41  4556.17  4560.14  4592.00  5454.40

 Zero-point correction=                           0.186551 (Hartree/Particle)
 Thermal correction to Energy=                    0.200720
 Thermal correction to Enthalpy=                  0.201664
 Thermal correction to Gibbs Free Energy=         0.145863
 Sum of electronic and zero-point Energies=           -914.776135
 Sum of electronic and thermal Energies=              -914.761967
 Sum of electronic and thermal Enthalpies=            -914.761022
 Sum of electronic and thermal Free Energies=         -914.816823

                     E (Thermal)             CV                S
                      KCal/Mol        Cal/Mol-Kelvin    Cal/Mol-Kelvin
 Total                  125.954             58.128            117.443
 Electronic               0.000              0.000              0.000
 Translational            0.889              2.981             42.520
 Rotational               0.889              2.981             33.184
 Vibrational            124.176             52.166             41.738
 Vibration     1          0.595              1.977              4.778
 Vibration     2          0.598              1.969              4.160
 Vibration     3          0.603              1.951              3.511
 Vibration     4          0.607              1.938              3.203
 Vibration     5          0.624              1.883              2.473
 Vibration     6          0.650              1.802              1.913
 Vibration     7          0.650              1.802              1.912
 Vibration     8          0.678              1.717              1.556
 Vibration     9          0.698              1.658              1.373
 Vibration    10          0.708              1.630              1.295
 Vibration    11          0.724              1.584              1.187
 Vibration    12          0.736              1.552              1.116
 Vibration    13          0.750              1.511              1.036
 Vibration    14          0.754              1.502              1.019
 Vibration    15          0.781              1.431              0.898
 Vibration    16          0.815              1.346              0.775
 Vibration    17          0.821              1.331              0.756
 Vibration    18          0.831              1.307              0.725
 Vibration    19          0.844              1.276              0.688
 Vibration    20          0.857              1.246              0.654
 Vibration    21          0.877              1.201              0.605
 Vibration    22          0.895              1.161              0.565
 Vibration    23          0.939              1.069              0.481
 Vibration    24          0.958              1.032              0.450
 Vibration    25          0.963              1.022              0.442

 Optimization completed.
    -- Stationary point found.
 Normal termination of Gaussian 16 at Sun Feb 11 00:35:52 2024.
