 Q-Chem 5.4, Q-Chem, Inc., Pleasanton, CA (2021)
 Q-Chem 5.4.0 for Intel X86 EM64T Linux

User input:
--------------------------------------------------------------
$molecule
0 1
C                 -2.9130260000      1.3128800000     -0.7483670000
C                 -2.1963720000      0.0849140000     -0.1559250000
C                 -2.7339860000     -0.1330390000      1.2811000000
C                 -2.5402270000     -1.1401710000     -1.0404930000
C                 -0.6762270000      0.2860790000     -0.1162780000
C                 -0.0753000000      1.4115740000     -0.5545690000
C                  1.3820450000      1.6589300000     -0.5400590000
O                  1.8304110000      2.7149800000     -0.9614450000
C                  2.2571940000      0.5860680000     -0.0009800000
C                  3.6424910000      0.7575430000      0.0406240000
C                  4.4503610000     -0.2544300000      0.5477040000
C                  3.8769390000     -1.4402570000      1.0145230000
C                  2.4976520000     -1.6150270000      0.9747820000
C                  1.6782860000     -0.6026680000      0.4665950000
C                  0.1963240000     -0.8136830000      0.4340420000
O                 -0.2764410000     -1.8599230000      0.8477980000
H                 -2.6059550000      1.5115790000     -1.7789430000
H                 -3.9896480000      1.1267290000     -0.7570800000
H                 -2.7407500000      2.2157810000     -0.1559800000
H                 -2.3187320000     -1.0311130000      1.7348830000
H                 -3.8226590000     -0.2346110000      1.2480300000
H                 -2.4983320000      0.7242320000      1.9187690000
H                 -3.6269840000     -1.2519820000     -1.0960860000
H                 -2.1203720000     -2.0595820000     -0.6363770000
H                 -2.1667790000     -1.0013090000     -2.0594740000
H                 -0.6431360000      2.2386660000     -0.9610590000
H                  4.0621930000      1.6858600000     -0.3272740000
H                  5.5259300000     -0.1230680000      0.5808410000
H                  4.5087000000     -2.2277780000      1.4094500000
H                  2.0363990000     -2.5271750000      1.3321570000
$end
$rem
MAX_SCF_CYCLES=200
BASIS  =  6-311++G(d,p)
GUI  =  2
JOB_TYPE  =  SP
METHOD  =  B3LYP
SOLVENT_METHOD = COSMO
$end
$solvent
dielectric 37.219
opticaldielectric 1.43
$end

--------------------------------------------------------------

             Standard Nuclear Orientation (Angstroms)
    I     Atom           X                Y                Z
 ----------------------------------------------------------------
    1      C       3.5067694358    -1.2258651480     0.0006984225
    2      C       2.6891472938     0.0794986715     0.0001437208
    3      C       3.0725573050     0.8822618420     1.2690571257
    4      C       3.0730832963     0.8816451726    -1.2689836179
    5      C       1.1812266927    -0.2016693960    -0.0000602294
    6      C       0.6695554233    -1.4499256864    -0.0000388251
    7      C      -0.7716866618    -1.7786675759    -0.0000871333
    8      O      -1.1359502388    -2.9453516411    -0.0005016768
    9      C      -1.7357746114    -0.6481547594     0.0000059037
   10      C      -3.1109207989    -0.8913733764     0.0001234842
   11      C      -4.0026422661     0.1757284079     0.0002747099
   12      C      -3.5234227451     1.4884610895     0.0002855927
   13      C      -2.1545615041     1.7349877580     0.0001037069
   14      C      -1.2512845912     0.6679468895    -0.0000269347
   15      C       0.2175940107     0.9581089661    -0.0001678377
   16      O       0.6072455687     2.1146079635    -0.0009694406
   17      H       3.3114332970    -1.8346546061    -0.8864768544
   18      H       4.5711675136    -0.9790868890     0.0012130781
   19      H       3.3104180019    -1.8344033149     0.8878055229
   20      H       2.5808032386     1.8530131762     1.2957327739
   21      H       4.1545357806     1.0428221923     1.2817987645
   22      H       2.8069693754     0.3286356346     2.1746117640
   23      H       4.1550132635     1.0426262924    -1.2810535552
   24      H       2.5808950972     1.8521579298    -1.2965574146
   25      H       2.8083471244     0.3273718505    -2.1743919157
   26      H       1.3056569462    -2.3257840464     0.0000338750
   27      H      -3.4567986096    -1.9178429081     0.0001070775
   28      H      -5.0704796545    -0.0111565806     0.0004251804
   29      H      -4.2204512224     2.3187802416     0.0004566365
   30      H      -1.7657144656     2.7455733186     0.0000954769
 ----------------------------------------------------------------

    9    -692.5566566657      3.80e-06  Convergence criterion met
 Total energy in the final basis set =     -692.5566566657
    5    -692.5689428960      2.39e-06  Convergence criterion met
 Total energy in the final basis set =     -692.5689428960

                    Orbital Energies (a.u.)
 --------------------------------------------------------------

 Alpha MOs
 -- Occupied --
-19.1361 -19.1354 -10.2867 -10.2828 -10.2180 -10.2070 -10.2054 -10.2018
-10.2013 -10.1963 -10.1959 -10.1956 -10.1952 -10.1591 -10.1574 -10.1574
 -1.0711  -1.0674  -0.8896  -0.8551  -0.8084  -0.7769  -0.7659  -0.6999
 -0.6877  -0.6866  -0.6485  -0.6402  -0.5916  -0.5630  -0.5406  -0.5241
 -0.4986  -0.4850  -0.4656  -0.4592  -0.4566  -0.4499  -0.4458  -0.4406
 -0.4345  -0.4238  -0.4150  -0.3909  -0.3811  -0.3808  -0.3773  -0.3681
 -0.3658  -0.3562  -0.3411  -0.3365  -0.2978  -0.2869  -0.2781  -0.2773
 -0.2732

          Ground-State Mulliken Net Atomic Charges

     Atom                 Charge (a.u.)
  ----------------------------------------
      1 C                    -0.496009
      2 C                     0.630475
      3 C                    -0.713815
      4 C                    -0.713942
      5 C                     0.865161
      6 C                    -0.221583
      7 C                    -0.696924
      8 O                    -0.319279
      9 C                     0.643616
     10 C                    -0.102766
     11 C                    -0.421436
     12 C                    -0.392926
     13 C                     0.208332
     14 C                     0.354156
     15 C                    -1.010213
     16 O                    -0.243459
     17 H                     0.150370
     18 H                     0.192815
     19 H                     0.150410
     20 H                     0.185493
     21 H                     0.175503
     22 H                     0.157014
     23 H                     0.175588
     24 H                     0.185417
     25 H                     0.156981
     26 H                     0.249960
     27 H                     0.193483
     28 H                     0.229247
     29 H                     0.226279
     30 H                     0.202051
  ----------------------------------------
  Sum of atomic charges =     0.000000

                    Cartesian Multipole Moments
 -----------------------------------------------------------------
    Charge (ESU x 10^10)
                 0.0000
    Dipole Moment (Debye)
         X      -0.6474      Y       1.4826      Z       0.0043
       Tot       1.6178
    Quadrupole Moments (Debye-Ang)
        XX     -74.2005     XY     -10.9220     YY    -110.2153
        XZ      -0.0013     YZ       0.0012     ZZ     -96.7032

 Total job time:  53.34s(wall), 403.66s(cpu)
        *  Thank you very much for using Q-Chem.  Have a nice day.  *
