 Gaussian 16, Revision A.03,
 Gaussian 16:  ES64L-G16RevA.03 25-Dec-2016

 ----------------------------------------------------------------------
 #P UB3LYP/6-311++G(d,p) nosym opt freq SCRF=(PCM,Solvent=n,n-DiMethylF
 ormamide)
 ----------------------------------------------------------------------

 --------
 Oxidized
 --------
 Symbolic Z-matrix:
 Charge =  0 Multiplicity = 1

 SCF Done:  E(UB3LYP) =  -650.008744527     A.U. after   16 cycles
 SCF Done:  E(UB3LYP) =  -650.008878482     A.U. after   13 cycles
 SCF Done:  E(UB3LYP) =  -650.008956161     A.U. after   12 cycles
 SCF Done:  E(UB3LYP) =  -650.009052782     A.U. after   12 cycles
 SCF Done:  E(UB3LYP) =  -650.009070463     A.U. after   12 cycles
 SCF Done:  E(UB3LYP) =  -650.009098606     A.U. after   11 cycles
 SCF Done:  E(UB3LYP) =  -650.009121828     A.U. after   12 cycles
 SCF Done:  E(UB3LYP) =  -650.009130674     A.U. after   11 cycles
 SCF Done:  E(UB3LYP) =  -650.009133465     A.U. after   10 cycles
 SCF Done:  E(UB3LYP) =  -650.009134161     A.U. after   10 cycles
 SCF Done:  E(UB3LYP) =  -650.009134233     A.U. after    8 cycles
 SCF Done:  E(UB3LYP) =  -650.009134273     A.U. after    8 cycles
 Optimization completed.
    -- Stationary point found.
 Normal termination of Gaussian 16 at Sat Feb 10 11:16:25 2024.

 ----------------------------------------------------------------------
 #P Geom=AllCheck Guess=TCheck SCRF=Check GenChk UB3LYP/6-311++G(d,p) F
 req
 ----------------------------------------------------------------------

 Structure from the checkpoint file:  "087.chk"
 --------
 Oxidized
 --------
 Charge =  0 Multiplicity = 1

                          Input orientation:
 ---------------------------------------------------------------------
 Center     Atomic      Atomic             Coordinates (Angstroms)
 Number     Number       Type             X           Y           Z
 ---------------------------------------------------------------------
      1          6           0       -3.057408   -1.696429   -0.037271
      2          8           0       -2.302505   -0.499718    0.275082
      3          6           0       -0.972645   -0.455108    0.094978
      4          6           0       -0.396582    0.705742   -0.320499
      5          8           0       -1.165627    1.763394   -0.682639
      6          6           0       -1.072109    2.943092    0.147058
      7          6           0        1.069446    0.803005   -0.530378
      8          8           0        1.562472    1.815140   -1.010279
      9          6           0        1.934865   -0.373023   -0.183950
     10          6           0        1.352306   -1.495395    0.263398
     11          6           0       -0.101646   -1.609328    0.482326
     12          8           0       -0.578040   -2.606535    1.008911
     13          6           0        3.409649   -0.218575   -0.381356
     14          1           0       -3.052645   -2.385122    0.804116
     15          1           0       -4.067914   -1.345414   -0.238577
     16          1           0       -2.654382   -2.184766   -0.925300
     17          1           0       -1.417986    2.715444    1.158511
     18          1           0       -1.730700    3.679017   -0.309875
     19          1           0       -0.050627    3.323036    0.170489
     20          1           0        1.927536   -2.377232    0.523026
     21          1           0        3.794273    0.609013    0.221270
     22          1           0        3.935967   -1.132368   -0.106051
     23          1           0        3.634300    0.022128   -1.424068
 ---------------------------------------------------------------------

 SCF Done:  E(UB3LYP) =  -650.009134273     A.U. after    2 cycles

 Alpha  occ. eigenvalues --  -19.17439 -19.16132 -19.14427 -19.14153 -10.29260
 Alpha  occ. eigenvalues --  -10.28787 -10.26714 -10.25574 -10.22746 -10.22390
 Alpha  occ. eigenvalues --  -10.22321 -10.20476 -10.18028  -1.10049  -1.08298
 Alpha  occ. eigenvalues --   -1.06795  -1.05831  -0.86538  -0.80727  -0.73996
 Alpha  occ. eigenvalues --   -0.73389  -0.69976  -0.67588  -0.61719  -0.59925
 Alpha  occ. eigenvalues --   -0.55474  -0.53223  -0.52234  -0.49618  -0.48284
 Alpha  occ. eigenvalues --   -0.47363  -0.46838  -0.45807  -0.45323  -0.44662
 Alpha  occ. eigenvalues --   -0.42730  -0.42162  -0.41400  -0.40686  -0.39969
 Alpha  occ. eigenvalues --   -0.37973  -0.37277  -0.34240  -0.31795  -0.30191
 Alpha  occ. eigenvalues --   -0.28465  -0.28160  -0.25322
 Alpha virt. eigenvalues --   -0.13364  -0.02105  -0.00771  -0.00472   0.00446
 Alpha virt. eigenvalues --    0.00872   0.02039   0.02182   0.02754   0.03024
 Alpha virt. eigenvalues --    0.04051   0.04215   0.05001   0.05768   0.06017

  Beta  occ. eigenvalues --  -19.17439 -19.16132 -19.14427 -19.14153 -10.29260
  Beta  occ. eigenvalues --  -10.28787 -10.26714 -10.25574 -10.22746 -10.22390
  Beta  occ. eigenvalues --  -10.22321 -10.20476 -10.18028  -1.10049  -1.08298
  Beta  occ. eigenvalues --   -1.06795  -1.05831  -0.86538  -0.80727  -0.73996
  Beta  occ. eigenvalues --   -0.73389  -0.69976  -0.67588  -0.61719  -0.59925
  Beta  occ. eigenvalues --   -0.55474  -0.53223  -0.52234  -0.49618  -0.48284
  Beta  occ. eigenvalues --   -0.47363  -0.46838  -0.45807  -0.45323  -0.44662
  Beta  occ. eigenvalues --   -0.42730  -0.42162  -0.41400  -0.40686  -0.39969
  Beta  occ. eigenvalues --   -0.37973  -0.37277  -0.34240  -0.31795  -0.30191
  Beta  occ. eigenvalues --   -0.28465  -0.28160  -0.25322
  Beta virt. eigenvalues --   -0.13364  -0.02105  -0.00771  -0.00472   0.00446
  Beta virt. eigenvalues --    0.00872   0.02039   0.02182   0.02754   0.03024
  Beta virt. eigenvalues --    0.04051   0.04215   0.05001   0.05768   0.06017

 Mulliken charges and spin densities:
               1          2
     1  C   -0.274831   0.000000
     2  O   -0.189581   0.000000
     3  C    0.410037  -0.000000
     4  C   -0.383750   0.000000
     5  O   -0.163753   0.000000
     6  C   -0.299321   0.000000
     7  C   -0.296224  -0.000000
     8  O   -0.293381   0.000000
     9  C    1.219918   0.000000
    10  C   -0.788925   0.000000
    11  C   -0.127298  -0.000000
    12  O   -0.287606   0.000000
    13  C   -0.325917   0.000000
    14  H    0.190920  -0.000000
    15  H    0.160599   0.000000
    16  H    0.177161  -0.000000
    17  H    0.160590  -0.000000
    18  H    0.176575   0.000000
    19  H    0.166510  -0.000000
    20  H    0.212721  -0.000000
    21  H    0.191604  -0.000000
    22  H    0.174605  -0.000000
    23  H    0.189348  -0.000000
 Sum of Mulliken charges =  -0.00000   0.00000

 Dipole moment (field-independent basis, Debye):
    X=              0.8179    Y=             -0.8740    Z=              0.6911  Tot=              1.3822
 Quadrupole moment (field-independent basis, Debye-Ang):
   XX=            -66.1548   YY=            -79.1516   ZZ=            -79.8999
   XY=             -4.0472   XZ=              2.7228   YZ=             10.4264

  Exact polarizability: 184.209  39.049 214.362 -20.402 -38.332 114.114
 Approx polarizability: 199.663  66.157 270.165 -32.021 -61.105 139.633

                      1                      2                      3
                      A                      A                      A
 Frequencies --     38.8051                54.6885                75.9003
 Red. masses --      2.6785                 3.9249                 2.9502
 Frc consts  --      0.0024                 0.0069                 0.0100
 IR Inten    --     28.3628                 8.7702                 2.5939

                      4                      5                      6
                      A                      A                      A
 Frequencies --     84.4609               127.7961               135.1789
 Red. masses --      4.1690                 1.4623                 1.1602
 Frc consts  --      0.0175                 0.0141                 0.0125
 IR Inten    --     10.6760                 0.8094                 0.5918

                      7                      8                      9
                      A                      A                      A
 Frequencies --    141.5001               174.2779               196.4996
 Red. masses --      1.2181                 2.0929                 3.1515
 Frc consts  --      0.0144                 0.0375                 0.0717
 IR Inten    --      0.5751                 8.8499                 3.1890

                     10                     11                     12
                      A                      A                      A
 Frequencies --    232.8558               287.5734               316.3448
 Red. masses --      4.2633                 3.2298                 7.3430
 Frc consts  --      0.1362                 0.1574                 0.4330
 IR Inten    --      7.5419                 4.2798                 6.6331

                     13                     14                     15
                      A                      A                      A
 Frequencies --    330.7169               365.0741               390.6243
 Red. masses --      5.2436                 4.5076                 9.1451
 Frc consts  --      0.3379                 0.3540                 0.8222
 IR Inten    --      4.8708                 3.8383                22.8261

                     16                     17                     18
                      A                      A                      A
 Frequencies --    401.9983               437.7763               468.6733
 Red. masses --      7.6072                 5.6604                 7.9734
 Frc consts  --      0.7243                 0.6392                 1.0319
 IR Inten    --      7.1793                17.1257                15.3522

                     19                     20                     21
                      A                      A                      A
 Frequencies --    544.7233               639.5613               680.3987
 Red. masses --      7.1210                 6.4615                 4.5943
 Frc consts  --      1.2449                 1.5572                 1.2531
 IR Inten    --     14.2932                 3.4257                 8.4040

                     22                     23                     24
                      A                      A                      A
 Frequencies --    689.0558               722.7857               798.7564
 Red. masses --      4.4920                 4.0916                 9.0045
 Frc consts  --      1.2566                 1.2594                 3.3848
 IR Inten    --     37.7246                18.5134                 5.4633

                     25                     26                     27
                      A                      A                      A
 Frequencies --    897.7330               901.4355               924.9479
 Red. masses --      1.7912                 4.3007                 5.5891
 Frc consts  --      0.8506                 2.0590                 2.8173
 IR Inten    --    125.2944                36.7751                85.3792

                     28                     29                     30
                      A                      A                      A
 Frequencies --    992.8192              1020.8643              1055.2790
 Red. masses --      6.1626                 1.9564                 1.5370
 Frc consts  --      3.5790                 1.2013                 1.0084
 IR Inten    --     81.0792                20.4414                 5.8636

                     31                     32                     33
                      A                      A                      A
 Frequencies --   1101.3344              1153.8535              1157.0961
 Red. masses --      3.7156                 2.1763                 1.3270
 Frc consts  --      2.6553                 1.7071                 1.0468
 IR Inten    --    208.4377               148.4623               105.0748

                     34                     35                     36
                      A                      A                      A
 Frequencies --   1158.8820              1191.4421              1212.9428
 Red. masses --      1.3718                 1.6661                 1.9169
 Frc consts  --      1.0855                 1.3935                 1.6616
 IR Inten    --     35.5296               105.7137               183.8078

                     37                     38                     39
                      A                      A                      A
 Frequencies --   1233.5446              1278.6672              1329.9985
 Red. masses --      2.2468                 3.3349                 5.4518
 Frc consts  --      2.0143                 3.2125                 5.6819
 IR Inten    --    360.5853               544.4676               134.6717

                     40                     41                     42
                      A                      A                      A
 Frequencies --   1365.8993              1407.9282              1457.9696
 Red. masses --      2.8038                 1.2947                 1.0433
 Frc consts  --      3.0820                 1.5121                 1.3066
 IR Inten    --      6.8191                12.2892                14.2316

                     43                     44                     45
                      A                      A                      A
 Frequencies --   1463.5322              1469.1911              1475.2970
 Red. masses --      1.1773                 1.0718                 1.1377
 Frc consts  --      1.4857                 1.3630                 1.4589
 IR Inten    --     26.4769                17.4606                54.0448

                     46                     47                     48
                      A                      A                      A
 Frequencies --   1479.4252              1482.6209              1486.1347
 Red. masses --      1.0499                 1.1172                 1.0458
 Frc consts  --      1.3539                 1.4469                 1.3609
 IR Inten    --      6.2157                17.4782                44.7579

                     49                     50                     51
                      A                      A                      A
 Frequencies --   1494.6016              1627.5214              1680.5163
 Red. masses --      1.0473                 8.9349                12.1659
 Frc consts  --      1.3784                13.9443                20.2432
 IR Inten    --     20.3091               420.2441              1198.8494

                     52                     53                     54
                      A                      A                      A
 Frequencies --   1687.4229              1706.6951              3035.0105
 Red. masses --     11.4113                 8.3754                 1.0330
 Frc consts  --     19.1441                14.3737                 5.6063
 IR Inten    --      5.9901                18.4965                76.0356

                     55                     56                     57
                      A                      A                      A
 Frequencies --   3036.4867              3054.1801              3086.8677
 Red. masses --      1.0366                 1.0299                 1.0991
 Frc consts  --      5.6310                 5.6600                 6.1708
 IR Inten    --     10.2788                70.2303                10.2716

                     58                     59                     60
                      A                      A                      A
 Frequencies --   3114.7253              3127.3306              3138.2936
 Red. masses --      1.1029                 1.1025                 1.1057
 Frc consts  --      6.3044                 6.3528                 6.4161
 IR Inten    --     34.0516                16.4051                30.7053

                     61                     62                     63
                      A                      A                      A
 Frequencies --   3148.9054              3155.9514              3182.2676
 Red. masses --      1.1057                 1.1081                 1.0926
 Frc consts  --      6.4597                 6.5027                 6.5189
 IR Inten    --     22.6550                17.9934                 4.4456

 - Thermochemistry -
 -------------------
 Temperature   298.150 Kelvin.  Pressure   1.00000 Atm.
 Atom     1 has atomic number  6 and mass  12.00000

 Molecular mass:   182.05791 amu.
 Principal axes and moments of inertia in atomic units:
                           1         2         3
     Eigenvalues --  1788.850142356.165583946.27123
           X            0.88595  -0.45637   0.08255
           Y            0.43085   0.87577   0.21770
           Z           -0.17165  -0.15730   0.97252
 This molecule is an asymmetric top.
 Rotational symmetry number  1.
 Warning -- assumption of classical behavior for rotation
           may cause significant error
 Rotational temperatures (Kelvin)      0.04842     0.03676     0.02195
 Rotational constants (GHZ):           1.00888     0.76597     0.45733
 Zero-point vibrational energy     462426.3 (Joules/Mol)
                                  110.52254 (Kcal/Mol)
 Warning -- explicit consideration of  19 degrees of freedom as
           vibrations may cause significant error
 Vibrational temperatures:     55.83    78.68   109.20   121.52   183.87
          (Kelvin)            194.49   203.59   250.75   282.72   335.03
                              413.75   455.15   475.83   525.26   562.02
                              578.39   629.86   674.32   783.74   920.19
                              978.94   991.40  1039.93  1149.23  1291.64
                             1296.96  1330.79  1428.45  1468.80  1518.31
                             1584.57  1660.14  1664.80  1667.37  1714.22
                             1745.15  1774.80  1839.72  1913.57  1965.22
                             2025.69  2097.69  2105.70  2113.84  2122.62
                             2128.56  2133.16  2138.22  2150.40  2341.64
                             2417.89  2427.83  2455.55  4366.70  4368.83
                             4394.28  4441.31  4481.40  4499.53  4515.30
                             4530.57  4540.71  4578.57

 Zero-point correction=                           0.176129 (Hartree/Particle)
 Thermal correction to Energy=                    0.189830
 Thermal correction to Enthalpy=                  0.190774
 Thermal correction to Gibbs Free Energy=         0.134962
 Sum of electronic and zero-point Energies=           -649.833005
 Sum of electronic and thermal Energies=              -649.819305
 Sum of electronic and thermal Enthalpies=            -649.818361
 Sum of electronic and thermal Free Energies=         -649.874172

                     E (Thermal)             CV                S
                      KCal/Mol        Cal/Mol-Kelvin    Cal/Mol-Kelvin
 Total                  119.120             47.959            117.466
 Electronic               0.000              0.000              0.000
 Translational            0.889              2.981             41.504
 Rotational               0.889              2.981             31.187
 Vibrational            117.342             41.997             44.775
 Vibration     1          0.594              1.981              5.319
 Vibration     2          0.596              1.976              4.640
 Vibration     3          0.599              1.965              3.994
 Vibration     4          0.601              1.960              3.784
 Vibration     5          0.611              1.925              2.979
 Vibration     6          0.613              1.918              2.871
 Vibration     7          0.615              1.912              2.783
 Vibration     8          0.627              1.874              2.389
 Vibration     9          0.636              1.845              2.166
 Vibration    10          0.654              1.791              1.857
 Vibration    11          0.685              1.697              1.488
 Vibration    12          0.703              1.642              1.329
 Vibration    13          0.713              1.614              1.257
 Vibration    14          0.738              1.544              1.100
 Vibration    15          0.758              1.490              0.998
 Vibration    16          0.768              1.466              0.955
 Vibration    17          0.798              1.388              0.834
 Vibration    18          0.826              1.320              0.741
 Vibration    19          0.900              1.151              0.555

                           ! Non-Optimized Parameters !
 Normal termination of Gaussian 16 at Sat Feb 10 11:43:41 2024.
