 Q-Chem 5.4, Q-Chem, Inc., Pleasanton, CA (2021)
 Q-Chem 5.4.0 for Intel X86 EM64T Linux

User input:
--------------------------------------------------------------
$molecule
-2 1
C                 -2.3182210000     -2.3047810000      5.0470880000
C                 -1.3621410000     -3.2331690000      4.5136980000
C                 -1.3290430000     -3.5024040000      3.1389410000
C                 -2.2075660000     -2.8976640000      2.1748980000
C                 -3.1669520000     -1.9807900000      2.7255930000
C                 -3.2270780000     -1.7023690000      4.0856570000
O                 -2.4094130000     -1.9638320000      6.3023200000
O                 -2.1358370000     -3.1610050000      0.9160540000
N                 -4.1505670000     -0.8339950000      4.6792470000
C                 -4.8544100000      0.2196600000      3.9819680000
C                 -6.1795920000     -0.2817030000      3.3711670000
C                 -5.1204480000      1.3835460000      4.9462150000
H                 -3.8474230000     -1.5056420000      2.0244230000
H                 -3.8587710000     -0.6608910000      5.6380880000
H                 -4.2299790000      0.5941100000      3.1519970000
H                 -6.6587220000      0.5029610000      2.7689710000
H                 -6.8718880000     -0.5747130000      4.1684900000
H                 -6.0058290000     -1.1527260000      2.7353880000
H                 -5.7307460000      2.1612520000      4.4801200000
H                 -4.1832830000      1.8399640000      5.2828700000
H                 -5.6629670000      1.0268980000      5.8307960000
C                 -0.3820570000     -3.9135670000      5.4923630000
C                 -1.1790160000     -4.7084020000      6.5559360000
C                  0.5828040000     -4.8952050000      4.7993650000
C                  0.4738910000     -2.8365400000      6.2044060000
H                 -0.6116820000     -4.2035330000      2.7247880000
H                 -1.8802550000     -4.0385890000      7.0571920000
H                 -0.5019010000     -5.1565680000      7.2999660000
H                 -1.7429910000     -5.5167960000      6.0766870000
H                  1.2479210000     -5.3447770000      5.5491980000
H                  1.2041910000     -4.3915520000      4.0526000000
H                  0.0437590000     -5.7029320000      4.2949550000
H                 -0.1857970000     -2.1239480000      6.7028240000
H                  1.0873410000     -2.2989850000      5.4723880000
H                  1.1471450000     -3.2969450000      6.9447270000
$end
$rem
MAX_SCF_CYCLES=200
BASIS  =  6-311++G(d,p)
GUI  =  2
JOB_TYPE  =  SP
METHOD  =  B3LYP
SOLVENT_METHOD = PCM
$end
$pcm
theory = CPCM
$end
$solvent
dielectric 37.219
opticaldielectric 1.43
$end

--------------------------------------------------------------

             Standard Nuclear Orientation (Angstroms)
    I     Atom           X                Y                Z
 ----------------------------------------------------------------
    1      C      -2.3182210000    -2.3047810000     5.0470880000
    2      C      -1.3621410000    -3.2331690000     4.5136980000
    3      C      -1.3290430000    -3.5024040000     3.1389410000
    4      C      -2.2075660000    -2.8976640000     2.1748980000
    5      C      -3.1669520000    -1.9807900000     2.7255930000
    6      C      -3.2270780000    -1.7023690000     4.0856570000
    7      O      -2.4094130000    -1.9638320000     6.3023200000
    8      O      -2.1358370000    -3.1610050000     0.9160540000
    9      N      -4.1505670000    -0.8339950000     4.6792470000
   10      C      -4.8544100000     0.2196600000     3.9819680000
   11      C      -6.1795920000    -0.2817030000     3.3711670000
   12      C      -5.1204480000     1.3835460000     4.9462150000
   13      H      -3.8474230000    -1.5056420000     2.0244230000
   14      H      -3.8587710000    -0.6608910000     5.6380880000
   15      H      -4.2299790000     0.5941100000     3.1519970000
   16      H      -6.6587220000     0.5029610000     2.7689710000
   17      H      -6.8718880000    -0.5747130000     4.1684900000
   18      H      -6.0058290000    -1.1527260000     2.7353880000
   19      H      -5.7307460000     2.1612520000     4.4801200000
   20      H      -4.1832830000     1.8399640000     5.2828700000
   21      H      -5.6629670000     1.0268980000     5.8307960000
   22      C      -0.3820570000    -3.9135670000     5.4923630000
   23      C      -1.1790160000    -4.7084020000     6.5559360000
   24      C       0.5828040000    -4.8952050000     4.7993650000
   25      C       0.4738910000    -2.8365400000     6.2044060000
   26      H      -0.6116820000    -4.2035330000     2.7247880000
   27      H      -1.8802550000    -4.0385890000     7.0571920000
   28      H      -0.5019010000    -5.1565680000     7.2999660000
   29      H      -1.7429910000    -5.5167960000     6.0766870000
   30      H       1.2479210000    -5.3447770000     5.5491980000
   31      H       1.2041910000    -4.3915520000     4.0526000000
   32      H       0.0437590000    -5.7029320000     4.2949550000
   33      H      -0.1857970000    -2.1239480000     6.7028240000
   34      H       1.0873410000    -2.2989850000     5.4723880000
   35      H       1.1471450000    -3.2969450000     6.9447270000
 ----------------------------------------------------------------

    9    -712.4642010164      5.53e-06  Convergence criterion met
 Total energy in the final basis set =     -712.4642010164

                    Orbital Energies (a.u.)
 --------------------------------------------------------------

 Alpha MOs
 -- Occupied --
-19.0104 -19.0079 -14.2780 -10.1890 -10.1604 -10.1579 -10.1532 -10.1520
-10.1488 -10.1430 -10.1358 -10.1295 -10.1294 -10.1201 -10.1067 -10.1004
 -0.9310  -0.9251  -0.8865  -0.7955  -0.7673  -0.7365  -0.6793  -0.6702
 -0.6620  -0.6581  -0.6274  -0.5866  -0.5505  -0.5310  -0.4940  -0.4650
 -0.4536  -0.4345  -0.4243  -0.4189  -0.4135  -0.4132  -0.3924  -0.3858
 -0.3767  -0.3725  -0.3677  -0.3553  -0.3530  -0.3465  -0.3433  -0.3333
 -0.3319  -0.3242  -0.3162  -0.3080  -0.3028  -0.3007  -0.2902  -0.2539
 -0.2124  -0.1926  -0.1867  -0.1721  -0.1028

          Ground-State Mulliken Net Atomic Charges

     Atom                 Charge (a.u.)
  ----------------------------------------
      1 C                    -1.568255
      2 C                     0.866674
      3 C                    -0.467013
      4 C                    -0.466515
      5 C                     0.881174
      6 C                    -0.324665
      7 O                    -0.693255
      8 O                    -0.760843
      9 N                    -0.102042
     10 C                     0.036666
     11 C                    -0.444770
     12 C                    -0.682726
     13 H                     0.151904
     14 H                     0.338270
     15 H                     0.130796
     16 H                     0.134256
     17 H                     0.139946
     18 H                     0.143260
     19 H                     0.157412
     20 H                     0.156913
     21 H                     0.144369
     22 C                     0.686927
     23 C                    -0.675255
     24 C                    -0.503928
     25 C                    -0.677260
     26 H                     0.122546
     27 H                     0.170013
     28 H                     0.131443
     29 H                     0.124930
     30 H                     0.163941
     31 H                     0.127835
     32 H                     0.128851
     33 H                     0.173682
     34 H                     0.122571
     35 H                     0.132150
  ----------------------------------------
  Sum of atomic charges =    -2.000000

                    Cartesian Multipole Moments
 -----------------------------------------------------------------
    Charge (ESU x 10^10)
                -9.6064
    Dipole Moment (Debye)
         X      21.3143      Y      26.6488      Z     -33.6791
       Tot      47.9451
    Quadrupole Moments (Debye-Ang)
        XX    -163.4808     XY     -58.9544     YY    -185.4005
        XZ      76.5784     YZ      83.4368     ZZ    -287.0679

 Total job time:  90.42s(wall), 481.96s(cpu)
        *  Thank you very much for using Q-Chem.  Have a nice day.  *
