 Gaussian 16, Revision A.03,
 Gaussian 16:  ES64L-G16RevA.03 25-Dec-2016

 ----------------------------------------------------------------
 #P UB3LYP/6-311++G(d,p) SCRF=(PCM,Solvent=n,n-DiMethylFormamide)
 ----------------------------------------------------------------

 ------------------
 Radical PCM in DMF
 ------------------
 Symbolic Z-matrix:
 Charge = -1 Multiplicity = 2

                         Standard orientation:
 ---------------------------------------------------------------------
 Center     Atomic      Atomic             Coordinates (Angstroms)
 Number     Number       Type             X           Y           Z
 ---------------------------------------------------------------------
      1          6           0       -1.581445   -0.000900   -3.187254
      2          6           0       -1.507327   -1.211047   -2.385657
      3          6           0       -1.510922    1.208682   -2.384479
      4          6           0       -1.089463    1.215400   -1.081240
      5          6           0       -0.510404   -0.000606   -0.500151
      6          6           0       -1.085896   -1.217738   -1.082393
      7          6           0        0.510431    0.000392    0.500244
      8          6           0        1.089635   -1.215582    1.081261
      9          6           0        1.085854    1.217551    1.082490
     10          6           0        1.511180   -1.208857    2.384473
     11          6           0        1.507364    1.210858    2.385729
     12          6           0        1.581617    0.000701    3.187289
     13          8           0       -1.845789   -0.000698   -4.410392
     14          8           0        1.846075    0.000485    4.410405
     15          6           0       -1.475843    2.418062   -0.225667
     16          6           0       -2.989086    2.427329    0.074741
     17          6           0       -3.412623    3.605798    0.959102
     18          6           0       -4.914560    3.623754    1.261877
     19          6           0        1.468907    2.422039    0.227976
     20          6           0        2.981749    2.434259   -0.074181
     21          6           0        3.402252    3.614466   -0.957671
     22          6           0        4.903702    3.635149   -1.262630
     23          6           0        1.476109   -2.418179    0.225629
     24          6           0        2.989354   -2.427369   -0.074741
     25          6           0        3.412951   -3.605757   -0.959184
     26          6           0        4.914899   -3.623646   -1.261915
     27          6           0       -1.469212   -2.422114   -0.227848
     28          6           0       -2.982092   -2.434069    0.074152
     29          6           0       -3.402881   -3.614153    0.957668
     30          6           0       -4.904365   -3.634565    1.262478
     31          1           0       -1.910901   -2.113618   -2.837467
     32          1           0       -1.917092    2.110494   -2.835469
     33          1           0        1.917473   -2.110639    2.835410
     34          1           0        1.910870    2.113455    2.837546
     35          1           0       -1.214619    3.352511   -0.736628
     36          1           0       -0.951683    2.415035    0.727952
     37          1           0       -3.259174    1.486129    0.568379
     38          1           0       -3.550098    2.451785   -0.865953
     39          1           0       -3.128962    4.546061    0.468879
     40          1           0       -2.851251    3.572672    1.900665
     41          1           0       -5.502340    3.688837    0.340239
     42          1           0       -5.188357    4.475382    1.892976
     43          1           0       -5.221723    2.711387    1.783302
     44          1           0        1.206558    3.355323    0.740483
     45          1           0        0.943749    2.419339   -0.725089
     46          1           0        3.252708    1.494061   -0.569223
     47          1           0        3.543807    2.458484    0.865889
     48          1           0        3.117828    4.553688   -0.465893
     49          1           0        2.839563    3.581631   -1.898470
     50          1           0        5.492799    3.700114   -0.341820
     51          1           0        5.175183    4.487949   -1.893154
     52          1           0        5.211523    2.723889   -1.785601
     53          1           0        0.951966   -2.415088   -0.728004
     54          1           0        1.214901   -3.352683    0.736493
     55          1           0        3.550353   -2.451882    0.865960
     56          1           0        3.259429   -1.486121   -0.568297
     57          1           0        2.851606   -3.572577   -1.900760
     58          1           0        3.129305   -4.546067   -0.469041
     59          1           0        5.222051   -2.711227   -1.783258
     60          1           0        5.188740   -4.475216   -1.893074
     61          1           0        5.502653   -3.688784   -0.340265
     62          1           0       -0.944158   -2.419452    0.725271
     63          1           0       -1.206966   -3.355465   -0.740288
     64          1           0       -3.544051   -2.458256   -0.865977
     65          1           0       -3.252944   -1.493797    0.569112
     66          1           0       -2.840281   -3.581356    1.898521
     67          1           0       -3.118567   -4.553454    0.465974
     68          1           0       -5.212084   -2.723222    1.785364
     69          1           0       -5.176052   -4.487282    1.893026
     70          1           0       -5.493380   -3.699485    0.341613
 ---------------------------------------------------------------------

 SCF Done:  E(UB3LYP) =  -1241.95367651     A.U. after   19 cycles

 The electronic state is 2-A.
 Alpha  occ. eigenvalues --  -19.07580 -19.07580 -10.22249 -10.22248 -10.18491
 Alpha  occ. eigenvalues --  -10.18450 -10.18236 -10.18235 -10.18232 -10.18232
 Alpha  occ. eigenvalues --  -10.16420 -10.16420 -10.16419 -10.16419 -10.16138
 Alpha  occ. eigenvalues --  -10.16138 -10.16138 -10.16138 -10.16029 -10.16029
 Alpha  occ. eigenvalues --  -10.16028 -10.16028 -10.15465 -10.15465 -10.15465
 Alpha  occ. eigenvalues --  -10.15465 -10.15043 -10.15043 -10.15042 -10.15042
 Alpha  occ. eigenvalues --   -1.00049  -1.00047  -0.86517  -0.83670  -0.81103
 Alpha  occ. eigenvalues --   -0.80273  -0.79051  -0.78812  -0.76589  -0.75942
 Alpha  occ. eigenvalues --   -0.74410  -0.72744  -0.72523  -0.69898  -0.69881
 Alpha  occ. eigenvalues --   -0.67381  -0.64520  -0.64364  -0.62844  -0.62492
 Alpha  occ. eigenvalues --   -0.58458  -0.58088  -0.57718  -0.57599  -0.57533
 Alpha  occ. eigenvalues --   -0.56299  -0.54935  -0.54641  -0.50637  -0.49178
 Alpha  occ. eigenvalues --   -0.47598  -0.46893  -0.46743  -0.45845  -0.45217
 Alpha  occ. eigenvalues --   -0.44433  -0.44094  -0.43224  -0.43119  -0.42985
 Alpha  occ. eigenvalues --   -0.42821  -0.42389  -0.41471  -0.41421  -0.41396
 Alpha  occ. eigenvalues --   -0.41354  -0.40287  -0.39943  -0.39855  -0.39810
 Alpha  occ. eigenvalues --   -0.39691  -0.38291  -0.38160  -0.38076  -0.36976
 Alpha  occ. eigenvalues --   -0.36975  -0.36590  -0.36317  -0.35508  -0.35317
 Alpha  occ. eigenvalues --   -0.35058  -0.35039  -0.34440  -0.33852  -0.33614
 Alpha  occ. eigenvalues --   -0.33402  -0.32992  -0.32921  -0.32590  -0.32492
 Alpha  occ. eigenvalues --   -0.32285  -0.32277  -0.32145  -0.31873  -0.31551
 Alpha  occ. eigenvalues --   -0.30565  -0.27750  -0.24031  -0.23875  -0.22885
 Alpha  occ. eigenvalues --   -0.22722  -0.22341  -0.14898
 Alpha virt. eigenvalues --   -0.04823  -0.00957  -0.00768  -0.00284  -0.00172
 Alpha virt. eigenvalues --    0.00559   0.00672   0.00689   0.00734   0.01455
 Alpha virt. eigenvalues --    0.01633   0.01851   0.02077   0.02358   0.02703

  Beta  occ. eigenvalues --  -19.07189 -19.07189 -10.22183 -10.22182 -10.18297
  Beta  occ. eigenvalues --  -10.18256 -10.18177 -10.18176 -10.18170 -10.18168
  Beta  occ. eigenvalues --  -10.16424 -10.16424 -10.16423 -10.16423 -10.16139
  Beta  occ. eigenvalues --  -10.16139 -10.16139 -10.16139 -10.16021 -10.16021
  Beta  occ. eigenvalues --  -10.16021 -10.16021 -10.15465 -10.15465 -10.15465
  Beta  occ. eigenvalues --  -10.15465 -10.14965 -10.14964 -10.14964 -10.14963
  Beta  occ. eigenvalues --   -0.99369  -0.99366  -0.86133  -0.83374  -0.81048
  Beta  occ. eigenvalues --   -0.80240  -0.79001  -0.78749  -0.76528  -0.75870
  Beta  occ. eigenvalues --   -0.73944  -0.72664  -0.72420  -0.69810  -0.69800
  Beta  occ. eigenvalues --   -0.66850  -0.64464  -0.64262  -0.62768  -0.62344
  Beta  occ. eigenvalues --   -0.58408  -0.58075  -0.57681  -0.57511  -0.57315
  Beta  occ. eigenvalues --   -0.56126  -0.54727  -0.54468  -0.50499  -0.49068
  Beta  occ. eigenvalues --   -0.47562  -0.46841  -0.46721  -0.45801  -0.44932
  Beta  occ. eigenvalues --   -0.44225  -0.43997  -0.43134  -0.43095  -0.42842
  Beta  occ. eigenvalues --   -0.42607  -0.42366  -0.41389  -0.41374  -0.41359
  Beta  occ. eigenvalues --   -0.41207  -0.40083  -0.39906  -0.39724  -0.39453
  Beta  occ. eigenvalues --   -0.39022  -0.38048  -0.38039  -0.37909  -0.36950
  Beta  occ. eigenvalues --   -0.36875  -0.35856  -0.35786  -0.35477  -0.35243
  Beta  occ. eigenvalues --   -0.34951  -0.34730  -0.34423  -0.33824  -0.33596
  Beta  occ. eigenvalues --   -0.33284  -0.32892  -0.32872  -0.32576  -0.32478
  Beta  occ. eigenvalues --   -0.32263  -0.32251  -0.32118  -0.31836  -0.30594
  Beta  occ. eigenvalues --   -0.30446  -0.26362  -0.23663  -0.23516  -0.22483
  Beta  occ. eigenvalues --   -0.22289  -0.20400
  Beta virt. eigenvalues --   -0.09785  -0.03418  -0.00757  -0.00621  -0.00283
  Beta virt. eigenvalues --    0.00426   0.00583   0.00712   0.00754   0.00976
  Beta virt. eigenvalues --    0.01544   0.01756   0.01944   0.02229   0.02361

 Mulliken charges and spin densities:
               1          2
     1  C   -0.502230   0.063965
     2  C   -0.328354   0.067846
     3  C   -0.328857   0.067773
     4  C    1.167037   0.031347
     5  C   -0.031605   0.117158
     6  C    1.167133   0.031366
     7  C   -0.031622   0.117139
     8  C    1.167196   0.031356
     9  C    1.166838   0.031377
    10  C   -0.328874   0.067781
    11  C   -0.328307   0.067825
    12  C   -0.502237   0.063973
    13  O   -0.503659   0.136897
    14  O   -0.503669   0.136902
    15  C   -0.410748  -0.016920
    16  C   -0.718661   0.008882
    17  C   -0.170968  -0.001845
    18  C   -0.685339   0.000276
    19  C   -0.411263  -0.016854
    20  C   -0.717228   0.008836
    21  C   -0.171562  -0.001852
    22  C   -0.684926   0.000273
    23  C   -0.410915  -0.016924
    24  C   -0.718761   0.008881
    25  C   -0.170912  -0.001845
    26  C   -0.685352   0.000275
    27  C   -0.411653  -0.016843
    28  C   -0.717194   0.008833
    29  C   -0.171612  -0.001852
    30  C   -0.684915   0.000272
    31  H    0.188845  -0.005254
    32  H    0.188841  -0.005263
    33  H    0.188847  -0.005263
    34  H    0.188840  -0.005253
    35  H    0.209118   0.000789
    36  H    0.101747   0.005274
    37  H    0.040018   0.001256
    38  H    0.166800  -0.000562
    39  H    0.139302   0.000303
    40  H    0.136631  -0.000390
    41  H    0.137927   0.000023
    42  H    0.150615   0.000060
    43  H    0.145222  -0.000073
    44  H    0.209063   0.000766
    45  H    0.101139   0.005301
    46  H    0.039599   0.001262
    47  H    0.167029  -0.000561
    48  H    0.139330   0.000304
    49  H    0.136608  -0.000393
    50  H    0.137910   0.000023
    51  H    0.150615   0.000059
    52  H    0.145239  -0.000073
    53  H    0.101768   0.005272
    54  H    0.209111   0.000791
    55  H    0.166782  -0.000562
    56  H    0.040032   0.001258
    57  H    0.136628  -0.000390
    58  H    0.139298   0.000303
    59  H    0.145223  -0.000073
    60  H    0.150613   0.000060
    61  H    0.137929   0.000023
    62  H    0.101193   0.005295
    63  H    0.209047   0.000768
    64  H    0.167019  -0.000562
    65  H    0.039592   0.001265
    66  H    0.136600  -0.000393
    67  H    0.139330   0.000304
    68  H    0.145238  -0.000073
    69  H    0.150616   0.000059
    70  H    0.137912   0.000023
 Sum of Mulliken charges =  -1.00000   1.00000

 Dipole moment (field-independent basis, Debye):
    X=             -0.0010    Y=              0.0007    Z=             -0.0003  Tot=              0.0012
 Quadrupole moment (field-independent basis, Debye-Ang):
   XX=           -210.6136   YY=           -183.1012   ZZ=           -297.8420
   XY=             -0.0185   XZ=            -39.9547   YZ=             -0.0067

 Normal termination of Gaussian 16 at Sat Jan 13 20:07:01 2024.
