 Gaussian 16, Revision A.03,
 Gaussian 16:  ES64L-G16RevA.03 25-Dec-2016

 --------------------------------------
 #P UB3LYP/6-311++G(d,p) nosym opt freq
 --------------------------------------

 --------
 Oxidized
 --------
 Symbolic Z-matrix:
 Charge =  0 Multiplicity = 1

 SCF Done:  E(UB3LYP) =  -574.577985687     A.U. after   15 cycles
 SCF Done:  E(UB3LYP) =  -574.579413156     A.U. after   13 cycles
 SCF Done:  E(UB3LYP) =  -574.579486984     A.U. after   12 cycles
 SCF Done:  E(UB3LYP) =  -574.579535709     A.U. after   11 cycles
 SCF Done:  E(UB3LYP) =  -574.579537364     A.U. after   10 cycles
 SCF Done:  E(UB3LYP) =  -574.579537819     A.U. after   10 cycles
 SCF Done:  E(UB3LYP) =  -574.579538142     A.U. after    8 cycles
 SCF Done:  E(UB3LYP) =  -574.579539868     A.U. after   11 cycles
 SCF Done:  E(UB3LYP) =  -574.549115083     A.U. after   14 cycles
 SCF Done:  E(UB3LYP) =  -574.580110947     A.U. after   14 cycles
 SCF Done:  E(UB3LYP) =  -574.582769640     A.U. after   13 cycles
 SCF Done:  E(UB3LYP) =  -574.582791414     A.U. after   13 cycles
 SCF Done:  E(UB3LYP) =  -574.582848656     A.U. after   12 cycles
 SCF Done:  E(UB3LYP) =  -574.582857608     A.U. after   10 cycles
 SCF Done:  E(UB3LYP) =  -574.582859822     A.U. after   10 cycles
 SCF Done:  E(UB3LYP) =  -574.582860398     A.U. after   10 cycles
 SCF Done:  E(UB3LYP) =  -574.582860677     A.U. after    9 cycles
 SCF Done:  E(UB3LYP) =  -574.582860783     A.U. after    8 cycles
 SCF Done:  E(UB3LYP) =  -574.582860879     A.U. after    8 cycles
 Optimization completed.
    -- Stationary point found.
 Normal termination of Gaussian 16 at Tue Dec 26 20:36:53 2023.

 ----------------------------------------------------------------------
 #P Geom=AllCheck Guess=TCheck SCRF=Check GenChk UB3LYP/6-311++G(d,p) F
 req
 ----------------------------------------------------------------------

 Structure from the checkpoint file:  "237.chk"
 --------
 Oxidized
 --------
 Charge =  0 Multiplicity = 1

                          Input orientation:
 ---------------------------------------------------------------------
 Center     Atomic      Atomic             Coordinates (Angstroms)
 Number     Number       Type             X           Y           Z
 ---------------------------------------------------------------------
      1          6           0        5.769895   -5.288114    1.247440
      2          6           0        6.743418   -5.150355    0.266556
      3          6           0        6.627284   -4.145521   -0.688290
      4          6           0        4.683133   -4.416282    1.265837
      5          6           0        4.559203   -3.392200    0.297199
      6          6           0        5.549999   -3.249889   -0.703183
      7          6           0        3.660535   -4.603980    2.341972
      8          6           0        2.508338   -3.678488    2.358564
      9          6           0        2.383617   -2.707728    1.446851
     10          6           0        3.375202   -2.486123    0.362204
     11          8           0        3.759557   -5.483948    3.182364
     12          8           0        3.181412   -1.574719   -0.429480
     13          1           0        5.830050   -6.059083    2.005197
     14          6           0        5.514730   -2.194808   -1.780460
     15          1           0        7.593108   -5.823303    0.242938
     16          1           0        7.392682   -4.045692   -1.450324
     17          1           0        1.782146   -3.837055    3.148353
     18          1           0        1.546057   -2.018522    1.442382
     19          1           0        5.501271   -1.188228   -1.357947
     20          1           0        4.613335   -2.273072   -2.391338
     21          1           0        6.389327   -2.295302   -2.426148
 ---------------------------------------------------------------------

 SCF Done:  E(UB3LYP) =  -574.582860879     A.U. after    2 cycles

 Alpha  occ. eigenvalues --  -19.13336 -19.13322 -10.28409 -10.28259 -10.21722
 Alpha  occ. eigenvalues --  -10.21558 -10.21419 -10.21345 -10.21170 -10.20348
 Alpha  occ. eigenvalues --  -10.20045 -10.19893 -10.17507  -1.06648  -1.06448
 Alpha  occ. eigenvalues --   -0.89511  -0.84546  -0.80095  -0.78098  -0.71858
 Alpha  occ. eigenvalues --   -0.69371  -0.64838  -0.64441  -0.57652  -0.54262
 Alpha  occ. eigenvalues --   -0.53790  -0.50867  -0.49394  -0.46279  -0.46036
 Alpha  occ. eigenvalues --   -0.45802  -0.43856  -0.43202  -0.43028  -0.42769
 Alpha  occ. eigenvalues --   -0.41179  -0.39685  -0.38379  -0.37511  -0.37270
 Alpha  occ. eigenvalues --   -0.31129  -0.28552  -0.28389  -0.27370  -0.27310
 Alpha virt. eigenvalues --   -0.12727  -0.05717  -0.04068  -0.01131  -0.00063
 Alpha virt. eigenvalues --    0.00533   0.01686   0.01850   0.02770   0.03380
 Alpha virt. eigenvalues --    0.03553   0.04503   0.05125   0.05895   0.06294

  Beta  occ. eigenvalues --  -19.13336 -19.13322 -10.28409 -10.28259 -10.21722
  Beta  occ. eigenvalues --  -10.21558 -10.21419 -10.21345 -10.21170 -10.20348
  Beta  occ. eigenvalues --  -10.20045 -10.19893 -10.17507  -1.06648  -1.06448
  Beta  occ. eigenvalues --   -0.89511  -0.84546  -0.80095  -0.78098  -0.71858
  Beta  occ. eigenvalues --   -0.69371  -0.64838  -0.64441  -0.57652  -0.54262
  Beta  occ. eigenvalues --   -0.53790  -0.50867  -0.49394  -0.46279  -0.46036
  Beta  occ. eigenvalues --   -0.45802  -0.43856  -0.43202  -0.43028  -0.42769
  Beta  occ. eigenvalues --   -0.41179  -0.39685  -0.38379  -0.37511  -0.37270
  Beta  occ. eigenvalues --   -0.31129  -0.28552  -0.28389  -0.27370  -0.27310
  Beta virt. eigenvalues --   -0.12727  -0.05717  -0.04068  -0.01131  -0.00063
  Beta virt. eigenvalues --    0.00533   0.01686   0.01850   0.02770   0.03380
  Beta virt. eigenvalues --    0.03553   0.04503   0.05125   0.05895   0.06294

 Mulliken charges and spin densities:
               1          2
     1  C    0.521552   0.000000
     2  C   -0.457727  -0.000000
     3  C   -0.530945  -0.000000
     4  C    0.227446  -0.000000
     5  C    0.147584   0.000000
     6  C    0.764851  -0.000000
     7  C   -0.492089   0.000000
     8  C    0.091302   0.000000
     9  C   -0.148495  -0.000000
    10  C   -0.684843   0.000000
    11  O   -0.224410   0.000000
    12  O   -0.210714   0.000000
    13  H    0.182235   0.000000
    14  C   -0.421455   0.000000
    15  H    0.189638  -0.000000
    16  H    0.120065  -0.000000
    17  H    0.213628   0.000000
    18  H    0.217626  -0.000000
    19  H    0.174626   0.000000
    20  H    0.174633   0.000000
    21  H    0.145491   0.000000
 Sum of Mulliken charges =  -0.00000   0.00000

 Dipole moment (field-independent basis, Debye):
    X=              1.3424    Y=             -0.0248    Z=             -1.1283  Tot=              1.7538
 Quadrupole moment (field-independent basis, Debye-Ang):
   XX=            -54.7066   YY=            -81.5216   ZZ=            -80.8011
   XY=             -7.4178   XZ=            -10.1015   YZ=             11.6005

  Exact polarizability: 135.338 -27.204 128.516 -28.620 -39.388 134.709
 Approx polarizability: 208.030 -49.245 234.564 -33.262 -89.467 231.643

                      1                      2                      3
                      A                      A                      A
 Frequencies --     60.1151                74.9985               181.0668
 Red. masses --      5.5968                 4.9954                 4.3460
 Frc consts  --      0.0119                 0.0166                 0.0839
 IR Inten    --      9.0946                 1.6425                 0.3523

                      4                      5                      6
                      A                      A                      A
 Frequencies --    209.5363               230.5482               257.1602
 Red. masses --      1.3970                 2.0653                 4.1066
 Frc consts  --      0.0361                 0.0647                 0.1600
 IR Inten    --      1.8232                 0.3770                 0.0703

                      7                      8                      9
                      A                      A                      A
 Frequencies --    268.9032               365.2307               384.4766
 Red. masses --      5.4274                 4.2302                 8.8577
 Frc consts  --      0.2312                 0.3325                 0.7715
 IR Inten    --      0.1940                 2.7316                10.1829

                     10                     11                     12
                      A                      A                      A
 Frequencies --    445.3187               448.9031               473.4557
 Red. masses --      5.0467                10.4018                 3.7685
 Frc consts  --      0.5897                 1.2350                 0.4977
 IR Inten    --      2.2521                 7.9842                 0.2918

                     13                     14                     15
                      A                      A                      A
 Frequencies --    492.4810               527.2339               607.0719
 Red. masses --      3.5010                 6.3944                 4.8800
 Frc consts  --      0.5003                 1.0473                 1.0596
 IR Inten    --      1.0940                 7.7876                 8.6445

                     16                     17                     18
                      A                      A                      A
 Frequencies --    619.6704               627.3140               697.3749
 Red. masses --      5.0472                 2.2209                 4.2480
 Frc consts  --      1.1419                 0.5149                 1.2172
 IR Inten    --      2.7024                 0.1810                 2.8935

                     19                     20                     21
                      A                      A                      A
 Frequencies --    762.5688               783.8181               787.9211
 Red. masses --      6.8750                 5.3958                 2.0072
 Frc consts  --      2.3555                 1.9532                 0.7342
 IR Inten    --      3.2448                 0.0768                36.7944

                     22                     23                     24
                      A                      A                      A
 Frequencies --    812.8406               875.7974               900.6699
 Red. masses --      2.2444                 2.0646                 4.7194
 Frc consts  --      0.8737                 0.9330                 2.2556
 IR Inten    --     27.4061                23.8160                 1.0274

                     25                     26                     27
                      A                      A                      A
 Frequencies --    947.1342              1014.1927              1017.6237
 Red. masses --      1.3462                 1.3406                 1.2550
 Frc consts  --      0.7115                 0.8125                 0.7657
 IR Inten    --      0.2123                 0.2276                 0.0010

                     28                     29                     30
                      A                      A                      A
 Frequencies --   1026.1223              1051.6334              1057.4259
 Red. masses --      1.5977                 3.9626                 1.5634
 Frc consts  --      0.9911                 2.5820                 1.0299
 IR Inten    --      6.3554                28.7603                 3.0872

                     31                     32                     33
                      A                      A                      A
 Frequencies --   1114.5238              1119.2011              1182.3679
 Red. masses --      2.5365                 1.5434                 1.5706
 Frc consts  --      1.8564                 1.1390                 1.2936
 IR Inten    --     24.6713                32.5966                14.2637

                     34                     35                     36
                      A                      A                      A
 Frequencies --   1195.2703              1261.8854              1282.7062
 Red. masses --      1.2810                 2.5330                 2.8886
 Frc consts  --      1.0783                 2.3764                 2.8003
 IR Inten    --      0.1037                 0.2273                60.2351

                     37                     38                     39
                      A                      A                      A
 Frequencies --   1306.4260              1349.3725              1391.3857
 Red. masses --      3.1318                 6.2975                 1.8505
 Frc consts  --      3.1493                 6.7559                 2.1107
 IR Inten    --    165.7891                43.9573                 4.6285

                     40                     41                     42
                      A                      A                      A
 Frequencies --   1420.3684              1451.0099              1475.5061
 Red. masses --      1.2282                 2.3836                 1.0439
 Frc consts  --      1.4599                 2.9568                 1.3390
 IR Inten    --      8.6436                14.4495                 8.3090

                     43                     44                     45
                      A                      A                      A
 Frequencies --   1486.2351              1496.3354              1604.3684
 Red. masses --      1.7992                 1.5547                 6.2027
 Frc consts  --      2.3416                 2.0509                 9.4067
 IR Inten    --      0.7724                 5.0195                22.5151

                     46                     47                     48
                      A                      A                      A
 Frequencies --   1622.8248              1670.5766              1713.5204
 Red. masses --      5.7255                 8.5802                10.0292
 Frc consts  --      8.8839                14.1085                17.3499
 IR Inten    --     51.1419                39.6317               165.3460

                     49                     50                     51
                      A                      A                      A
 Frequencies --   1723.6957              3041.5209              3100.8485
 Red. masses --     10.8483                 1.0355                 1.0989
 Frc consts  --     18.9904                 5.6438                 6.2256
 IR Inten    --    256.6333                16.1482                 6.2778

                     52                     53                     54
                      A                      A                      A
 Frequencies --   3110.7359              3165.0322              3173.1194
 Red. masses --      1.1035                 1.0875                 1.0871
 Frc consts  --      6.2915                 6.4188                 6.4491
 IR Inten    --     22.2784                 6.9157                 1.0238

                     55                     56                     57
                      A                      A                      A
 Frequencies --   3182.0453              3191.2606              3203.1771
 Red. masses --      1.0929                 1.0991                 1.0937
 Frc consts  --      6.5200                 6.5948                 6.6119
 IR Inten    --     13.2307                 5.2713                 3.8922

 - Thermochemistry -
 -------------------
 Temperature   298.150 Kelvin.  Pressure   1.00000 Atm.
 Atom     1 has atomic number  6 and mass  12.00000

 Molecular mass:   172.05243 amu.
 Principal axes and moments of inertia in atomic units:
                           1         2         3
     Eigenvalues --  1574.846142017.846223581.77553
           X           -0.54197  -0.66825   0.50962
           Y           -0.30304   0.72100   0.62316
           Z            0.78386  -0.18330   0.59327
 This molecule is an asymmetric top.
 Rotational symmetry number  1.
 Warning -- assumption of classical behavior for rotation
           may cause significant error
 Rotational temperatures (Kelvin)      0.05500     0.04292     0.02418
 Rotational constants (GHZ):           1.14598     0.89439     0.50387
 Zero-point vibrational energy     418955.7 (Joules/Mol)
                                  100.13282 (Kcal/Mol)
 Warning -- explicit consideration of  16 degrees of freedom as
           vibrations may cause significant error
 Vibrational temperatures:     86.49   107.91   260.51   301.48   331.71
          (Kelvin)            370.00   386.89   525.49   553.18   640.71
                              645.87   681.20   708.57   758.57   873.44
                              891.57   902.56  1003.37  1097.17  1127.74
                             1133.64  1169.50  1260.08  1295.86  1362.71
                             1459.20  1464.13  1476.36  1513.07  1521.40
                             1603.55  1610.28  1701.16  1719.73  1815.57
                             1845.53  1879.66  1941.45  2001.89  2043.59
                             2087.68  2122.92  2138.36  2152.89  2308.33
                             2334.88  2403.59  2465.37  2480.01  4376.07
                             4461.43  4475.66  4553.78  4565.41  4578.25
                             4591.51  4608.66

 Zero-point correction=                           0.159572 (Hartree/Particle)
 Thermal correction to Energy=                    0.169862
 Thermal correction to Enthalpy=                  0.170806
 Thermal correction to Gibbs Free Energy=         0.123501
 Sum of electronic and zero-point Energies=           -574.423289
 Sum of electronic and thermal Energies=              -574.412999
 Sum of electronic and thermal Enthalpies=            -574.412055
 Sum of electronic and thermal Free Energies=         -574.459360

                     E (Thermal)             CV                S
                      KCal/Mol        Cal/Mol-Kelvin    Cal/Mol-Kelvin
 Total                  106.590             40.402             99.562
 Electronic               0.000              0.000              0.000
 Translational            0.889              2.981             41.335
 Rotational               0.889              2.981             30.810
 Vibrational            104.812             34.440             27.416
 Vibration     1          0.597              1.973              4.453
 Vibration     2          0.599              1.966              4.018
 Vibration     3          0.630              1.865              2.317
 Vibration     4          0.642              1.826              2.048
 Vibration     5          0.652              1.794              1.875
 Vibration     6          0.667              1.751              1.681
 Vibration     7          0.673              1.730              1.603
 Vibration     8          0.738              1.544              1.100
 Vibration     9          0.753              1.503              1.022
 Vibration    10          0.805              1.371              0.810
 Vibration    11          0.808              1.363              0.799
 Vibration    12          0.830              1.309              0.728
 Vibration    13          0.848              1.267              0.677
 Vibration    14          0.882              1.190              0.593
 Vibration    15          0.966              1.017              0.438
 Vibration    16          0.980              0.990              0.417

                           ! Non-Optimized Parameters !
 Normal termination of Gaussian 16 at Tue Dec 26 20:47:35 2023.
