 Q-Chem 5.4, Q-Chem, Inc., Pleasanton, CA (2021)
 Q-Chem 5.4.0 for Intel X86 EM64T Linux

User input:
--------------------------------------------------------------
$molecule
0 1
C                  5.7400620000     -5.3619530000      1.3229850000
C                  6.7079570000     -5.1911710000      0.3275620000
C                  6.6182800000     -4.1847540000     -0.6181560000
C                  4.6526950000     -4.4605450000      1.3307860000
C                  4.5603390000     -3.4233980000      0.3563520000
C                  5.5542700000     -3.2767670000     -0.6364330000
C                  3.5852790000     -4.5927230000      2.3706350000
C                  2.4592020000     -3.6333240000      2.3522230000
C                  2.3728680000     -2.6624090000      1.4403140000
C                  3.3975070000     -2.4826430000      0.3883770000
O                  3.5995190000     -5.4572850000      3.2363020000
O                  3.2536020000     -1.5710120000     -0.4149220000
C                  5.9332400000     -6.4904930000      2.3057860000
H                  7.5530730000     -5.8706750000      0.2998380000
H                  1.5542560000     -1.9515790000      1.4135280000
C                  5.5524260000     -2.2169210000     -1.7104180000
H                  7.3947070000     -4.0934980000     -1.3701840000
H                  6.8548230000     -7.0266980000      2.0696060000
H                  5.0995680000     -7.1947570000      2.2839290000
H                  5.9889800000     -6.1281970000      3.3338830000
H                  1.7167400000     -3.7783440000      3.1293010000
H                  5.5523040000     -1.2106350000     -1.2874810000
H                  4.6605710000     -2.2755510000     -2.3369480000
H                  6.4359810000     -2.3347360000     -2.3413230000
$end
$rem
MAX_SCF_CYCLES=200
BASIS  =  6-311++G(d,p)
GUI  =  2
JOB_TYPE  =  SP
METHOD  =  B3LYP
SOLVENT_METHOD = PCM
$end
$pcm
theory = CPCM
$end
$solvent
dielectric 37.219
opticaldielectric 1.43
$end

--------------------------------------------------------------

             Standard Nuclear Orientation (Angstroms)
    I     Atom           X                Y                Z
 ----------------------------------------------------------------
    1      C       5.7400620000    -5.3619530000     1.3229850000
    2      C       6.7079570000    -5.1911710000     0.3275620000
    3      C       6.6182800000    -4.1847540000    -0.6181560000
    4      C       4.6526950000    -4.4605450000     1.3307860000
    5      C       4.5603390000    -3.4233980000     0.3563520000
    6      C       5.5542700000    -3.2767670000    -0.6364330000
    7      C       3.5852790000    -4.5927230000     2.3706350000
    8      C       2.4592020000    -3.6333240000     2.3522230000
    9      C       2.3728680000    -2.6624090000     1.4403140000
   10      C       3.3975070000    -2.4826430000     0.3883770000
   11      O       3.5995190000    -5.4572850000     3.2363020000
   12      O       3.2536020000    -1.5710120000    -0.4149220000
   13      C       5.9332400000    -6.4904930000     2.3057860000
   14      H       7.5530730000    -5.8706750000     0.2998380000
   15      H       1.5542560000    -1.9515790000     1.4135280000
   16      C       5.5524260000    -2.2169210000    -1.7104180000
   17      H       7.3947070000    -4.0934980000    -1.3701840000
   18      H       6.8548230000    -7.0266980000     2.0696060000
   19      H       5.0995680000    -7.1947570000     2.2839290000
   20      H       5.9889800000    -6.1281970000     3.3338830000
   21      H       1.7167400000    -3.7783440000     3.1293010000
   22      H       5.5523040000    -1.2106350000    -1.2874810000
   23      H       4.6605710000    -2.2755510000    -2.3369480000
   24      H       6.4359810000    -2.3347360000    -2.3413230000
 ----------------------------------------------------------------

    8    -613.9170411866      9.88e-06  Convergence criterion met
 Total energy in the final basis set =     -613.9170411866

                    Orbital Energies (a.u.)
 --------------------------------------------------------------

 Alpha MOs
 -- Occupied --
-19.1308 -19.1307 -10.2809 -10.2808 -10.2078 -10.2075 -10.2072 -10.2071
-10.2056 -10.2047 -10.1894 -10.1888 -10.1657 -10.1656  -1.0654  -1.0636
 -0.8881  -0.8384  -0.8056  -0.7720  -0.7275  -0.7059  -0.6616  -0.6414
 -0.6331  -0.5585  -0.5317  -0.5271  -0.5026  -0.4853  -0.4632  -0.4562
 -0.4540  -0.4300  -0.4289  -0.4246  -0.4140  -0.4117  -0.4018  -0.3967
 -0.3786  -0.3733  -0.3632  -0.3592  -0.3054  -0.2795  -0.2775  -0.2704
 -0.2591

          Ground-State Mulliken Net Atomic Charges

     Atom                 Charge (a.u.)
  ----------------------------------------
      1 C                     1.179806
      2 C                    -0.635738
      3 C                    -0.637684
      4 C                     0.255463
      5 C                     0.253875
      6 C                     1.180159
      7 C                    -0.916178
      8 C                    -0.211041
      9 C                    -0.210345
     10 C                    -0.916256
     11 O                    -0.280842
     12 O                    -0.282070
     13 C                    -0.345696
     14 H                     0.183603
     15 H                     0.246048
     16 C                    -0.343952
     17 H                     0.183435
     18 H                     0.166165
     19 H                     0.180064
     20 H                     0.179845
     21 H                     0.246103
     22 H                     0.179781
     23 H                     0.179555
     24 H                     0.165899
  ----------------------------------------
  Sum of atomic charges =     0.000000

                    Cartesian Multipole Moments
 -----------------------------------------------------------------
    Charge (ESU x 10^10)
                 0.0000
    Dipole Moment (Debye)
         X       2.2803      Y      -0.8309      Z      -1.0921
       Tot       2.6613
    Quadrupole Moments (Debye-Ang)
        XX     -50.7082     XY     -16.2489     YY     -81.8525
        XZ      -9.0791     YZ      12.1339     ZZ     -88.3021

 Total job time:  36.95s(wall), 215.76s(cpu)
        *  Thank you very much for using Q-Chem.  Have a nice day.  *
