 Gaussian 16, Revision A.03,
 Gaussian 16:  ES64L-G16RevA.03 25-Dec-2016

 --------------------------------------
 #P UB3LYP/6-311++G(d,p) nosym opt freq
 --------------------------------------

 --------
 Oxidized
 --------
 Symbolic Z-matrix:
 Charge =  0 Multiplicity = 1

 SCF Done:  E(UB3LYP) =  -613.905834516     A.U. after   15 cycles
 Optimization completed.
    -- Stationary point found.
 Normal termination of Gaussian 16 at Sun Jan  7 20:15:27 2024.

 ----------------------------------------------------------------------
 #P Geom=AllCheck Guess=TCheck SCRF=Check GenChk UB3LYP/6-311++G(d,p) F
 req
 ----------------------------------------------------------------------

 Structure from the checkpoint file:  "245.chk"
 --------
 Oxidized
 --------
 Charge =  0 Multiplicity = 1

                          Input orientation:
 ---------------------------------------------------------------------
 Center     Atomic      Atomic             Coordinates (Angstroms)
 Number     Number       Type             X           Y           Z
 ---------------------------------------------------------------------
      1          6           0        5.740062   -5.361953    1.322985
      2          6           0        6.707957   -5.191171    0.327562
      3          6           0        6.618280   -4.184754   -0.618156
      4          6           0        4.652695   -4.460545    1.330786
      5          6           0        4.560339   -3.423398    0.356352
      6          6           0        5.554270   -3.276767   -0.636433
      7          6           0        3.585279   -4.592723    2.370635
      8          6           0        2.459202   -3.633324    2.352223
      9          6           0        2.372868   -2.662409    1.440314
     10          6           0        3.397507   -2.482643    0.388377
     11          8           0        3.599519   -5.457285    3.236302
     12          8           0        3.253602   -1.571012   -0.414922
     13          6           0        5.933240   -6.490493    2.305786
     14          1           0        7.553073   -5.870675    0.299838
     15          1           0        1.554256   -1.951579    1.413528
     16          6           0        5.552426   -2.216921   -1.710418
     17          1           0        7.394707   -4.093498   -1.370184
     18          1           0        6.854823   -7.026698    2.069606
     19          1           0        5.099568   -7.194757    2.283929
     20          1           0        5.988980   -6.128197    3.333883
     21          1           0        1.716740   -3.778344    3.129301
     22          1           0        5.552304   -1.210635   -1.287481
     23          1           0        4.660571   -2.275551   -2.336948
     24          1           0        6.435981   -2.334736   -2.341323
 ---------------------------------------------------------------------

 SCF Done:  E(UB3LYP) =  -613.905834516     A.U. after    1 cycles

 Alpha  occ. eigenvalues --  -19.12861 -19.12861 -10.27984 -10.27983 -10.21228
 Alpha  occ. eigenvalues --  -10.21224 -10.21168 -10.21129 -10.21078 -10.20993
 Alpha  occ. eigenvalues --  -10.19728 -10.19670 -10.17194 -10.17194  -1.06271
 Alpha  occ. eigenvalues --   -1.06075  -0.89278  -0.84300  -0.81084  -0.77775
 Alpha  occ. eigenvalues --   -0.73345  -0.70846  -0.66664  -0.64661  -0.63863
 Alpha  occ. eigenvalues --   -0.56178  -0.53684  -0.53037  -0.50523  -0.49272
 Alpha  occ. eigenvalues --   -0.46019  -0.45819  -0.45731  -0.43248  -0.43080
 Alpha  occ. eigenvalues --   -0.42866  -0.41750  -0.41697  -0.40365  -0.40271
 Alpha  occ. eigenvalues --   -0.38422  -0.37937  -0.36905  -0.36342  -0.30741
 Alpha  occ. eigenvalues --   -0.28231  -0.27686  -0.26880  -0.26323
 Alpha virt. eigenvalues --   -0.12325  -0.05154  -0.03877  -0.01120   0.00034
 Alpha virt. eigenvalues --    0.00327   0.01309   0.01694   0.02719   0.03057
 Alpha virt. eigenvalues --    0.03678   0.04110   0.04187   0.05327   0.05978

  Beta  occ. eigenvalues --  -19.12861 -19.12861 -10.27984 -10.27983 -10.21228
  Beta  occ. eigenvalues --  -10.21224 -10.21168 -10.21129 -10.21078 -10.20993
  Beta  occ. eigenvalues --  -10.19728 -10.19670 -10.17194 -10.17194  -1.06271
  Beta  occ. eigenvalues --   -1.06075  -0.89278  -0.84300  -0.81084  -0.77775
  Beta  occ. eigenvalues --   -0.73345  -0.70846  -0.66664  -0.64661  -0.63863
  Beta  occ. eigenvalues --   -0.56178  -0.53684  -0.53037  -0.50523  -0.49272
  Beta  occ. eigenvalues --   -0.46019  -0.45819  -0.45731  -0.43248  -0.43080
  Beta  occ. eigenvalues --   -0.42866  -0.41750  -0.41697  -0.40365  -0.40271
  Beta  occ. eigenvalues --   -0.38422  -0.37937  -0.36905  -0.36342  -0.30741
  Beta  occ. eigenvalues --   -0.28231  -0.27686  -0.26880  -0.26323
  Beta virt. eigenvalues --   -0.12325  -0.05154  -0.03877  -0.01120   0.00034
  Beta virt. eigenvalues --    0.00327   0.01309   0.01694   0.02719   0.03057
  Beta virt. eigenvalues --    0.03678   0.04110   0.04187   0.05327   0.05978

 Mulliken charges and spin densities:
               1          2
     1  C    1.188110  -0.000000
     2  C   -0.627287   0.000000
     3  C   -0.627288   0.000000
     4  C    0.230591   0.000000
     5  C    0.230756   0.000000
     6  C    1.188265  -0.000000
     7  C   -0.985849   0.000000
     8  C   -0.144408  -0.000000
     9  C   -0.144460  -0.000000
    10  C   -0.985862   0.000000
    11  O   -0.209369  -0.000000
    12  O   -0.209372  -0.000000
    13  C   -0.290917  -0.000000
    14  H    0.130858   0.000000
    15  H    0.213673  -0.000000
    16  C   -0.290921  -0.000000
    17  H    0.130842   0.000000
    18  H    0.138168  -0.000000
    19  H    0.178171  -0.000000
    20  H    0.178131  -0.000000
    21  H    0.213673  -0.000000
    22  H    0.178180   0.000000
    23  H    0.178149   0.000000
    24  H    0.138169  -0.000000
 Sum of Mulliken charges =  -0.00000   0.00000

 Dipole moment (field-independent basis, Debye):
    X=              1.5473    Y=             -0.5610    Z=             -0.7437  Tot=              1.8061
 Quadrupole moment (field-independent basis, Debye-Ang):
   XX=            -60.1446   YY=            -82.6515   ZZ=            -86.8568
   XY=            -11.2998   XZ=             -6.6607   YZ=              8.9391

  Exact polarizability: 146.823 -30.313 147.156 -27.982 -44.872 146.906
 Approx polarizability: 228.502 -47.817 255.575 -39.704 -92.408 252.054

                      1                      2                      3
                      A                      A                      A
 Frequencies --     40.6534                49.8620               117.1683
 Red. masses --      5.8190                 4.7862                 3.0776
 Frc consts  --      0.0057                 0.0070                 0.0249
 IR Inten    --      9.6836                 0.0023                 0.8043

                      4                      5                      6
                      A                      A                      A
 Frequencies --    201.1951               223.4145               238.0480
 Red. masses --      5.1160                 1.4054                 1.0502
 Frc consts  --      0.1220                 0.0413                 0.0351
 IR Inten    --      0.3160                 0.0002                 1.4875

                      7                      8                      9
                      A                      A                      A
 Frequencies --    254.0264               283.0179               320.5777
 Red. masses --      2.2164                 5.5273                 3.0839
 Frc consts  --      0.0843                 0.2609                 0.1867
 IR Inten    --      0.0000                 0.0235                 0.0000

                     10                     11                     12
                      A                      A                      A
 Frequencies --    344.2884               374.5907               389.7598
 Red. masses --      2.8610                 5.4402                 9.3507
 Frc consts  --      0.1998                 0.4498                 0.8369
 IR Inten    --      0.7636                 0.3728                10.9922

                     13                     14                     15
                      A                      A                      A
 Frequencies --    445.3331               464.7881               468.9024
 Red. masses --     11.1367                 3.9194                 5.2715
 Frc consts  --      1.3013                 0.4989                 0.6829
 IR Inten    --      9.1835                 0.3447                 4.5867

                     16                     17                     18
                      A                      A                      A
 Frequencies --    478.7978               520.6467               593.3198
 Red. masses --      4.3357                 2.9105                 6.4740
 Frc consts  --      0.5856                 0.4648                 1.3428
 IR Inten    --      0.0000                 4.3718                19.5567

                     19                     20                     21
                      A                      A                      A
 Frequencies --    631.6662               647.6764               703.5012
 Red. masses --      3.7665                 2.3648                 4.4286
 Frc consts  --      0.8855                 0.5845                 1.2914
 IR Inten    --      0.0180                 6.9707                 0.0000

                     22                     23                     24
                      A                      A                      A
 Frequencies --    726.8213               768.2009               799.6275
 Red. masses --      5.2833                 6.3276                 8.5970
 Frc consts  --      1.6444                 2.2001                 3.2387
 IR Inten    --      1.6373                 2.0234                 0.0000

                     25                     26                     27
                      A                      A                      A
 Frequencies --    833.4318               876.3273               880.9232
 Red. masses --      1.2571                 2.0712                 5.6366
 Frc consts  --      0.5145                 0.9372                 2.5772
 IR Inten    --     31.7666                26.4890                 0.9082

                     28                     29                     30
                      A                      A                      A
 Frequencies --    919.0615               982.0715              1018.3257
 Red. masses --      4.5137                 1.3173                 1.2568
 Frc consts  --      2.2463                 0.7486                 0.7679
 IR Inten    --      1.1920                 0.0000                 0.0007

                     31                     32                     33
                      A                      A                      A
 Frequencies --   1019.0045              1051.1238              1054.4850
 Red. masses --      1.6241                 1.4255                 1.5582
 Frc consts  --      0.9936                 0.9280                 1.0209
 IR Inten    --      6.0561                 1.9202                 0.0005

                     34                     35                     36
                      A                      A                      A
 Frequencies --   1059.0228              1108.8048              1115.2932
 Red. masses --      1.5651                 3.7030                 1.5236
 Frc consts  --      1.0342                 2.6823                 1.1166
 IR Inten    --      6.4830                18.3790                85.4997

                     37                     38                     39
                      A                      A                      A
 Frequencies --   1202.5591              1209.9477              1273.9483
 Red. masses --      1.2432                 4.5036                 1.8790
 Frc consts  --      1.0593                 3.8846                 1.7967
 IR Inten    --      4.9504                 1.9243                 1.5457

                     40                     41                     42
                      A                      A                      A
 Frequencies --   1281.3368              1287.0255              1345.9346
 Red. masses --      3.1857                 3.9187                 6.0854
 Frc consts  --      3.0816                 3.8244                 6.4951
 IR Inten    --    173.3750                 0.4232                71.7418

                     43                     44                     45
                      A                      A                      A
 Frequencies --   1392.7412              1401.7644              1420.3995
 Red. masses --      1.8727                 3.1790                 1.2161
 Frc consts  --      2.1402                 3.6804                 1.4455
 IR Inten    --      2.9745                26.0772                13.5251

                     46                     47                     48
                      A                      A                      A
 Frequencies --   1423.1962              1475.3718              1475.5883
 Red. masses --      1.2806                 1.0445                 1.0442
 Frc consts  --      1.5282                 1.3395                 1.3396
 IR Inten    --      0.5382                 0.7075                15.0251

                     49                     50                     51
                      A                      A                      A
 Frequencies --   1478.6315              1489.4035              1492.5662
 Red. masses --      1.2391                 2.5244                 1.1457
 Frc consts  --      1.5961                 3.2994                 1.5038
 IR Inten    --      2.6339                 0.2425                 9.6398

                     52                     53                     54
                      A                      A                      A
 Frequencies --   1587.6322              1621.9013              1678.0747
 Red. masses --      4.7080                 6.5431                 9.4374
 Frc consts  --      6.9918                10.1411                15.6576
 IR Inten    --     58.9782                12.0588                48.2954

                     55                     56                     57
                      A                      A                      A
 Frequencies --   1710.2088              1713.4212              3040.4488
 Red. masses --     11.0148                 8.6692                 1.0359
 Frc consts  --     18.9812                14.9954                 5.6421
 IR Inten    --    408.8230                 7.7609                28.5284

                     58                     59                     60
                      A                      A                      A
 Frequencies --   3040.4971              3101.5939              3101.7616
 Red. masses --      1.0358                 1.0989                 1.0989
 Frc consts  --      5.6419                 6.2286                 6.2294
 IR Inten    --     11.9659                 3.5740                 9.7251

                     61                     62                     63
                      A                      A                      A
 Frequencies --   3108.2362              3108.4168              3160.1480
 Red. masses --      1.1030                 1.1029                 1.0871
 Frc consts  --      6.2783                 6.2789                 6.3965
 IR Inten    --      5.7465                39.6455                 7.9282

                     64                     65                     66
                      A                      A                      A
 Frequencies --   3173.8113              3176.9706              3192.3505
 Red. masses --      1.0870                 1.0946                 1.0996
 Frc consts  --      6.4511                 6.5095                 6.6024
 IR Inten    --      1.0833                20.8798                 5.5446

 - Thermochemistry -
 -------------------
 Temperature   298.150 Kelvin.  Pressure   1.00000 Atm.
 Atom     1 has atomic number  6 and mass  12.00000

 Molecular mass:   186.06808 amu.
 Principal axes and moments of inertia in atomic units:
                           1         2         3
     Eigenvalues --  1920.409582307.379744205.97340
           X           -0.06478   0.85671   0.51172
           Y            0.72724  -0.31062   0.61208
           Z           -0.68332  -0.41179   0.60291
 This molecule is an asymmetric top.
 Rotational symmetry number  1.
 Warning -- assumption of classical behavior for rotation
           may cause significant error
 Rotational temperatures (Kelvin)      0.04510     0.03754     0.02059
 Rotational constants (GHZ):           0.93977     0.78216     0.42909
 Zero-point vibrational energy     491483.6 (Joules/Mol)
                                  117.46741 (Kcal/Mol)
 Warning -- explicit consideration of  18 degrees of freedom as
           vibrations may cause significant error
 Vibrational temperatures:     58.49    71.74   168.58   289.47   321.44
          (Kelvin)            342.50   365.49   407.20   461.24   495.35
                              538.95   560.78   640.73   668.73   674.65
                              688.88   749.09   853.65   908.83   931.86
                             1012.18  1045.73  1105.27  1150.49  1199.12
                             1260.84  1267.45  1322.32  1412.98  1465.14
                             1466.12  1512.33  1517.17  1523.70  1595.32
                             1604.66  1730.21  1740.84  1832.93  1843.56
                             1851.74  1936.50  2003.84  2016.83  2043.64
                             2047.66  2122.73  2123.04  2127.42  2142.92
                             2147.47  2284.25  2333.55  2414.38  2460.61
                             2465.23  4374.53  4374.60  4462.50  4462.74
                             4472.06  4472.32  4546.75  4566.41  4570.95
                             4593.08

 Zero-point correction=                           0.187196 (Hartree/Particle)
 Thermal correction to Energy=                    0.199015
 Thermal correction to Enthalpy=                  0.199959
 Thermal correction to Gibbs Free Energy=         0.149034
 Sum of electronic and zero-point Energies=           -613.718638
 Sum of electronic and thermal Energies=              -613.706819
 Sum of electronic and thermal Enthalpies=            -613.705875
 Sum of electronic and thermal Free Energies=         -613.756801

                     E (Thermal)             CV                S
                      KCal/Mol        Cal/Mol-Kelvin    Cal/Mol-Kelvin
 Total                  124.884             46.171            107.182
 Electronic               0.000              0.000              0.000
 Translational            0.889              2.981             41.569
 Rotational               0.889              2.981             31.300
 Vibrational            123.106             40.210             34.313
 Vibration     1          0.594              1.981              5.227
 Vibration     2          0.595              1.978              4.823
 Vibration     3          0.608              1.935              3.147
 Vibration     4          0.638              1.838              2.122
 Vibration     5          0.649              1.805              1.931
 Vibration     6          0.656              1.782              1.817
 Vibration     7          0.665              1.756              1.702
 Vibration     8          0.682              1.705              1.515
 Vibration     9          0.706              1.634              1.307
 Vibration    10          0.723              1.587              1.192
 Vibration    11          0.746              1.524              1.061
 Vibration    12          0.758              1.492              1.001
 Vibration    13          0.805              1.371              0.810
 Vibration    14          0.822              1.328              0.752
 Vibration    15          0.826              1.319              0.741
 Vibration    16          0.835              1.297              0.713
 Vibration    17          0.876              1.204              0.608
 Vibration    18          0.951              1.046              0.461

 Optimization completed.
    -- Stationary point found.
 Normal termination of Gaussian 16 at Sun Jan  7 20:49:23 2024.
