 Q-Chem 5.4, Q-Chem, Inc., Pleasanton, CA (2021)
 Q-Chem 5.4.0 for Intel X86 EM64T Linux

User input:
--------------------------------------------------------------
$molecule
0 1
C                 -1.5521870000      2.7893590000     -0.0577920000
C                 -2.8179610000      2.2054580000     -0.0252240000
C                 -2.9237910000      0.7968180000      0.0444900000
C                 -0.3913950000      2.0154070000     -0.0236540000
C                 -0.4960600000      0.6222840000      0.0448570000
C                 -1.7594550000      0.0304060000      0.0782740000
C                  0.9428570000      2.6710660000     -0.0597520000
C                  2.1606650000      1.8024470000     -0.0219870000
C                  2.0591710000      0.4519310000      0.0429650000
C                  0.7253580000     -0.2251490000      0.0814130000
O                  1.0477210000      3.8878130000     -0.1187800000
O                  0.6475400000     -1.4439080000      0.1412200000
C                  3.4901810000      2.5033570000     -0.0596490000
C                  3.2690720000     -0.4396290000      0.0817670000
H                 -1.4471460000      3.8667950000     -0.1107330000
C                 -4.0510420000      3.0721980000     -0.0643680000
C                 -4.2725480000      0.1239680000      0.0821350000
H                  3.3509290000      3.5816910000     -0.1060150000
H                  4.0749320000      2.1864270000     -0.9292800000
H                  4.0845880000      2.2626350000      0.8276160000
H                  3.8934080000     -0.2140590000      0.9524170000
H                  3.8939840000     -0.2899790000     -0.8046560000
H                  2.9704860000     -1.4851650000      0.1270950000
H                 -1.8165670000     -1.0506210000      0.1314510000
H                 -3.7858010000      4.1290700000     -0.1118950000
H                 -4.6757580000      2.9201810000      0.8218310000
H                 -4.6746660000      2.8412400000     -0.9342590000
H                 -4.8573060000      0.4479010000      0.9492940000
H                 -4.1681660000     -0.9605260000      0.1328120000
H                 -4.8649110000      0.3650180000     -0.8066000000
$end

$rem
BASIS  =  6-311++G(d,p)
GUI  =  2
JOB_TYPE  =  SP
METHOD  =  B3LYP
SCF_CONVERGENCE  = 8
SOLVENT_METHOD = sm12
$end

$smx
solvent dimethylformamide
charges CM5
$end

--------------------------------------------------------------

             Standard Nuclear Orientation (Angstroms)
    I     Atom           X                Y                Z
 ----------------------------------------------------------------
    1      C      -1.5521870000     2.7893590000    -0.0577920000
    2      C      -2.8179610000     2.2054580000    -0.0252240000
    3      C      -2.9237910000     0.7968180000     0.0444900000
    4      C      -0.3913950000     2.0154070000    -0.0236540000
    5      C      -0.4960600000     0.6222840000     0.0448570000
    6      C      -1.7594550000     0.0304060000     0.0782740000
    7      C       0.9428570000     2.6710660000    -0.0597520000
    8      C       2.1606650000     1.8024470000    -0.0219870000
    9      C       2.0591710000     0.4519310000     0.0429650000
   10      C       0.7253580000    -0.2251490000     0.0814130000
   11      O       1.0477210000     3.8878130000    -0.1187800000
   12      O       0.6475400000    -1.4439080000     0.1412200000
   13      C       3.4901810000     2.5033570000    -0.0596490000
   14      C       3.2690720000    -0.4396290000     0.0817670000
   15      H      -1.4471460000     3.8667950000    -0.1107330000
   16      C      -4.0510420000     3.0721980000    -0.0643680000
   17      C      -4.2725480000     0.1239680000     0.0821350000
   18      H       3.3509290000     3.5816910000    -0.1060150000
   19      H       4.0749320000     2.1864270000    -0.9292800000
   20      H       4.0845880000     2.2626350000     0.8276160000
   21      H       3.8934080000    -0.2140590000     0.9524170000
   22      H       3.8939840000    -0.2899790000    -0.8046560000
   23      H       2.9704860000    -1.4851650000     0.1270950000
   24      H      -1.8165670000    -1.0506210000     0.1314510000
   25      H      -3.7858010000     4.1290700000    -0.1118950000
   26      H      -4.6757580000     2.9201810000     0.8218310000
   27      H      -4.6746660000     2.8412400000    -0.9342590000
   28      H      -4.8573060000     0.4479010000     0.9492940000
   29      H      -4.1681660000    -0.9605260000     0.1328120000
   30      H      -4.8649110000     0.3650180000    -0.8066000000
 ----------------------------------------------------------------

   14    -692.5728397623      3.56e-09  Convergence criterion met
 Total energy in the final basis set =     -692.5907252829

                    Orbital Energies (a.u.)
 --------------------------------------------------------------

 Alpha MOs
 -- Occupied --
-19.1272 -19.1272 -10.2759 -10.2759 -10.2091 -10.2084 -10.2012 -10.2008
-10.1997 -10.1992 -10.1897 -10.1897 -10.1696 -10.1696 -10.1694 -10.1693
 -1.0609  -1.0591  -0.8883  -0.8513  -0.8052  -0.7838  -0.7455  -0.7208
 -0.7199  -0.6735  -0.6563  -0.6187  -0.5928  -0.5788  -0.5387  -0.5006
 -0.4981  -0.4664  -0.4620  -0.4515  -0.4459  -0.4444  -0.4413  -0.4206
 -0.4170  -0.4119  -0.4086  -0.4030  -0.3957  -0.3945  -0.3926  -0.3822
 -0.3791  -0.3589  -0.3570  -0.3552  -0.2845  -0.2819  -0.2691  -0.2681
 -0.2584

          Ground-State Mulliken Net Atomic Charges

     Atom                 Charge (a.u.)
  ----------------------------------------
      1 C                    -0.505779
      2 C                     0.665628
      3 C                     0.657982
      4 C                    -0.970790
      5 C                    -0.970700
      6 C                    -0.505994
      7 C                    -1.314178
      8 C                     0.372291
      9 C                     0.375021
     10 C                    -1.315246
     11 O                    -0.286469
     12 O                    -0.286129
     13 C                     0.174690
     14 C                     0.176152
     15 H                     0.114287
     16 C                     0.439687
     17 C                     0.437413
     18 H                     0.182512
     19 H                     0.223274
     20 H                     0.222997
     21 H                     0.223207
     22 H                     0.222927
     23 H                     0.182879
     24 H                     0.114457
     25 H                     0.255511
     26 H                     0.214524
     27 H                     0.214973
     28 H                     0.214950
     29 H                     0.255118
     30 H                     0.214803
  ----------------------------------------
  Sum of atomic charges =     0.000000

                    Cartesian Multipole Moments
 -----------------------------------------------------------------
    Charge (ESU x 10^10)
                -0.0000
    Dipole Moment (Debye)
         X      -2.0721      Y       0.1558      Z      -0.0030
       Tot       2.0780
    Quadrupole Moments (Debye-Ang)
        XX     -68.1105     XY      -5.7887     YY    -109.0309
        XZ       0.0389     YZ       0.6845     ZZ     -95.3427

 Total job time:  592.41s(wall), 4640.77s(cpu)
        *  Thank you very much for using Q-Chem.  Have a nice day.  *
