 Q-Chem 5.4, Q-Chem, Inc., Pleasanton, CA (2021)
 Q-Chem 5.4.0 for Intel X86 EM64T Linux

User input:
--------------------------------------------------------------
$molecule
-1 2
C                  2.0319030000      3.8977990000      5.6069780000
C                  2.8432840000      3.3596440000      4.5178840000
C                  2.4070000000      2.4004270000      3.6567880000
C                  1.0766920000      1.8241500000      3.7546710000
C                  0.2660680000      2.3348010000      4.8289430000
C                  0.6986010000      3.2954400000      5.7325360000
O                  2.4665010000      4.8239020000      6.3261340000
O                  0.6656690000      0.9344170000      2.9542160000
H                  3.8360620000      3.7914310000      4.4258610000
H                  3.0416260000      2.0300330000      2.8556800000
H                 -0.7265130000      1.9117230000      4.9253830000
C                 -0.1823360000      3.6945420000      6.8471450000
O                  0.1367930000      4.1187070000      7.9354090000
O                 -1.5188070000      3.5046660000      6.5378290000
C                 -2.4307840000      3.7877130000      7.5949400000
H                 -3.4234780000      3.5856290000      7.1911210000
H                 -2.3568830000      4.8314050000      7.9114990000
H                 -2.2403760000      3.1514220000      8.4638230000
$end
$rem
MAX_SCF_CYCLES=200
BASIS  =  6-311++G(d,p)
GUI  =  2
JOB_TYPE  =  SP
METHOD  =  B3LYP
SOLVENT_METHOD = PCM
$end
$pcm
theory = CPCM
$end
$solvent
dielectric 37.219
opticaldielectric 1.43
$end

--------------------------------------------------------------

             Standard Nuclear Orientation (Angstroms)
    I     Atom           X                Y                Z
 ----------------------------------------------------------------
    1      C       2.0319030000     3.8977990000     5.6069780000
    2      C       2.8432840000     3.3596440000     4.5178840000
    3      C       2.4070000000     2.4004270000     3.6567880000
    4      C       1.0766920000     1.8241500000     3.7546710000
    5      C       0.2660680000     2.3348010000     4.8289430000
    6      C       0.6986010000     3.2954400000     5.7325360000
    7      O       2.4665010000     4.8239020000     6.3261340000
    8      O       0.6656690000     0.9344170000     2.9542160000
    9      H       3.8360620000     3.7914310000     4.4258610000
   10      H       3.0416260000     2.0300330000     2.8556800000
   11      H      -0.7265130000     1.9117230000     4.9253830000
   12      C      -0.1823360000     3.6945420000     6.8471450000
   13      O       0.1367930000     4.1187070000     7.9354090000
   14      O      -1.5188070000     3.5046660000     6.5378290000
   15      C      -2.4307840000     3.7877130000     7.5949400000
   16      H      -3.4234780000     3.5856290000     7.1911210000
   17      H      -2.3568830000     4.8314050000     7.9114990000
   18      H      -2.2403760000     3.1514220000     8.4638230000
 ----------------------------------------------------------------

    9    -609.6760945203      7.49e-06  Convergence criterion met
 Total energy in the final basis set =     -609.6760945203

                    Orbital Energies (a.u.)
 --------------------------------------------------------------

 Alpha MOs
 -- Occupied --
-19.1620 -19.1159 -19.0883 -19.0882 -10.3043 -10.2382 -10.2287 -10.2139
-10.1865 -10.1784 -10.1738 -10.1725  -1.1034  -1.0219  -1.0135  -1.0075
 -0.8364  -0.7738  -0.7167  -0.6933  -0.6301  -0.5909  -0.5531  -0.5129
 -0.4890  -0.4805  -0.4713  -0.4666  -0.4439  -0.4226  -0.4155  -0.4135
 -0.3970  -0.3911  -0.3829  -0.3701  -0.3577  -0.3080  -0.2951  -0.2923
 -0.2707  -0.2534  -0.2437  -0.1753

 Beta MOs
 -- Occupied --
-19.1619 -19.1155 -19.0822 -19.0808 -10.3043 -10.2373 -10.2275 -10.2139
-10.1854 -10.1760 -10.1734 -10.1715  -1.1030  -1.0203  -1.0040  -0.9942
 -0.8303  -0.7714  -0.7143  -0.6838  -0.6265  -0.5876  -0.5515  -0.5102
 -0.4870  -0.4794  -0.4677  -0.4656  -0.4412  -0.4166  -0.4091  -0.4061
 -0.3902  -0.3836  -0.3681  -0.3581  -0.3556  -0.3065  -0.2935  -0.2621
 -0.2599  -0.2467  -0.2384

          Ground-State Mulliken Net Atomic Charges

     Atom                 Charge (a.u.)    Spin (a.u.)
  --------------------------------------------------------
      1 C                    -0.943604       0.036363
      2 C                     0.039991       0.083888
      3 C                     0.084405       0.027910
      4 C                    -0.419381       0.126135
      5 C                    -0.318328       0.150360
      6 C                     1.068485       0.071957
      7 O                    -0.475737       0.217634
      8 O                    -0.505853       0.265658
      9 H                     0.210112      -0.007022
     10 H                     0.214162      -0.003105
     11 H                     0.215675      -0.012290
     12 C                     0.044537       0.026524
     13 O                    -0.341949       0.016256
     14 O                    -0.141554      -0.000135
     15 C                    -0.267465      -0.000383
     16 H                     0.167658       0.000043
     17 H                     0.181301       0.000252
     18 H                     0.187547      -0.000042
  --------------------------------------------------------
  Sum of atomic charges =    -1.000000

                    Cartesian Multipole Moments
 -----------------------------------------------------------------
    Charge (ESU x 10^10)
                -4.8032
    Dipole Moment (Debye)
         X      -7.4199      Y     -14.9357      Z     -24.9676
       Tot      30.0252
    Quadrupole Moments (Debye-Ang)
        XX     -77.0841     XY     -32.1187     YY    -139.5688
        XZ     -51.4934     YZ     -99.3387     ZZ    -225.3525

 Total job time:  22.63s(wall), 134.21s(cpu)
        *  Thank you very much for using Q-Chem.  Have a nice day.  *
