 Q-Chem 5.4, Q-Chem, Inc., Pleasanton, CA (2021)
 Q-Chem 5.4.0 for Intel X86 EM64T Linux

User input:
--------------------------------------------------------------
$molecule
0 1
C                 -0.1610190000      3.8985470000      0.3881290000
C                 -1.4015770000      3.4296160000      0.8076210000
C                 -1.6934020000      2.0649540000      0.7439760000
C                  0.7973720000      3.0012000000     -0.0903840000
C                  0.5049410000      1.6333130000     -0.1539360000
C                 -0.7444680000      1.1687140000      0.2622430000
C                  2.1144610000      3.5182320000     -0.5588650000
C                  3.1605950000      2.5153140000     -0.9412730000
C                  2.8710230000      1.1840180000     -1.0313080000
C                  1.5222990000      0.6705520000     -0.6620290000
O                  2.3177080000      4.7174390000     -0.6399850000
O                  1.2635300000     -0.5216280000     -0.7479280000
H                  0.0825100000      4.9531150000      0.4208210000
H                 -2.1435990000      4.1258130000      1.1815950000
H                 -2.6622220000      1.7027110000      1.0686550000
H                 -0.9504350000      0.1074160000      0.2002310000
S                  4.7620720000      3.0574980000     -1.4703300000
C                  5.1463730000      4.5940810000     -0.5474090000
C                  3.8681410000      0.1619380000     -1.4926760000
H                  6.2221260000      4.7172130000     -0.6819470000
H                  4.9308020000      4.4717000000      0.5124950000
H                  4.6074560000      5.4459700000     -0.9472710000
H                  4.0281940000      0.2318440000     -2.5746380000
H                  3.5085770000     -0.8410100000     -1.2708250000
H                  4.8387030000      0.3286380000     -1.0177340000
$end
$rem
MAX_SCF_CYCLES=200
BASIS  =  6-311++G(d,p)
GUI  =  2
JOB_TYPE  =  SP
METHOD  =  B3LYP
SOLVENT_METHOD = PCM
$end
$pcm
theory = CPCM
$end
$solvent
dielectric 37.219
opticaldielectric 1.43
$end

--------------------------------------------------------------

             Standard Nuclear Orientation (Angstroms)
    I     Atom           X                Y                Z
 ----------------------------------------------------------------
    1      C      -0.1610190000     3.8985470000     0.3881290000
    2      C      -1.4015770000     3.4296160000     0.8076210000
    3      C      -1.6934020000     2.0649540000     0.7439760000
    4      C       0.7973720000     3.0012000000    -0.0903840000
    5      C       0.5049410000     1.6333130000    -0.1539360000
    6      C      -0.7444680000     1.1687140000     0.2622430000
    7      C       2.1144610000     3.5182320000    -0.5588650000
    8      C       3.1605950000     2.5153140000    -0.9412730000
    9      C       2.8710230000     1.1840180000    -1.0313080000
   10      C       1.5222990000     0.6705520000    -0.6620290000
   11      O       2.3177080000     4.7174390000    -0.6399850000
   12      O       1.2635300000    -0.5216280000    -0.7479280000
   13      H       0.0825100000     4.9531150000     0.4208210000
   14      H      -2.1435990000     4.1258130000     1.1815950000
   15      H      -2.6622220000     1.7027110000     1.0686550000
   16      H      -0.9504350000     0.1074160000     0.2002310000
   17      S       4.7620720000     3.0574980000    -1.4703300000
   18      C       5.1463730000     4.5940810000    -0.5474090000
   19      C       3.8681410000     0.1619380000    -1.4926760000
   20      H       6.2221260000     4.7172130000    -0.6819470000
   21      H       4.9308020000     4.4717000000     0.5124950000
   22      H       4.6074560000     5.4459700000    -0.9472710000
   23      H       4.0281940000     0.2318440000    -2.5746380000
   24      H       3.5085770000    -0.8410100000    -1.2708250000
   25      H       4.8387030000     0.3286380000    -1.0177340000
 ----------------------------------------------------------------

    9   -1012.1377633170      2.93e-06  Convergence criterion met
 Total energy in the final basis set =    -1012.1377633170

                    Orbital Energies (a.u.)
 --------------------------------------------------------------

 Alpha MOs
 -- Occupied --
-88.8691 -19.1364 -19.1317 -10.2906 -10.2812 -10.2371 -10.2156 -10.2071
-10.2060 -10.1967 -10.1961 -10.1960 -10.1956 -10.1953 -10.1707  -7.9549
 -5.9189  -5.9146  -5.9093  -1.0729  -1.0654  -0.8907  -0.8603  -0.7987
 -0.7778  -0.7769  -0.7254  -0.6863  -0.6672  -0.6274  -0.6098  -0.5847
 -0.5503  -0.5199  -0.5001  -0.4744  -0.4650  -0.4621  -0.4566  -0.4502
 -0.4404  -0.4304  -0.4259  -0.4133  -0.4107  -0.4022  -0.3928  -0.3800
 -0.3773  -0.3677  -0.3425  -0.3105  -0.2909  -0.2829  -0.2781  -0.2750
 -0.2387

          Ground-State Mulliken Net Atomic Charges

     Atom                 Charge (a.u.)
  ----------------------------------------
      1 C                     0.111260
      2 C                    -0.437018
      3 C                    -0.448891
      4 C                     0.153904
      5 C                     0.661469
      6 C                     0.123743
      7 C                    -0.855920
      8 C                     0.604617
      9 C                     1.033702
     10 C                    -1.082111
     11 O                    -0.259702
     12 O                    -0.291595
     13 H                     0.211554
     14 H                     0.221125
     15 H                     0.223451
     16 H                     0.199627
     17 S                    -0.600042
     18 C                    -0.628609
     19 C                    -0.130147
     20 H                     0.178313
     21 H                     0.213379
     22 H                     0.227458
     23 H                     0.215352
     24 H                     0.187147
     25 H                     0.167934
  ----------------------------------------
  Sum of atomic charges =     0.000000

                    Cartesian Multipole Moments
 -----------------------------------------------------------------
    Charge (ESU x 10^10)
                 0.0000
    Dipole Moment (Debye)
         X      -0.6012      Y       1.9584      Z       2.0512
       Tot       2.8990
    Quadrupole Moments (Debye-Ang)
        XX     -77.4119     XY       1.3958     YY     -95.6183
        XZ      -0.1904     YZ       6.6465     ZZ     -96.7296

 Total job time:  42.99s(wall), 284.91s(cpu)
        *  Thank you very much for using Q-Chem.  Have a nice day.  *
