 Gaussian 16, Revision A.03,
 Gaussian 16:  ES64L-G16RevA.03 25-Dec-2016

 ----------------------------------------------------------------
 #P UB3LYP/6-311++G(d,p) SCRF=(PCM,Solvent=n,n-DiMethylFormamide)
 ----------------------------------------------------------------

 ------------------
 Radical PCM in DMF
 ------------------
 Symbolic Z-matrix:
 Charge = -1 Multiplicity = 2

                         Standard orientation:
 ---------------------------------------------------------------------
 Center     Atomic      Atomic             Coordinates (Angstroms)
 Number     Number       Type             X           Y           Z
 ---------------------------------------------------------------------
      1          6           0        2.690237   -1.641932    0.000072
      2          6           0        3.991830   -1.185427    0.000170
      3          6           0        4.255527    0.202729    0.000164
      4          6           0        1.600476   -0.738948   -0.000037
      5          6           0        1.866206    0.663507   -0.000058
      6          6           0        3.206149    1.101541    0.000058
      7          6           0        0.244936   -1.243285   -0.000139
      8          6           0       -0.826236   -0.271058   -0.000065
      9          6           0       -0.582190    1.134174   -0.000100
     10          6           0        0.786255    1.660353   -0.000094
     11          6           0       -2.166984   -0.730229    0.000011
     12          6           0       -3.225395    0.171667    0.000099
     13          6           0       -1.675640    2.019317   -0.000051
     14          6           0       -2.979650    1.550231    0.000054
     15          8           0       -0.011883   -2.504843   -0.000258
     16          8           0        1.025508    2.888698   -0.000134
     17          8           0       -2.469819   -2.054678   -0.000009
     18          1           0        2.463595   -2.701637    0.000024
     19          1           0        4.815875   -1.892838    0.000244
     20          1           0        5.280769    0.560205    0.000290
     21          1           0        3.378245    2.171806    0.000139
     22          1           0       -1.554833   -2.510725   -0.000149
     23          8           0       -4.515018   -0.306954    0.000217
     24          1           0       -1.464435    3.081510   -0.000008
     25          1           0       -3.824779    2.230225    0.000145
     26          1           0       -4.437872   -1.272153    0.000283
 ---------------------------------------------------------------------

 SCF Done:  E(UB3LYP) =  -839.608912436     A.U. after   20 cycles

 The electronic state is 2-A.
 Alpha  occ. eigenvalues --  -19.15594 -19.13746 -19.09216 -19.07987 -10.23339
 Alpha  occ. eigenvalues --  -10.23180 -10.23161 -10.23067 -10.17987 -10.17749
 Alpha  occ. eigenvalues --  -10.17630 -10.17575 -10.17539 -10.17445 -10.17391
 Alpha  occ. eigenvalues --  -10.17309 -10.17243 -10.17094  -1.07527  -1.04725
 Alpha  occ. eigenvalues --   -1.00830  -1.00404  -0.86494  -0.85115  -0.78879
 Alpha  occ. eigenvalues --   -0.75519  -0.74474  -0.74124  -0.67373  -0.64868
 Alpha  occ. eigenvalues --   -0.63032  -0.60333  -0.57135  -0.55467  -0.53663
 Alpha  occ. eigenvalues --   -0.51768  -0.49936  -0.48564  -0.46899  -0.45171
 Alpha  occ. eigenvalues --   -0.44462  -0.43842  -0.42799  -0.42248  -0.41543
 Alpha  occ. eigenvalues --   -0.41423  -0.40653  -0.39838  -0.38936  -0.37312
 Alpha  occ. eigenvalues --   -0.36728  -0.36054  -0.35548  -0.35351  -0.33940
 Alpha  occ. eigenvalues --   -0.32447  -0.27093  -0.26150  -0.26046  -0.24609
 Alpha  occ. eigenvalues --   -0.24324  -0.22333  -0.14531
 Alpha virt. eigenvalues --   -0.05311  -0.02066  -0.00410   0.00162   0.00296
 Alpha virt. eigenvalues --    0.00974   0.02021   0.02247   0.04267   0.04356
 Alpha virt. eigenvalues --    0.04424   0.04569   0.05038   0.06366   0.06462

  Beta  occ. eigenvalues --  -19.15568 -19.13702 -19.08696 -19.07516 -10.23275
  Beta  occ. eigenvalues --  -10.23092 -10.22935 -10.22881 -10.17997 -10.17710
  Beta  occ. eigenvalues --  -10.17597 -10.17521 -10.17460 -10.17363 -10.17329
  Beta  occ. eigenvalues --  -10.17268 -10.17262 -10.17075  -1.07431  -1.04563
  Beta  occ. eigenvalues --   -1.00007  -0.99532  -0.86228  -0.84999  -0.78503
  Beta  occ. eigenvalues --   -0.75250  -0.74301  -0.73930  -0.66663  -0.64713
  Beta  occ. eigenvalues --   -0.62781  -0.60210  -0.56936  -0.55372  -0.53459
  Beta  occ. eigenvalues --   -0.51651  -0.49752  -0.48335  -0.46726  -0.45076
  Beta  occ. eigenvalues --   -0.43813  -0.43681  -0.42731  -0.41938  -0.41318
  Beta  occ. eigenvalues --   -0.40409  -0.40351  -0.39748  -0.37445  -0.37201
  Beta  occ. eigenvalues --   -0.35976  -0.35941  -0.35413  -0.34453  -0.33810
  Beta  occ. eigenvalues --   -0.31509  -0.25725  -0.25365  -0.25338  -0.24186
  Beta  occ. eigenvalues --   -0.23886  -0.21442
  Beta virt. eigenvalues --   -0.08843  -0.04252  -0.01136  -0.00390   0.00303
  Beta virt. eigenvalues --    0.00579   0.00981   0.02030   0.02254   0.04277
  Beta virt. eigenvalues --    0.04384   0.04534   0.04565   0.05920   0.06467

 Mulliken charges and spin densities:
               1          2
     1  C    0.080985   0.062984
     2  C   -0.461197   0.010854
     3  C   -0.485536   0.070817
     4  C    0.176060  -0.004057
     5  C   -0.080586   0.058562
     6  C    0.080417   0.002327
     7  C   -0.379399   0.177596
     8  C    0.556157  -0.024286
     9  C    0.474761   0.035519
    10  C   -0.466012   0.071288
    11  C   -0.165335   0.065263
    12  C   -0.372518   0.044907
    13  C    0.005591   0.033565
    14  C   -0.009034   0.027335
    15  O   -0.504504   0.188729
    16  O   -0.446728   0.175439
    17  O   -0.472605   0.014302
    18  H    0.169654  -0.002474
    19  H    0.183243  -0.001543
    20  H    0.182211  -0.005172
    21  H    0.163878   0.000085
    22  H    0.398646  -0.004332
    23  O   -0.309979   0.007459
    24  H    0.164132  -0.002354
    25  H    0.210881  -0.002578
    26  H    0.306818  -0.000235
 Sum of Mulliken charges =  -1.00000   1.00000

 Dipole moment (field-independent basis, Debye):
    X=              1.2342    Y=             -1.6734    Z=              0.0010  Tot=              2.0794
 Quadrupole moment (field-independent basis, Debye-Ang):
   XX=           -119.4820   YY=           -134.2794   ZZ=           -110.2192
   XY=             -7.3515   XZ=              0.0009   YZ=             -0.0001

 Normal termination of Gaussian 16 at Tue Jan 16 05:33:21 2024.
