 Gaussian 16, Revision A.03,
 Gaussian 16:  ES64L-G16RevA.03 25-Dec-2016

 ----------------------------------------------------------------------
 #P UB3LYP/6-311++G(d,p) nosym opt freq SCRF=(PCM,Solvent=n,n-DiMethylF
 ormamide)
 ----------------------------------------------------------------------

 -------
 Reduced
 -------
 Symbolic Z-matrix:
 Charge = -2 Multiplicity = 1

 SCF Done:  E(UB3LYP) =  -627.794957089     A.U. after   19 cycles
 SCF Done:  E(UB3LYP) =  -627.795812786     A.U. after   15 cycles
 SCF Done:  E(UB3LYP) =  -627.795962374     A.U. after   14 cycles
 SCF Done:  E(UB3LYP) =  -627.795989803     A.U. after   13 cycles
 SCF Done:  E(UB3LYP) =  -627.796003849     A.U. after   12 cycles
 SCF Done:  E(UB3LYP) =  -627.796006399     A.U. after   11 cycles
 Optimization completed.
    -- Stationary point found.
 Normal termination of Gaussian 16 at Sun Feb 11 01:55:36 2024.

 ----------------------------------------------------------------------
 #P Geom=AllCheck Guess=TCheck SCRF=Check GenChk UB3LYP/6-311++G(d,p) F
 req
 ----------------------------------------------------------------------

 Structure from the checkpoint file:  "227-an.chk"
 -------
 Reduced
 -------
 Charge = -2 Multiplicity = 1

                          Input orientation:
 ---------------------------------------------------------------------
 Center     Atomic      Atomic             Coordinates (Angstroms)
 Number     Number       Type             X           Y           Z
 ---------------------------------------------------------------------
      1          6           0        5.668950   -5.106957    1.284867
      2          6           0        6.678403   -5.029710    0.358101
      3          6           0        6.586311   -4.063082   -0.694153
      4          6           0        4.523550   -4.263860    1.247648
      5          6           0        4.433640   -3.287404    0.175100
      6          6           0        5.477841   -3.221793   -0.760962
      7          6           0        3.492723   -4.387626    2.249535
      8          6           0        2.415588   -3.482083    2.088026
      9          6           0        2.320087   -2.536759    1.053123
     10          6           0        3.299922   -2.378918    0.046480
     11          8           0        3.555613   -5.259962    3.222393
     12          8           0        3.214665   -1.509845   -0.915797
     13          6           0        7.617678   -3.958707   -1.664050
     14          7           0        8.468229   -3.881335   -2.452312
     15          1           0        5.725485   -5.832536    2.088414
     16          1           0        7.539393   -5.686111    0.411403
     17          1           0        5.398096   -2.485306   -1.552135
     18          1           0        1.611830   -3.532634    2.820943
     19          1           0        1.449727   -1.884264    1.014664
 ---------------------------------------------------------------------

 SCF Done:  E(UB3LYP) =  -627.796006399     A.U. after    1 cycles

 Alpha  occ. eigenvalues --  -19.02443 -19.01713 -14.30425 -10.20831 -10.18938
 Alpha  occ. eigenvalues --  -10.18148 -10.17481 -10.17043 -10.16539 -10.15661
 Alpha  occ. eigenvalues --  -10.15023 -10.14725 -10.13227 -10.12887  -0.93591
 Alpha  occ. eigenvalues --   -0.92535  -0.90633  -0.84366  -0.77966  -0.74429
 Alpha  occ. eigenvalues --   -0.72413  -0.65724  -0.62110  -0.59666  -0.54620
 Alpha  occ. eigenvalues --   -0.52044  -0.48479  -0.45118  -0.43208  -0.41511
 Alpha  occ. eigenvalues --   -0.40429  -0.39226  -0.39136  -0.37313  -0.36362
 Alpha  occ. eigenvalues --   -0.36074  -0.35701  -0.33565  -0.32530  -0.32205
 Alpha  occ. eigenvalues --   -0.31312  -0.31174  -0.24267  -0.22920  -0.22509
 Alpha  occ. eigenvalues --   -0.20341  -0.19791  -0.12185
 Alpha virt. eigenvalues --   -0.03731  -0.00904   0.00095   0.01272   0.01742
 Alpha virt. eigenvalues --    0.02973   0.03250   0.03450   0.04974   0.05387
 Alpha virt. eigenvalues --    0.05678   0.05871   0.06775   0.06912   0.08013

  Beta  occ. eigenvalues --  -19.02443 -19.01713 -14.30425 -10.20831 -10.18938
  Beta  occ. eigenvalues --  -10.18148 -10.17481 -10.17043 -10.16539 -10.15661
  Beta  occ. eigenvalues --  -10.15023 -10.14725 -10.13227 -10.12887  -0.93591
  Beta  occ. eigenvalues --   -0.92535  -0.90633  -0.84366  -0.77966  -0.74429
  Beta  occ. eigenvalues --   -0.72413  -0.65724  -0.62110  -0.59666  -0.54620
  Beta  occ. eigenvalues --   -0.52044  -0.48479  -0.45118  -0.43208  -0.41511
  Beta  occ. eigenvalues --   -0.40429  -0.39226  -0.39136  -0.37313  -0.36362
  Beta  occ. eigenvalues --   -0.36074  -0.35701  -0.33565  -0.32530  -0.32205
  Beta  occ. eigenvalues --   -0.31312  -0.31174  -0.24267  -0.22920  -0.22509
  Beta  occ. eigenvalues --   -0.20341  -0.19791  -0.12185
  Beta virt. eigenvalues --   -0.03731  -0.00904   0.00095   0.01272   0.01742
  Beta virt. eigenvalues --    0.02973   0.03250   0.03450   0.04974   0.05387
  Beta virt. eigenvalues --    0.05678   0.05871   0.06775   0.06912   0.08013

 Mulliken charges and spin densities:
               1          2
     1  C    0.297188  -0.000000
     2  C   -0.893016   0.000000
     3  C    1.927350  -0.000000
     4  C    0.192160   0.000000
     5  C   -0.121492  -0.000000
     6  C    0.172559  -0.000000
     7  C   -0.556872   0.000000
     8  C    0.040907  -0.000000
     9  C    0.029483  -0.000000
    10  C   -0.476533   0.000000
    11  O   -0.722311  -0.000000
    12  O   -0.685137  -0.000000
    13  C   -1.649272  -0.000000
    14  N   -0.333106  -0.000000
    15  H    0.150723  -0.000000
    16  H    0.180338  -0.000000
    17  H    0.163398   0.000000
    18  H    0.140867   0.000000
    19  H    0.142766  -0.000000
 Sum of Mulliken charges =  -2.00000   0.00000

 Dipole moment (field-independent basis, Debye):
    X=            -41.3349    Y=             33.7561    Z=             -5.2807  Tot=             53.6277
 Quadrupole moment (field-independent basis, Debye-Ang):
   XX=           -306.2283   YY=           -232.7561   ZZ=           -144.2390
   XY=            149.6059   XZ=              3.8609   YZ=             43.6182

  Exact polarizability: 378.871 -85.438 215.272-115.467 -42.861 264.512
 Approx polarizability: 440.650-105.276 248.081-133.439 -50.847 300.776

                      1                      2                      3
                      A                      A                      A
 Frequencies --     67.8717               116.2119               126.2351
 Red. masses --      7.3744                 6.1258                11.5544
 Frc consts  --      0.0200                 0.0487                 0.1085
 IR Inten    --      4.5991                23.7764                 5.5600

                      4                      5                      6
                      A                      A                      A
 Frequencies --    156.8243               227.2819               262.5884
 Red. masses --      5.5872                 7.0508                 7.8702
 Frc consts  --      0.0810                 0.2146                 0.3197
 IR Inten    --      8.1197                 0.6809                22.9650

                      7                      8                      9
                      A                      A                      A
 Frequencies --    317.2921               366.2872               417.5399
 Red. masses --     12.3399                 6.1662                 8.2574
 Frc consts  --      0.7320                 0.4874                 0.8482
 IR Inten    --      0.8176                 0.0339                 5.6650

                     10                     11                     12
                      A                      A                      A
 Frequencies --    420.5587               458.3022               468.5030
 Red. masses --      3.2106                 4.8168                11.0731
 Frc consts  --      0.3346                 0.5961                 1.4320
 IR Inten    --      8.4564                 1.7720                14.7817

                     13                     14                     15
                      A                      A                      A
 Frequencies --    521.8977               566.6724               575.3522
 Red. masses --      8.8884                 5.5722                 7.2358
 Frc consts  --      1.4264                 1.0542                 1.4113
 IR Inten    --      0.0870                13.0392                 9.7813

                     16                     17                     18
                      A                      A                      A
 Frequencies --    616.1257               627.8488               661.7453
 Red. masses --      5.3900                 2.4893                 5.6752
 Frc consts  --      1.2055                 0.5781                 1.4643
 IR Inten    --      6.8861                 0.7758                36.8614

                     19                     20                     21
                      A                      A                      A
 Frequencies --    675.3401               717.2740               771.5451
 Red. masses --      4.0831                 6.7093                 2.2289
 Frc consts  --      1.0972                 2.0338                 0.7818
 IR Inten    --     12.1976                 1.8973                22.9271

                     22                     23                     24
                      A                      A                      A
 Frequencies --    776.4447               813.9588               825.5760
 Red. masses --      7.4346                 2.1632                 1.9744
 Frc consts  --      2.6408                 0.8444                 0.7929
 IR Inten    --    250.0071                79.6429                41.1349

                     25                     26                     27
                      A                      A                      A
 Frequencies --    900.1680               907.2506               941.2266
 Red. masses --      4.5982                 1.3813                 1.4443
 Frc consts  --      2.1952                 0.6699                 0.7539
 IR Inten    --     22.5428                 1.1719                15.7710

                     28                     29                     30
                      A                      A                      A
 Frequencies --    973.5763              1045.2246              1067.5655
 Red. masses --      1.3075                 2.1094                 3.2453
 Frc consts  --      0.7302                 1.3578                 2.1792
 IR Inten    --      1.4181                 9.0665               192.7921

                     31                     32                     33
                      A                      A                      A
 Frequencies --   1127.9366              1154.5111              1185.9879
 Red. masses --      1.5006                 1.5705                 3.0744
 Frc consts  --      1.1248                 1.2334                 2.5478
 IR Inten    --     48.2593               360.1529               695.8113

                     34                     35                     36
                      A                      A                      A
 Frequencies --   1207.1530              1230.0447              1291.2952
 Red. masses --      2.9846                 2.5289                 1.9421
 Frc consts  --      2.5625                 2.2544                 1.9080
 IR Inten    --    514.6999               329.8492               478.3495

                     37                     38                     39
                      A                      A                      A
 Frequencies --   1312.7501              1356.8587              1376.4480
 Red. masses --      5.6340                 5.5115                 5.1192
 Frc consts  --      5.7205                 5.9785                 5.7144
 IR Inten    --    531.2566               664.8352               718.0104

                     40                     41                     42
                      A                      A                      A
 Frequencies --   1411.9790              1464.8072              1482.1824
 Red. masses --      3.3246                 4.1488                 3.6654
 Frc consts  --      3.9053                 5.2448                 4.7443
 IR Inten    --    304.1521                17.2075               283.3152

                     43                     44                     45
                      A                      A                      A
 Frequencies --   1528.5514              1555.6700              1609.3669
 Red. masses --      4.6426                 6.2228                 6.6028
 Frc consts  --      6.3910                 8.8730                10.0761
 IR Inten    --    360.8125               510.9335                35.0788

                     46                     47                     48
                      A                      A                      A
 Frequencies --   2256.4864              3104.9250              3127.2758
 Red. masses --     12.6736                 1.0846                 1.0918
 Frc consts  --     38.0202                 6.1604                 6.2911
 IR Inten    --   1471.5600                88.0796               163.4326

                     49                     50                     51
                      A                      A                      A
 Frequencies --   3166.7904              3180.6863              3183.3148
 Red. masses --      1.0860                 1.0899                 1.0944
 Frc consts  --      6.4166                 6.4962                 6.5341
 IR Inten    --      0.5662                 8.2446                41.4596

 - Thermochemistry -
 -------------------
 Temperature   298.150 Kelvin.  Pressure   1.00000 Atm.
 Atom     1 has atomic number  6 and mass  12.00000

 Molecular mass:   183.03203 amu.
 Principal axes and moments of inertia in atomic units:
                           1         2         3
     Eigenvalues --  1471.811833381.945794853.73278
           X            0.80450  -0.35972   0.47263
           Y           -0.06401   0.73860   0.67110
           Z           -0.59049  -0.57016   0.57117
 This molecule is an asymmetric top.
 Rotational symmetry number  1.
 Warning -- assumption of classical behavior for rotation
           may cause significant error
 Rotational temperatures (Kelvin)      0.05885     0.02561     0.01784
 Rotational constants (GHZ):           1.22620     0.53364     0.37183
 Zero-point vibrational energy     333191.7 (Joules/Mol)
                                   79.63474 (Kcal/Mol)
 Warning -- explicit consideration of  16 degrees of freedom as
           vibrations may cause significant error
 Vibrational temperatures:     97.65   167.20   181.62   225.64   327.01
          (Kelvin)            377.81   456.51   527.01   600.75   605.09
                              659.39   674.07   750.89   815.32   827.80
                              886.47   903.33   952.10   971.66  1032.00
                             1110.08  1117.13  1171.11  1187.82  1295.14
                             1305.33  1354.22  1400.76  1503.85  1535.99
                             1622.85  1661.08  1706.37  1736.82  1769.76
                             1857.89  1888.75  1952.22  1980.40  2031.52
                             2107.53  2132.53  2199.24  2238.26  2315.52
                             3246.58  4467.29  4499.45  4556.31  4576.30
                             4580.08

 Zero-point correction=                           0.126906 (Hartree/Particle)
 Thermal correction to Energy=                    0.137324
 Thermal correction to Enthalpy=                  0.138268
 Thermal correction to Gibbs Free Energy=         0.090465
 Sum of electronic and zero-point Energies=           -627.669100
 Sum of electronic and thermal Energies=              -627.658683
 Sum of electronic and thermal Enthalpies=            -627.657738
 Sum of electronic and thermal Free Energies=         -627.705541

                     E (Thermal)             CV                S
                      KCal/Mol        Cal/Mol-Kelvin    Cal/Mol-Kelvin
 Total                   86.172             41.056            100.609
 Electronic               0.000              0.000              0.000
 Translational            0.889              2.981             41.520
 Rotational               0.889              2.981             31.558
 Vibrational             84.395             35.094             27.531
 Vibration     1          0.598              1.970              4.214
 Vibration     2          0.608              1.936              3.162
 Vibration     3          0.611              1.927              3.003
 Vibration     4          0.620              1.895              2.588
 Vibration     5          0.651              1.799              1.900
 Vibration     6          0.670              1.741              1.644
 Vibration     7          0.704              1.641              1.324
 Vibration     8          0.739              1.542              1.095
 Vibration     9          0.781              1.432              0.900
 Vibration    10          0.783              1.426              0.890
 Vibration    11          0.816              1.343              0.771
 Vibration    12          0.826              1.320              0.742
 Vibration    13          0.877              1.202              0.606
 Vibration    14          0.923              1.103              0.511
 Vibration    15          0.932              1.085              0.494
 Vibration    16          0.976              0.998              0.423

 Optimization completed.
    -- Stationary point found.
 Normal termination of Gaussian 16 at Sun Feb 11 02:16:11 2024.
