 Q-Chem 5.4, Q-Chem, Inc., Pleasanton, CA (2021)
 Q-Chem 5.4.0 for Intel X86 EM64T Linux

User input:
--------------------------------------------------------------
$molecule
-1 2
C                  4.8915630000     -2.8649630000     -0.3572020000
C                  5.6112850000     -1.9705090000     -1.1232330000
C                  5.0140990000     -0.7616950000     -1.5454740000
C                  3.5568590000     -2.5937010000      0.0169040000
C                  2.9549630000     -1.3753480000     -0.4086790000
C                  3.7110810000     -0.4754290000     -1.1918690000
C                  2.8233160000     -3.5551450000      0.8246340000
C                  1.4585020000     -3.2295720000      1.1812670000
C                  0.8522750000     -2.0024180000      0.7526460000
C                  1.5841020000     -1.0465920000     -0.0515520000
C                  0.7021800000     -4.1410120000      1.9709500000
C                 -0.6096140000     -3.8340790000      2.3169840000
C                 -0.4925150000     -1.7225840000      1.1262930000
C                 -1.2010530000     -2.6368650000      1.8988300000
O                  3.3698770000     -4.6469740000      1.2030170000
O                  1.0501730000      0.0489590000     -0.4371630000
O                  1.2416240000     -5.3094340000      2.3937120000
H                  5.3259570000     -3.7988060000     -0.0205210000
H                  6.6364470000     -2.1943550000     -1.4021890000
H                  5.5815370000     -0.0589720000     -2.1480320000
H                  3.2298010000      0.4443360000     -1.5025390000
H                  2.1769400000     -5.3072150000      2.0269860000
O                 -1.0975820000     -0.5738520000      0.7399810000
H                 -2.2239080000     -2.3992430000      2.1696330000
H                 -1.1635700000     -4.5457190000      2.9192590000
H                 -0.4020480000     -0.0858040000      0.2039150000
$end
$rem
MAX_SCF_CYCLES=200
BASIS  =  6-311++G(d,p)
GUI  =  2
JOB_TYPE  =  SP
METHOD  =  B3LYP
SOLVENT_METHOD = COSMO
$end
$solvent
dielectric 37.219
opticaldielectric 1.43
$end

--------------------------------------------------------------

             Standard Nuclear Orientation (Angstroms)
    I     Atom           X                Y                Z
 ----------------------------------------------------------------
    1      C       2.7883685735    -1.3964301168     0.0001165815
    2      C       3.9836605957    -0.7064096916     0.0001697267
    3      C       3.9836386758     0.7064419857     0.0001010739
    4      C       1.5528345171    -0.7120115902    -0.0000075510
    5      C       1.5528192428     0.7119911174    -0.0000842502
    6      C       2.7883335981     1.3964321197    -0.0000141893
    7      C       0.3092764925    -1.4659685420    -0.0000784978
    8      C      -0.9297345130    -0.7171335433    -0.0000251352
    9      C      -0.9297525845     0.7171377263    -0.0000667341
   10      C       0.3092700900     1.4659576838    -0.0001490594
   11      C      -2.1713933741    -1.4132860766     0.0000433533
   12      C      -3.3653206062    -0.6996414483     0.0000999876
   13      C      -2.1714250427     1.4132905773     0.0000162944
   14      C      -3.3653449695     0.6996348713     0.0000664675
   15      O       0.3167645838    -2.7442240349    -0.0001784924
   16      O       0.3168023862     2.7442187141    -0.0002784543
   17      O      -2.2101969914    -2.7673288327     0.0000019090
   18      H       2.7606711640    -2.4796419358     0.0001377052
   19      H       4.9247816654    -1.2478630441     0.0002541836
   20      H       4.9247409840     1.2479289021     0.0001830120
   21      H       2.7605958532     2.4796424220     0.0000181586
   22      H      -1.2464800560    -3.0511572078    -0.0001558962
   23      O      -2.2102272423     2.7673299444     0.0001756733
   24      H      -4.2971910260     1.2543363661     0.0001628099
   25      H      -4.2971513372    -1.2543714747     0.0001413163
   26      H      -1.2464933100     3.0511292108     0.0003652184
 ----------------------------------------------------------------

    8    -839.5486506118      9.56e-06  Convergence criterion met
 Total energy in the final basis set =     -839.5486506118
    4    -839.6247124079      7.36e-06  Convergence criterion met
 Total energy in the final basis set =     -839.6247124079

                    Orbital Energies (a.u.)
 --------------------------------------------------------------

 Alpha MOs
 -- Occupied --
-19.1346 -19.1346 -19.0961 -19.0961 -10.2393 -10.2393 -10.2344 -10.2344
-10.1823 -10.1819 -10.1811 -10.1807 -10.1770 -10.1766 -10.1750 -10.1750
-10.1728 -10.1723  -1.0585  -1.0569  -1.0128  -1.0110  -0.8684  -0.8500
 -0.7935  -0.7589  -0.7477  -0.7387  -0.6809  -0.6435  -0.6373  -0.6000
 -0.5784  -0.5465  -0.5315  -0.5257  -0.5117  -0.4776  -0.4690  -0.4615
 -0.4443  -0.4329  -0.4288  -0.4270  -0.4211  -0.4090  -0.4088  -0.4077
 -0.4023  -0.3764  -0.3697  -0.3608  -0.3586  -0.3552  -0.3424  -0.3125
 -0.2769  -0.2683  -0.2639  -0.2549  -0.2544  -0.2196  -0.1504

 Beta MOs
 -- Occupied --
-19.1340 -19.1340 -19.0915 -19.0915 -10.2372 -10.2372 -10.2338 -10.2338
-10.1823 -10.1819 -10.1805 -10.1800 -10.1766 -10.1761 -10.1750 -10.1749
-10.1717 -10.1712  -1.0565  -1.0550  -1.0054  -1.0034  -0.8658  -0.8485
 -0.7895  -0.7563  -0.7461  -0.7359  -0.6742  -0.6415  -0.6347  -0.5990
 -0.5768  -0.5440  -0.5302  -0.5243  -0.5100  -0.4755  -0.4678  -0.4596
 -0.4355  -0.4307  -0.4262  -0.4254  -0.4193  -0.4074  -0.4067  -0.3993
 -0.3942  -0.3685  -0.3602  -0.3601  -0.3571  -0.3459  -0.3414  -0.3052
 -0.2644  -0.2604  -0.2569  -0.2507  -0.2506  -0.2084

          Ground-State Mulliken Net Atomic Charges

     Atom                 Charge (a.u.)    Spin (a.u.)
  --------------------------------------------------------
      1 C                    -0.005635       0.034987
      2 C                    -0.478802       0.035927
      3 C                    -0.479427       0.035929
      4 C                     0.033813       0.017530
      5 C                     0.034844       0.017532
      6 C                    -0.005559       0.034989
      7 C                    -0.214529       0.127071
      8 C                     0.608202      -0.007297
      9 C                     0.608235      -0.007319
     10 C                    -0.214534       0.127090
     11 C                    -0.318110       0.053986
     12 C                    -0.167863       0.070219
     13 C                    -0.318098       0.054014
     14 C                    -0.167760       0.070189
     15 O                    -0.515322       0.163331
     16 O                    -0.515339       0.163347
     17 O                    -0.418356       0.017900
     18 H                     0.186144      -0.000787
     19 H                     0.206556      -0.003027
     20 H                     0.206568      -0.003027
     21 H                     0.186177      -0.000787
     22 H                     0.365477      -0.003672
     23 O                    -0.418349       0.017904
     24 H                     0.218117      -0.006177
     25 H                     0.218088      -0.006179
     26 H                     0.365460      -0.003672
  --------------------------------------------------------
  Sum of atomic charges =    -1.000000

                    Cartesian Multipole Moments
 -----------------------------------------------------------------
    Charge (ESU x 10^10)
                -4.8032
    Dipole Moment (Debye)
         X       3.5471      Y      -0.0002      Z       0.0013
       Tot       3.5471
    Quadrupole Moments (Debye-Ang)
        XX    -108.1082     XY       0.0002     YY    -145.4493
        XZ       0.0001     YZ       0.0016     ZZ    -110.0694

 Total job time:  72.19s(wall), 543.81s(cpu)
        *  Thank you very much for using Q-Chem.  Have a nice day.  *
