 Gaussian 16, Revision A.03,
 Gaussian 16:  ES64L-G16RevA.03 25-Dec-2016

 ----------------------------------------------------------------------
 #P UB3LYP/6-311++G(d,p) nosym opt freq SCRF=(PCM,Solvent=n,n-DiMethylF
 ormamide)
 ----------------------------------------------------------------------

 -------
 Reduced
 -------
 Symbolic Z-matrix:
 Charge = -2 Multiplicity = 1

 SCF Done:  E(UB3LYP) =  -770.266630908     A.U. after   15 cycles
 SCF Done:  E(UB3LYP) =  -770.267359816     A.U. after   12 cycles
 SCF Done:  E(UB3LYP) =  -770.267453407     A.U. after   11 cycles
 SCF Done:  E(UB3LYP) =  -770.267459792     A.U. after   11 cycles
 SCF Done:  E(UB3LYP) =  -770.267462563     A.U. after   10 cycles
 SCF Done:  E(UB3LYP) =  -770.267463201     A.U. after   10 cycles
 SCF Done:  E(UB3LYP) =  -770.267463551     A.U. after    9 cycles
 SCF Done:  E(UB3LYP) =  -770.267463756     A.U. after    8 cycles
 SCF Done:  E(UB3LYP) =  -770.267463817     A.U. after    8 cycles
 SCF Done:  E(UB3LYP) =  -770.267463836     A.U. after    8 cycles
 Optimization completed.
    -- Stationary point found.
 Normal termination of Gaussian 16 at Sun Feb 11 16:51:49 2024.

 ----------------------------------------------------------------------
 #P Geom=AllCheck Guess=TCheck SCRF=Check GenChk UB3LYP/6-311++G(d,p) F
 req
 ----------------------------------------------------------------------

 Structure from the checkpoint file:  "332-an.chk"
 -------
 Reduced
 -------
 Charge = -2 Multiplicity = 1

                          Input orientation:
 ---------------------------------------------------------------------
 Center     Atomic      Atomic             Coordinates (Angstroms)
 Number     Number       Type             X           Y           Z
 ---------------------------------------------------------------------
      1          6           0        3.463331    2.663364    0.713841
      2          6           0        2.803148    1.351392    0.370160
      3          6           0        1.412950    1.244721    0.332734
      4          6           0        0.740803    0.046316    0.027344
      5          6           0        1.560169   -1.066500   -0.240271
      6          6           0        2.953363   -1.013232   -0.208449
      7          6           0        3.775805   -2.240516   -0.512782
      8          6           0        3.636990    0.213065    0.098007
      9          8           0        4.932070    0.287799    0.127431
     10          6           0       -0.741715   -0.039963   -0.012983
     11          6           0       -1.432288   -1.204825    0.371132
     12          6           0       -2.821977   -1.314043    0.335864
     13          6           0       -3.503616   -2.588583    0.766865
     14          6           0       -3.637214   -0.213883   -0.100237
     15          8           0       -4.931581   -0.294503   -0.139456
     16          6           0       -2.935376    0.977997   -0.490610
     17          6           0       -1.542476    1.035317   -0.441780
     18          6           0       -3.734827    2.161405   -0.977260
     19          1           0        4.115665    2.572306    1.590433
     20          1           0        2.718494    3.436374    0.923469
     21          1           0        4.103096    3.022432   -0.101238
     22          1           0        0.825719    2.129441    0.569464
     23          1           0        1.090649   -2.011907   -0.503406
     24          1           0        3.136456   -3.093324   -0.758033
     25          1           0        4.458619   -2.072385   -1.353738
     26          1           0        4.409287   -2.524998    0.336011
     27          1           0       -0.861370   -2.058102    0.730942
     28          1           0       -4.195824   -2.418469    1.600140
     29          1           0       -4.106412   -3.017868   -0.042267
     30          1           0       -2.773361   -3.340123    1.080175
     31          1           0       -1.056782    1.951381   -0.771169
     32          1           0       -3.081163    3.000741   -1.231261
     33          1           0       -4.328217    1.913360   -1.865798
     34          1           0       -4.452419    2.505814   -0.223273
 ---------------------------------------------------------------------

 SCF Done:  E(UB3LYP) =  -770.267463836     A.U. after    1 cycles

 Alpha  occ. eigenvalues --  -19.02395 -19.02392 -10.17767 -10.17764 -10.14355
 Alpha  occ. eigenvalues --  -10.14346 -10.14342 -10.14340 -10.13920 -10.13892
 Alpha  occ. eigenvalues --  -10.13737 -10.13735 -10.13725 -10.13724 -10.13640
 Alpha  occ. eigenvalues --  -10.13633 -10.13629 -10.13624  -0.93589  -0.93582
 Alpha  occ. eigenvalues --   -0.82463  -0.80049  -0.75205  -0.74992  -0.73555
 Alpha  occ. eigenvalues --   -0.69701  -0.65823  -0.65578  -0.64482  -0.63075
 Alpha  occ. eigenvalues --   -0.56142  -0.55057  -0.53347  -0.52011  -0.46564
 Alpha  occ. eigenvalues --   -0.45965  -0.43510  -0.41914  -0.41089  -0.40418
 Alpha  occ. eigenvalues --   -0.40290  -0.39001  -0.38930  -0.38919  -0.38124
 Alpha  occ. eigenvalues --   -0.37741  -0.37472  -0.36868  -0.36351  -0.35410
 Alpha  occ. eigenvalues --   -0.34589  -0.33576  -0.32997  -0.32511  -0.32067
 Alpha  occ. eigenvalues --   -0.30760  -0.30543  -0.29671  -0.26837  -0.21521
 Alpha  occ. eigenvalues --   -0.21321  -0.19980  -0.19832  -0.17589  -0.13556
 Alpha virt. eigenvalues --   -0.00343   0.00401   0.00875   0.01373   0.01459
 Alpha virt. eigenvalues --    0.01740   0.02127   0.02365   0.03219   0.03411
 Alpha virt. eigenvalues --    0.04042   0.04072   0.04361   0.05493   0.05604

  Beta  occ. eigenvalues --  -19.02395 -19.02392 -10.17767 -10.17764 -10.14355
  Beta  occ. eigenvalues --  -10.14346 -10.14342 -10.14340 -10.13920 -10.13892
  Beta  occ. eigenvalues --  -10.13737 -10.13735 -10.13725 -10.13724 -10.13640
  Beta  occ. eigenvalues --  -10.13633 -10.13629 -10.13624  -0.93589  -0.93582
  Beta  occ. eigenvalues --   -0.82463  -0.80049  -0.75205  -0.74992  -0.73555
  Beta  occ. eigenvalues --   -0.69701  -0.65823  -0.65578  -0.64482  -0.63075
  Beta  occ. eigenvalues --   -0.56142  -0.55057  -0.53347  -0.52011  -0.46564
  Beta  occ. eigenvalues --   -0.45965  -0.43510  -0.41914  -0.41089  -0.40418
  Beta  occ. eigenvalues --   -0.40290  -0.39001  -0.38930  -0.38919  -0.38124
  Beta  occ. eigenvalues --   -0.37741  -0.37472  -0.36868  -0.36351  -0.35410
  Beta  occ. eigenvalues --   -0.34589  -0.33576  -0.32997  -0.32511  -0.32067
  Beta  occ. eigenvalues --   -0.30760  -0.30543  -0.29671  -0.26837  -0.21521
  Beta  occ. eigenvalues --   -0.21321  -0.19980  -0.19832  -0.17589  -0.13556
  Beta virt. eigenvalues --   -0.00343   0.00401   0.00875   0.01373   0.01459
  Beta virt. eigenvalues --    0.01740   0.02127   0.02365   0.03219   0.03411
  Beta virt. eigenvalues --    0.04042   0.04072   0.04361   0.05493   0.05604

 Mulliken charges and spin densities:
               1          2
     1  C   -0.356766  -0.000000
     2  C    1.040427   0.000000
     3  C   -0.821298   0.000000
     4  C    0.762841   0.000000
     5  C   -0.816053  -0.000000
     6  C    1.031871   0.000000
     7  C   -0.359712   0.000000
     8  C   -1.906515  -0.000000
     9  O   -0.650252   0.000000
    10  C    0.760929  -0.000000
    11  C   -0.820214  -0.000000
    12  C    1.034681  -0.000000
    13  C   -0.356905   0.000000
    14  C   -1.911130   0.000000
    15  O   -0.650262  -0.000000
    16  C    1.028821  -0.000000
    17  C   -0.804538  -0.000000
    18  C   -0.360188   0.000000
    19  H    0.144289   0.000000
    20  H    0.127449  -0.000000
    21  H    0.152029   0.000000
    22  H    0.115303   0.000000
    23  H    0.114700  -0.000000
    24  H    0.127570   0.000000
    25  H    0.143979  -0.000000
    26  H    0.152087   0.000000
    27  H    0.115439   0.000000
    28  H    0.144738  -0.000000
    29  H    0.151587  -0.000000
    30  H    0.127061   0.000000
    31  H    0.114938  -0.000000
    32  H    0.127113  -0.000000
    33  H    0.144970  -0.000000
    34  H    0.151012  -0.000000
 Sum of Mulliken charges =  -2.00000  -0.00000

 Dipole moment (field-independent basis, Debye):
    X=             -0.0023    Y=              0.0101    Z=              0.0143  Tot=              0.0177
 Quadrupole moment (field-independent basis, Debye-Ang):
   XX=           -298.3292   YY=           -117.9331   ZZ=           -120.0286
   XY=            -10.6689   XZ=             -4.8066   YZ=             -0.4284

  Exact polarizability: 492.311  10.377 322.945   8.536  -6.167 200.170
 Approx polarizability: 514.146  10.013 351.237   8.492  -6.530 221.954

                      1                      2                      3
                      A                      A                      A
 Frequencies --     41.0573                58.5657                79.4490
 Red. masses --      3.5705                 6.0165                 4.8483
 Frc consts  --      0.0035                 0.0122                 0.0180
 IR Inten    --      0.2776                 7.2414                 4.3090

                      4                      5                      6
                      A                      A                      A
 Frequencies --    117.3286               129.0293               133.1363
 Red. masses --      1.2655                 2.2236                 3.3922
 Frc consts  --      0.0103                 0.0218                 0.0354
 IR Inten    --      0.3427                 2.8260                31.3063

                      7                      8                      9
                      A                      A                      A
 Frequencies --    134.5303               169.2067               178.6111
 Red. masses --      1.1296                 1.0834                 1.1115
 Frc consts  --      0.0120                 0.0183                 0.0209
 IR Inten    --      0.8799                 0.1384                 0.5102

                     10                     11                     12
                      A                      A                      A
 Frequencies --    197.4063               221.9604               239.4445
 Red. masses --      2.8843                 3.9041                 2.8687
 Frc consts  --      0.0662                 0.1133                 0.0969
 IR Inten    --      0.1348                 0.0386                 0.4160

                     13                     14                     15
                      A                      A                      A
 Frequencies --    249.0045               252.1239               282.5174
 Red. masses --      2.8967                 3.7509                 2.6342
 Frc consts  --      0.1058                 0.1405                 0.1239
 IR Inten    --      0.1104                 0.2277                25.2636

                     16                     17                     18
                      A                      A                      A
 Frequencies --    305.1827               309.2353               316.1344
 Red. masses --      4.1011                 3.9407                 4.2421
 Frc consts  --      0.2250                 0.2220                 0.2498
 IR Inten    --      3.0077                 2.8028                22.4171

                     19                     20                     21
                      A                      A                      A
 Frequencies --    343.7384               390.8390               488.7782
 Red. masses --      6.6468                 5.9040                 5.4465
 Frc consts  --      0.4627                 0.5314                 0.7666
 IR Inten    --      1.2895                 0.0129               102.9748

                     22                     23                     24
                      A                      A                      A
 Frequencies --    491.4890               493.2524               505.8510
 Red. masses --      3.2624                 3.4554                 4.1966
 Frc consts  --      0.4643                 0.4953                 0.6327
 IR Inten    --      2.3449                 5.8093                 7.0080

                     25                     26                     27
                      A                      A                      A
 Frequencies --    520.0279               535.2316               583.9386
 Red. masses --      4.7304                 4.9420                 3.8694
 Frc consts  --      0.7537                 0.8341                 0.7774
 IR Inten    --      0.1118                 0.3673                 2.6997

                     28                     29                     30
                      A                      A                      A
 Frequencies --    597.4149               635.6082               645.4176
 Red. masses --      4.8133                 3.3556                 2.9403
 Frc consts  --      1.0122                 0.7987                 0.7216
 IR Inten    --      3.2076                 0.6501                 0.5126

                     31                     32                     33
                      A                      A                      A
 Frequencies --    678.8044               772.2902               773.2268
 Red. masses --      5.9131                 5.4703                 5.3149
 Frc consts  --      1.6053                 1.9223                 1.8722
 IR Inten    --     45.9360                19.9098                 5.1314

                     34                     35                     36
                      A                      A                      A
 Frequencies --    778.9174               859.4869               878.1067
 Red. masses --      4.5618                 5.1058                 1.3773
 Frc consts  --      1.6307                 2.2222                 0.6257
 IR Inten    --      0.0085                 7.6710                99.2862

                     37                     38                     39
                      A                      A                      A
 Frequencies --    886.3021               887.7762               899.2992
 Red. masses --      1.3170                 1.3122                 1.5603
 Frc consts  --      0.6095                 0.6094                 0.7435
 IR Inten    --      0.5288                 1.6895                20.9193

                     40                     41                     42
                      A                      A                      A
 Frequencies --    944.6509               952.9416               964.8274
 Red. masses --      2.9411                 2.8743                 3.8086
 Frc consts  --      1.5463                 1.5379                 2.0889
 IR Inten    --     32.5203                 2.6901                 0.0535

                     43                     44                     45
                      A                      A                      A
 Frequencies --    985.4788              1014.7491              1028.3530
 Red. masses --      1.6551                 1.7895                 1.9673
 Frc consts  --      0.9471                 1.0856                 1.2258
 IR Inten    --     77.4206                 0.0903                 2.8673

                     46                     47                     48
                      A                      A                      A
 Frequencies --   1030.3333              1045.7365              1045.9534
 Red. masses --      1.8994                 1.5046                 1.5059
 Frc consts  --      1.1880                 0.9694                 0.9707
 IR Inten    --     14.6217                 2.5762                 0.4744

                     49                     50                     51
                      A                      A                      A
 Frequencies --   1049.3298              1049.7234              1108.4315
 Red. masses --      1.4710                 1.4718                 1.6722
 Frc consts  --      0.9543                 0.9555                 1.2105
 IR Inten    --      0.0256                 0.0817               127.8225

                     52                     53                     54
                      A                      A                      A
 Frequencies --   1183.3708              1240.5671              1245.7448
 Red. masses --      1.7724                 1.9247                 5.0257
 Frc consts  --      1.4623                 1.7452                 4.5952
 IR Inten    --      0.0055                 1.1687                35.3279

                     55                     56                     57
                      A                      A                      A
 Frequencies --   1249.8143              1285.7558              1302.4371
 Red. masses --      2.9950                 1.7456                 2.9099
 Frc consts  --      2.7564                 1.7003                 2.9083
 IR Inten    --     30.2838                83.2200                 8.5908

                     58                     59                     60
                      A                      A                      A
 Frequencies --   1318.4772              1336.0434              1361.0026
 Red. masses --      2.9942                 3.2972                 8.0475
 Frc consts  --      3.0668                 3.4677                 8.7827
 IR Inten    --      0.0014               958.3665                 0.1215

                     61                     62                     63
                      A                      A                      A
 Frequencies --   1393.6836              1395.7005              1397.5620
 Red. masses --      1.4340                 1.3474                 1.2855
 Frc consts  --      1.6410                 1.5464                 1.4793
 IR Inten    --    164.9229                 3.7543                 2.7552

                     64                     65                     66
                      A                      A                      A
 Frequencies --   1397.7345              1408.7630              1434.2462
 Red. masses --      1.2966                 4.0169                 2.5350
 Frc consts  --      1.4924                 4.6970                 3.0724
 IR Inten    --      0.5542                20.4666              2085.6610

                     67                     68                     69
                      A                      A                      A
 Frequencies --   1450.0322              1456.3245              1457.7625
 Red. masses --      2.2285                 1.0802                 1.0735
 Frc consts  --      2.7607                 1.3498                 1.3441
 IR Inten    --      2.2211                16.0038                 0.8156

                     70                     71                     72
                      A                      A                      A
 Frequencies --   1458.9178              1459.8000              1461.4116
 Red. masses --      1.3001                 1.1084                 1.1592
 Frc consts  --      1.6304                 1.3916                 1.4587
 IR Inten    --      0.5909                13.0540                 6.1286

                     73                     74                     75
                      A                      A                      A
 Frequencies --   1488.0589              1489.9567              1495.2380
 Red. masses --      1.1690                 1.1843                 1.3514
 Frc consts  --      1.5251                 1.5490                 1.7802
 IR Inten    --    116.7271               341.5176                 1.0264

                     76                     77                     78
                      A                      A                      A
 Frequencies --   1505.4597              1543.8338              1553.6599
 Red. masses --      1.7785                 5.6473                 7.8227
 Frc consts  --      2.3748                 7.9303                11.1255
 IR Inten    --      1.9310                13.9685                 1.0026

                     79                     80                     81
                      A                      A                      A
 Frequencies --   1619.6100              1623.0718              2994.9176
 Red. masses --      5.1170                 5.3221                 1.0371
 Frc consts  --      7.9084                 8.2606                 5.4808
 IR Inten    --      0.4568               216.8437               173.2738

                     82                     83                     84
                      A                      A                      A
 Frequencies --   2995.7639              2996.3018              2997.2343
 Red. masses --      1.0374                 1.0372                 1.0374
 Frc consts  --      5.4854                 5.4862                 5.4910
 IR Inten    --    176.3960               145.8554                50.5333

                     85                     86                     87
                      A                      A                      A
 Frequencies --   3029.1175              3029.6042              3030.4802
 Red. masses --      1.0988                 1.0985                 1.0979
 Frc consts  --      5.9401                 5.9405                 5.9407
 IR Inten    --    107.1989                25.8560               102.6655

                     88                     89                     90
                      A                      A                      A
 Frequencies --   3031.0972              3072.0610              3072.2907
 Red. masses --      1.0983                 1.0997                 1.0995
 Frc consts  --      5.9454                 6.1146                 6.1146
 IR Inten    --     32.5515                34.3196                69.0418

                     91                     92                     93
                      A                      A                      A
 Frequencies --   3072.4989              3073.1522              3116.7875
 Red. masses --      1.0997                 1.0997                 1.0887
 Frc consts  --      6.1166                 6.1194                 6.2311
 IR Inten    --     43.2927                53.2130                20.5516

                     94                     95                     96
                      A                      A                      A
 Frequencies --   3119.7721              3125.1824              3128.2368
 Red. masses --      1.0880                 1.0873                 1.0876
 Frc consts  --      6.2390                 6.2568                 6.2707
 IR Inten    --     58.3591               145.0429                 1.2759

 - Thermochemistry -
 -------------------
 Temperature   298.150 Kelvin.  Pressure   1.00000 Atm.
 Atom     1 has atomic number  6 and mass  12.00000

 Molecular mass:   240.11503 amu.
 Principal axes and moments of inertia in atomic units:
                           1         2         3
     Eigenvalues --  2049.695318896.90910**********
           X            0.99788  -0.05737  -0.03070
           Y            0.05890   0.99693   0.05164
           Z            0.02765  -0.05334   0.99819
 This molecule is an asymmetric top.
 Rotational symmetry number  1.
 Warning -- assumption of classical behavior for rotation
           may cause significant error
 Rotational temperatures (Kelvin)      0.04226     0.00974     0.00820
 Rotational constants (GHZ):           0.88049     0.20285     0.17094
 Zero-point vibrational energy     712847.3 (Joules/Mol)
                                  170.37460 (Kcal/Mol)
 Warning -- explicit consideration of  28 degrees of freedom as
           vibrations may cause significant error
 Vibrational temperatures:     59.07    84.26   114.31   168.81   185.64
          (Kelvin)            191.55   193.56   243.45   256.98   284.02
                              319.35   344.51   358.26   362.75   406.48
                              439.09   444.92   454.85   494.56   562.33
                              703.24   707.14   709.68   727.81   748.20
                              770.08   840.16   859.55   914.50   928.61
                              976.65  1111.15  1112.50  1120.69  1236.61
                             1263.40  1275.19  1277.31  1293.89  1359.14
                             1371.07  1388.17  1417.88  1460.00  1479.57
                             1482.42  1504.58  1504.89  1509.75  1510.32
                             1594.79  1702.61  1784.90  1792.35  1798.20
                             1849.92  1873.92  1896.99  1922.27  1958.18
                             2005.20  2008.10  2010.78  2011.03  2026.90
                             2063.56  2086.27  2095.33  2097.40  2099.06
                             2100.33  2102.65  2140.98  2143.72  2151.31
                             2166.02  2221.23  2235.37  2330.26  2335.24
                             4309.02  4310.24  4311.01  4312.35  4358.22
                             4358.92  4360.19  4361.07  4420.01  4420.34
                             4420.64  4421.58  4484.36  4488.66  4496.44
                             4500.83

 Zero-point correction=                           0.271509 (Hartree/Particle)
 Thermal correction to Energy=                    0.288876
 Thermal correction to Enthalpy=                  0.289821
 Thermal correction to Gibbs Free Energy=         0.226941
 Sum of electronic and zero-point Energies=           -769.995955
 Sum of electronic and thermal Energies=              -769.978587
 Sum of electronic and thermal Enthalpies=            -769.977643
 Sum of electronic and thermal Free Energies=         -770.040522

                     E (Thermal)             CV                S
                      KCal/Mol        Cal/Mol-Kelvin    Cal/Mol-Kelvin
 Total                  181.273             66.466            132.341
 Electronic               0.000              0.000              0.000
 Translational            0.889              2.981             42.329
 Rotational               0.889              2.981             33.620
 Vibrational            179.495             60.505             56.391
 Vibration     1          0.594              1.981              5.207
 Vibration     2          0.596              1.974              4.505
 Vibration     3          0.600              1.963              3.904
 Vibration     4          0.608              1.935              3.144
 Vibration     5          0.612              1.924              2.960
 Vibration     6          0.613              1.920              2.900
 Vibration     7          0.613              1.919              2.880
 Vibration     8          0.625              1.880              2.444
 Vibration     9          0.629              1.869              2.343
 Vibration    10          0.637              1.844              2.157
 Vibration    11          0.648              1.808              1.943
 Vibration    12          0.657              1.780              1.807
 Vibration    13          0.662              1.764              1.738
 Vibration    14          0.664              1.759              1.716
 Vibration    15          0.682              1.706              1.518
 Vibration    16          0.696              1.664              1.388
 Vibration    17          0.699              1.656              1.366
 Vibration    18          0.703              1.643              1.330
 Vibration    19          0.722              1.588              1.195
 Vibration    20          0.759              1.490              0.997
 Vibration    21          0.845              1.275              0.687
 Vibration    22          0.847              1.269              0.680
 Vibration    23          0.849              1.265              0.675
 Vibration    24          0.861              1.237              0.644
 Vibration    25          0.875              1.206              0.610
 Vibration    26          0.890              1.172              0.576
 Vibration    27          0.941              1.066              0.478
 Vibration    28          0.955              1.037              0.454

                           ! Non-Optimized Parameters !
 Normal termination of Gaussian 16 at Sun Feb 11 18:05:53 2024.
