 Q-Chem 5.4, Q-Chem, Inc., Pleasanton, CA (2021)
 Q-Chem 5.4.0 for Intel X86 EM64T Linux

User input:
--------------------------------------------------------------
$molecule
-1 2
C                 -0.5023700000      1.1678580000     -0.3632110000
C                 -1.4682240000      0.1396970000     -0.7998210000
C                 -1.2925290000     -1.1778630000     -0.5005800000
C                 -0.1588780000     -1.6742140000      0.2596550000
C                  0.7736630000     -0.6724010000      0.6956900000
C                  0.6302440000      0.6874280000      0.4416500000
O                 -0.6654350000      2.3536240000     -0.7176740000
O                 -0.0110310000     -2.9036000000      0.5208200000
C                  1.6203650000      1.6357660000      1.0033060000
C                  3.0068100000      1.0843860000      1.3713350000
O                  1.4006120000      2.8206540000      1.2105690000
H                  3.4179830000      0.4407390000      0.5898320000
H                  2.9539240000      0.4925840000      2.2911770000
H                  3.6680600000      1.9338600000      1.5451200000
H                  1.6086710000     -1.0433580000      1.2796940000
C                 -2.6428260000      0.6254660000     -1.6057080000
H                 -2.0107510000     -1.9239370000     -0.8342240000
H                 -3.2150060000      1.3748350000     -1.0491860000
H                 -3.3041240000     -0.2035720000     -1.8726700000
H                 -2.3080100000      1.1247080000     -2.5208050000
$end

$rem
BASIS  =  6-311++G(d,p)
GUI  =  2
JOB_TYPE  =  SP
METHOD  =  B3LYP
SCF_CONVERGENCE  = 8
SOLVENT_METHOD = sm12
$end

$smx
solvent dimethylformamide
charges CM5
$end

--------------------------------------------------------------

             Standard Nuclear Orientation (Angstroms)
    I     Atom           X                Y                Z
 ----------------------------------------------------------------
    1      C      -0.5023700000     1.1678580000    -0.3632110000
    2      C      -1.4682240000     0.1396970000    -0.7998210000
    3      C      -1.2925290000    -1.1778630000    -0.5005800000
    4      C      -0.1588780000    -1.6742140000     0.2596550000
    5      C       0.7736630000    -0.6724010000     0.6956900000
    6      C       0.6302440000     0.6874280000     0.4416500000
    7      O      -0.6654350000     2.3536240000    -0.7176740000
    8      O      -0.0110310000    -2.9036000000     0.5208200000
    9      C       1.6203650000     1.6357660000     1.0033060000
   10      C       3.0068100000     1.0843860000     1.3713350000
   11      O       1.4006120000     2.8206540000     1.2105690000
   12      H       3.4179830000     0.4407390000     0.5898320000
   13      H       2.9539240000     0.4925840000     2.2911770000
   14      H       3.6680600000     1.9338600000     1.5451200000
   15      H       1.6086710000    -1.0433580000     1.2796940000
   16      C      -2.6428260000     0.6254660000    -1.6057080000
   17      H      -2.0107510000    -1.9239370000    -0.8342240000
   18      H      -3.2150060000     1.3748350000    -1.0491860000
   19      H      -3.3041240000    -0.2035720000    -1.8726700000
   20      H      -2.3080100000     1.1247080000    -2.5208050000
 ----------------------------------------------------------------

   17    -573.6588461377      6.60e-09  Convergence criterion met
 Total energy in the final basis set =     -573.7432558485

                    Orbital Energies (a.u.)
 --------------------------------------------------------------

 Alpha MOs
 -- Occupied --
-19.1020 -19.0814 -19.0810 -10.2559 -10.2320 -10.2246 -10.1846 -10.1791
-10.1772 -10.1726 -10.1690 -10.1690  -1.0350  -1.0077  -1.0004  -0.8367
 -0.7888  -0.7355  -0.7064  -0.6756  -0.6238  -0.5678  -0.5274  -0.4924
 -0.4759  -0.4597  -0.4441  -0.4288  -0.4244  -0.4210  -0.4060  -0.3962
 -0.3953  -0.3888  -0.3770  -0.3704  -0.3674  -0.3529  -0.2868  -0.2659
 -0.2626  -0.2451  -0.2258  -0.1693

 Beta MOs
 -- Occupied --
-19.1010 -19.0749 -19.0736 -10.2559 -10.2314 -10.2237 -10.1834 -10.1779
-10.1746 -10.1725 -10.1691 -10.1690  -1.0331  -0.9975  -0.9867  -0.8310
 -0.7862  -0.7337  -0.7033  -0.6679  -0.6206  -0.5643  -0.5250  -0.4904
 -0.4727  -0.4579  -0.4400  -0.4247  -0.4214  -0.4198  -0.4003  -0.3942
 -0.3884  -0.3810  -0.3677  -0.3668  -0.3548  -0.3433  -0.2609  -0.2572
 -0.2523  -0.2379  -0.2214

          Ground-State Mulliken Net Atomic Charges

     Atom                 Charge (a.u.)    Spin (a.u.)
  --------------------------------------------------------
      1 C                    -2.851496      -0.023604
      2 C                     1.168965       0.085747
      3 C                    -0.526485       0.001238
      4 C                    -0.925945       0.102242
      5 C                    -0.517006       0.191656
      6 C                     1.044185       0.087643
      7 O                    -0.297292       0.228321
      8 O                    -0.376951       0.281273
      9 C                    -0.016223       0.013721
     10 C                     0.296253       0.004012
     11 O                    -0.289815       0.034549
     12 H                     0.192545      -0.000558
     13 H                     0.204444       0.000527
     14 H                     0.285290      -0.000195
     15 H                     0.177608      -0.013360
     16 C                     0.662255       0.001220
     17 H                     0.149890      -0.002817
     18 H                     0.176878       0.003805
     19 H                     0.255722      -0.000214
     20 H                     0.187177       0.004794
  --------------------------------------------------------
  Sum of atomic charges =    -1.000000

                    Cartesian Multipole Moments
 -----------------------------------------------------------------
    Charge (ESU x 10^10)
                -4.8032
    Dipole Moment (Debye)
         X       0.4569      Y      -1.9422      Z      -1.1059
       Tot       2.2812
    Quadrupole Moments (Debye-Ang)
        XX     -72.2210     XY      -1.6670     YY    -121.6426
        XZ      -0.9359     YZ       1.8097     ZZ     -76.3141

 Total job time:  306.82s(wall), 2118.53s(cpu)
        *  Thank you very much for using Q-Chem.  Have a nice day.  *
