 Q-Chem 5.4, Q-Chem, Inc., Pleasanton, CA (2021)
 Q-Chem 5.4.0 for Intel X86 EM64T Linux

User input:
--------------------------------------------------------------
$molecule
-1 2
C                  1.5694990000      1.0952750000     -1.5704280000
C                  0.1589020000      0.8882210000     -1.3336050000
C                 -0.3197110000      0.1725150000     -0.2587660000
C                  0.5709240000     -0.4337220000      0.7271180000
C                  1.9855640000     -0.2172640000      0.4743260000
C                  2.4545630000      0.4928060000     -0.5923880000
O                  1.9968240000      1.7536200000     -2.5613180000
O                  0.1643030000     -1.0922380000      1.7164820000
C                 -1.7946830000     -0.0024660000     -0.0749480000
F                 -2.5240120000      0.6088300000     -1.0592410000
F                 -2.1940180000     -1.3032320000     -0.0919640000
F                 -2.2628710000      0.5196720000      1.0911750000
H                 -0.5212160000      1.3292260000     -2.0524960000
H                  2.6634500000     -0.6617870000      1.1975050000
H                  3.5206220000      0.6338660000     -0.7488530000
$end
$rem
MAX_SCF_CYCLES=200
BASIS  =  6-311++G(d,p)
GUI  =  2
JOB_TYPE  =  SP
METHOD  =  B3LYP
SOLVENT_METHOD = COSMO
$end
$solvent
dielectric 37.219
opticaldielectric 1.43
$end

--------------------------------------------------------------

             Standard Nuclear Orientation (Angstroms)
    I     Atom           X                Y                Z
 ----------------------------------------------------------------
    1      C       2.2077584427     0.7202559257     0.0005101335
    2      C       0.7948092860     1.0240897125     0.0001950637
    3      C      -0.1777157705     0.0490105517     0.0002460326
    4      C       0.1513999086    -1.3738049742     0.0005831943
    5      C       1.5757015847    -1.6624718097    -0.0000365683
    6      C       2.5353684273    -0.6923801783    -0.0000878261
    7      O       3.0913192108     1.6242512015    -0.0003247615
    8      O      -0.7128762610    -2.2853153486    -0.0002070536
    9      C      -1.6234793138     0.4359440372    -0.0000049417
   10      F      -1.8052394257     1.7929257868    -0.0003090041
   11      F      -2.3065955741    -0.0148001099    -1.0871719307
   12      F      -2.3068994162    -0.0143573103     1.0871181451
   13      H       0.5266720185     2.0738289910     0.0000311798
   14      H       1.8394997954    -2.7162878995    -0.0004179242
   15      H       3.5918389420    -0.9468028042    -0.0005241557
 ----------------------------------------------------------------

   10    -718.8023654766      5.75e-06  Convergence criterion met
 Total energy in the final basis set =     -718.8023654766
    4    -718.8841646510      8.66e-06  Convergence criterion met
 Total energy in the final basis set =     -718.8841646510

                    Orbital Energies (a.u.)
 --------------------------------------------------------------

 Alpha MOs
 -- Occupied --
-24.7126 -24.7118 -24.7118 -19.0932 -19.0930 -10.4301 -10.2413 -10.2336
-10.1966 -10.1854 -10.1759 -10.1752  -1.3152  -1.2274  -1.2264  -1.0189
 -1.0131  -0.8465  -0.7836  -0.7213  -0.6879  -0.6309  -0.6087  -0.5962
 -0.5838  -0.5376  -0.4882  -0.4787  -0.4770  -0.4732  -0.4515  -0.4410
 -0.4309  -0.4189  -0.4186  -0.4150  -0.4100  -0.3905  -0.3894  -0.3736
 -0.3010  -0.2772  -0.2595  -0.2542  -0.1798

 Beta MOs
 -- Occupied --
-24.7126 -24.7117 -24.7117 -19.0865 -19.0856 -10.4301 -10.2402 -10.2324
-10.1955 -10.1834 -10.1752 -10.1743  -1.3150  -1.2272  -1.2264  -1.0075
 -0.9997  -0.8404  -0.7809  -0.7164  -0.6805  -0.6279  -0.6068  -0.5957
 -0.5819  -0.5342  -0.4861  -0.4767  -0.4745  -0.4728  -0.4487  -0.4388
 -0.4291  -0.4160  -0.4136  -0.4088  -0.3992  -0.3864  -0.3712  -0.3600
 -0.2721  -0.2630  -0.2528  -0.2478

          Ground-State Mulliken Net Atomic Charges

     Atom                 Charge (a.u.)    Spin (a.u.)
  --------------------------------------------------------
      1 C                    -0.460602       0.113026
      2 C                    -0.405005       0.120926
      3 C                     0.339153       0.079024
      4 C                    -0.385548       0.069215
      5 C                    -0.053880       0.078813
      6 C                     0.164338       0.051523
      7 O                    -0.518819       0.262417
      8 O                    -0.492019       0.235113
      9 C                     0.589452       0.008762
     10 F                    -0.194923      -0.001347
     11 F                    -0.113258       0.002212
     12 F                    -0.113212       0.002213
     13 H                     0.207009      -0.011044
     14 H                     0.217777      -0.006718
     15 H                     0.219538      -0.004135
  --------------------------------------------------------
  Sum of atomic charges =    -1.000000

                    Cartesian Multipole Moments
 -----------------------------------------------------------------
    Charge (ESU x 10^10)
                -4.8032
    Dipole Moment (Debye)
         X      -1.7581      Y       0.2925      Z       0.0022
       Tot       1.7822
    Quadrupole Moments (Debye-Ang)
        XX     -98.8059     XY     -19.4884     YY     -88.6134
        XZ       0.0003     YZ       0.0007     ZZ     -71.1981

 Total job time:  23.81s(wall), 166.30s(cpu)
        *  Thank you very much for using Q-Chem.  Have a nice day.  *
