 Gaussian 16, Revision A.03,
 Gaussian 16:  ES64L-G16RevA.03 25-Dec-2016

 ----------------------------------------------------------------
 #P UB3LYP/6-311++G(d,p) SCRF=(PCM,Solvent=n,n-DiMethylFormamide)
 ----------------------------------------------------------------

 ------------------
 Quinone PCM in DMF
 ------------------
 Symbolic Z-matrix:
 Charge =  0 Multiplicity = 1

                         Standard orientation:
 ---------------------------------------------------------------------
 Center     Atomic      Atomic             Coordinates (Angstroms)
 Number     Number       Type             X           Y           Z
 ---------------------------------------------------------------------
      1          6           0       -5.708650   -0.407754   -0.923139
      2          6           0       -6.236068   -1.676343   -0.702472
      3          6           0       -5.502155   -2.621683    0.016377
      4          6           0       -4.444354   -0.086995   -0.423056
      5          6           0       -3.703660   -1.035804    0.300638
      6          6           0       -4.240926   -2.303522    0.516899
      7          6           0       -3.871827    1.252810   -0.647582
      8          6           0       -2.516440    1.541772   -0.097203
      9          6           0       -1.785987    0.645860    0.611495
     10          6           0       -2.342431   -0.703475    0.844467
     11          8           0       -4.441503    2.148445   -1.261124
     12          8           0       -1.712483   -1.542896    1.472835
     13          1           0       -6.259060    0.342649   -1.477331
     14          1           0       -7.216425   -1.929539   -1.089119
     15          1           0       -5.914773   -3.609571    0.187119
     16          1           0       -3.658457   -3.024750    1.076591
     17          8           0       -2.075673    2.783068   -0.359268
     18          1           0       -2.786874    3.221382   -0.864185
     19          6           0       -0.415116    0.960846    1.141386
     20          6           0        0.700814    0.538726    0.159358
     21          6           0        2.131834    0.733860    0.697747
     22          6           0        3.141823    0.073564   -0.262607
     23          6           0        4.583566   -0.015922    0.255669
     24          6           0        5.510930   -0.771617   -0.705179
     25          6           0        6.952276   -0.983333   -0.203826
     26          6           0        7.717690   -1.921755   -1.147616
     27          6           0        2.455926    2.215225    0.943450
     28          6           0        7.714887    0.337717   -0.025849
     29          1           0       -0.276919    0.424092    2.083531
     30          1           0       -0.354333    2.031366    1.343741
     31          1           0        0.586145    1.097802   -0.777485
     32          1           0        0.560188   -0.519207   -0.083777
     33          1           0        2.196187    0.205110    1.659574
     34          1           0        3.132185    0.616373   -1.217925
     35          1           0        2.791516   -0.941382   -0.487789
     36          1           0        4.583956   -0.523815    1.229468
     37          1           0        4.977364    0.989149    0.432409
     38          1           0        5.545065   -0.244101   -1.668685
     39          1           0        5.070004   -1.754366   -0.915042
     40          1           0        6.892557   -1.472908    0.778259
     41          1           0        7.210730   -2.886010   -1.249215
     42          1           0        8.731301   -2.112791   -0.782588
     43          1           0        7.803053   -1.483776   -2.148445
     44          1           0        3.460327    2.345556    1.352596
     45          1           0        1.760676    2.672386    1.651538
     46          1           0        2.399495    2.783178    0.007850
     47          1           0        7.235001    0.996347    0.702041
     48          1           0        7.778817    0.879523   -0.976494
     49          1           0        8.736741    0.155317    0.320077
 ---------------------------------------------------------------------

 SCF Done:  E(UB3LYP) =  -1003.77417884     A.U. after   15 cycles

 The electronic state is 1-A.
 Alpha  occ. eigenvalues --  -19.18045 -19.15119 -19.13076 -10.29505 -10.28222
 Alpha  occ. eigenvalues --  -10.26874 -10.21279 -10.21151 -10.20553 -10.20346
 Alpha  occ. eigenvalues --  -10.20177 -10.20008 -10.19966 -10.17756 -10.17183
 Alpha  occ. eigenvalues --  -10.16997 -10.16779 -10.15977 -10.15899 -10.15853
 Alpha  occ. eigenvalues --  -10.15437 -10.15353 -10.15326  -1.11043  -1.06895
 Alpha  occ. eigenvalues --   -1.06428  -0.89475  -0.84648  -0.82119  -0.80610
 Alpha  occ. eigenvalues --   -0.78765  -0.78208  -0.75411  -0.72805  -0.69507
 Alpha  occ. eigenvalues --   -0.68120  -0.67602  -0.66230  -0.64984  -0.62053
 Alpha  occ. eigenvalues --   -0.60695  -0.58942  -0.57569  -0.56145  -0.55310
 Alpha  occ. eigenvalues --   -0.54436  -0.52100  -0.49948  -0.48249  -0.47880
 Alpha  occ. eigenvalues --   -0.47347  -0.46910  -0.46248  -0.45524  -0.45362
 Alpha  occ. eigenvalues --   -0.44625  -0.43811  -0.43609  -0.42706  -0.42206
 Alpha  occ. eigenvalues --   -0.41955  -0.40985  -0.40781  -0.39746  -0.39082
 Alpha  occ. eigenvalues --   -0.38240  -0.38106  -0.37955  -0.37891  -0.37245
 Alpha  occ. eigenvalues --   -0.36268  -0.35728  -0.35179  -0.34534  -0.33291
 Alpha  occ. eigenvalues --   -0.32552  -0.32047  -0.31756  -0.31310  -0.30715
 Alpha  occ. eigenvalues --   -0.30184  -0.29135  -0.28227  -0.28032  -0.25785
 Alpha virt. eigenvalues --   -0.12729  -0.05812  -0.02763  -0.01009  -0.00434
 Alpha virt. eigenvalues --    0.00135   0.00509   0.00858   0.01041   0.01702
 Alpha virt. eigenvalues --    0.02048   0.02208   0.02276   0.03075   0.03438

  Beta  occ. eigenvalues --  -19.18045 -19.15119 -19.13076 -10.29505 -10.28222
  Beta  occ. eigenvalues --  -10.26874 -10.21279 -10.21151 -10.20553 -10.20346
  Beta  occ. eigenvalues --  -10.20177 -10.20008 -10.19966 -10.17756 -10.17183
  Beta  occ. eigenvalues --  -10.16997 -10.16779 -10.15977 -10.15899 -10.15853
  Beta  occ. eigenvalues --  -10.15437 -10.15353 -10.15326  -1.11043  -1.06895
  Beta  occ. eigenvalues --   -1.06428  -0.89475  -0.84648  -0.82119  -0.80610
  Beta  occ. eigenvalues --   -0.78765  -0.78208  -0.75411  -0.72805  -0.69507
  Beta  occ. eigenvalues --   -0.68120  -0.67602  -0.66230  -0.64984  -0.62053
  Beta  occ. eigenvalues --   -0.60695  -0.58942  -0.57569  -0.56145  -0.55310
  Beta  occ. eigenvalues --   -0.54436  -0.52100  -0.49948  -0.48249  -0.47880
  Beta  occ. eigenvalues --   -0.47347  -0.46910  -0.46248  -0.45524  -0.45362
  Beta  occ. eigenvalues --   -0.44625  -0.43811  -0.43609  -0.42706  -0.42206
  Beta  occ. eigenvalues --   -0.41955  -0.40985  -0.40781  -0.39746  -0.39082
  Beta  occ. eigenvalues --   -0.38240  -0.38106  -0.37955  -0.37891  -0.37245
  Beta  occ. eigenvalues --   -0.36268  -0.35728  -0.35179  -0.34534  -0.33291
  Beta  occ. eigenvalues --   -0.32552  -0.32047  -0.31756  -0.31310  -0.30715
  Beta  occ. eigenvalues --   -0.30184  -0.29135  -0.28227  -0.28032  -0.25785
  Beta virt. eigenvalues --   -0.12729  -0.05812  -0.02763  -0.01009  -0.00434
  Beta virt. eigenvalues --    0.00135   0.00509   0.00858   0.01041   0.01702
  Beta virt. eigenvalues --    0.02048   0.02208   0.02276   0.03075   0.03438

 Mulliken charges and spin densities:
               1          2
     1  C    0.099855   0.000000
     2  C   -0.358662  -0.000000
     3  C   -0.441301   0.000000
     4  C    0.617157   0.000000
     5  C   -0.207341  -0.000000
     6  C    0.175778  -0.000000
     7  C   -0.961532   0.000000
     8  C   -0.583658   0.000000
     9  C    2.067536  -0.000000
    10  C   -0.847139   0.000000
    11  O   -0.312250   0.000000
    12  O   -0.269828  -0.000000
    13  H    0.189041  -0.000000
    14  H    0.212241   0.000000
    15  H    0.207867  -0.000000
    16  H    0.191051  -0.000000
    17  O   -0.210733  -0.000000
    18  H    0.305569   0.000000
    19  C   -0.055875  -0.000000
    20  C   -1.097341  -0.000000
    21  C    1.229186  -0.000000
    22  C   -0.706699   0.000000
    23  C    0.012410  -0.000000
    24  C   -0.864713   0.000000
    25  C    0.527636   0.000000
    26  C   -0.659908  -0.000000
    27  C   -0.743099  -0.000000
    28  C   -0.691579  -0.000000
    29  H    0.228381   0.000000
    30  H    0.229106  -0.000000
    31  H    0.188219   0.000000
    32  H    0.170698   0.000000
    33  H    0.134249   0.000000
    34  H    0.148706  -0.000000
    35  H    0.108389  -0.000000
    36  H    0.150445  -0.000000
    37  H    0.087610  -0.000000
    38  H    0.142749   0.000000
    39  H    0.129238   0.000000
    40  H    0.140055  -0.000000
    41  H    0.135986   0.000000
    42  H    0.158563   0.000000
    43  H    0.139967  -0.000000
    44  H    0.153060  -0.000000
    45  H    0.138069   0.000000
    46  H    0.158343  -0.000000
    47  H    0.141724   0.000000
    48  H    0.147174   0.000000
    49  H    0.145599  -0.000000
 Sum of Mulliken charges =  -0.00000   0.00000

 Dipole moment (field-independent basis, Debye):
    X=             -2.5551    Y=             -1.0357    Z=             -0.9209  Tot=              2.9068
 Quadrupole moment (field-independent basis, Debye-Ang):
   XX=           -119.2700   YY=           -140.7287   ZZ=           -145.6481
   XY=             14.0085   XZ=              3.3656   YZ=              3.5697

 Normal termination of Gaussian 16 at Sun Jan 21 08:19:06 2024.
