 Gaussian 16, Revision A.03,
 Gaussian 16:  ES64L-G16RevA.03 25-Dec-2016

 --------------------------------------
 #P UB3LYP/6-311++G(d,p) nosym opt freq
 --------------------------------------

 -------
 Radical
 -------
 Symbolic Z-matrix:
 Charge = -1 Multiplicity = 2

 SCF Done:  E(UB3LYP) =  -883.164041537     A.U. after   23 cycles
 Optimization completed.
    -- Stationary point found.
 Normal termination of Gaussian 16 at Wed Jan 10 17:07:02 2024.

 ----------------------------------------------------------------------
 #P Geom=AllCheck Guess=TCheck SCRF=Check GenChk UB3LYP/6-311++G(d,p) F
 req
 ----------------------------------------------------------------------

 Structure from the checkpoint file:  "113-rad.chk"
 -------
 Radical
 -------
 Charge = -1 Multiplicity = 2

                          Input orientation:
 ---------------------------------------------------------------------
 Center     Atomic      Atomic             Coordinates (Angstroms)
 Number     Number       Type             X           Y           Z
 ---------------------------------------------------------------------
      1          8           0        1.263178    1.272512    2.329252
      2          6           0        0.685735    0.730105    1.338340
      3          6           0       -0.736079    0.514836    1.322503
      4          6           0       -1.448495    0.007076    0.251664
      5          7           0       -2.854287   -0.079486    0.266863
      6          6           0       -3.572750    0.527582    1.376446
      7          6           0       -5.100784    0.420928    1.169966
      8          6           0       -5.450672    0.377966   -0.320807
      9          6           0       -4.825300   -0.876586   -0.968421
     10          6           0       -3.518741   -1.274274   -0.252793
     11          6           0       -0.728124   -0.350290   -0.980000
     12          8           0       -1.318158   -0.758721   -2.027028
     13          6           0        0.701346   -0.207211   -0.935536
     14          6           0        1.415178    0.292904    0.139496
     15          7           0        2.806007    0.487700    0.080815
     16          6           0        3.465896    0.351169   -1.209122
     17          6           0        4.940694    0.743761   -1.101745
     18          6           0        5.708148   -0.213097   -0.161896
     19          6           0        4.765647   -0.780149    0.921395
     20          6           0        3.643899    0.209808    1.261548
     21          1           0       -1.234901    0.817977    2.234952
     22          1           0       -3.272809    1.579166    1.437785
     23          1           0       -3.305987    0.066524    2.346653
     24          1           0       -5.589746    1.263108    1.671018
     25          1           0       -5.481736   -0.487681    1.651494
     26          1           0       -6.537090    0.390908   -0.465465
     27          1           0       -5.054384    1.275974   -0.804827
     28          1           0       -5.529429   -1.717612   -0.925260
     29          1           0       -4.610160   -0.683852   -2.023041
     30          1           0       -2.846301   -1.763676   -0.950379
     31          1           0       -3.734739   -1.973671    0.578035
     32          1           0        1.199864   -0.512051   -1.847637
     33          1           0        3.398085   -0.678448   -1.611349
     34          1           0        2.950579    0.992591   -1.931277
     35          1           0        5.390485    0.749486   -2.100086
     36          1           0        4.997674    1.769232   -0.722074
     37          1           0        6.543179    0.321998    0.304312
     38          1           0        6.149592   -1.034244   -0.738295
     39          1           0        5.325724   -1.023862    1.831175
     40          1           0        4.313358   -1.714886    0.572311
     41          1           0        3.009767   -0.174518    2.054787
     42          1           0        4.076638    1.140999    1.652247
 ---------------------------------------------------------------------

 SCF Done:  E(UB3LYP) =  -883.164041537     A.U. after    2 cycles

 Alpha  occ. eigenvalues --  -18.92381 -18.92337 -14.19741 -14.19606 -10.08976
 Alpha  occ. eigenvalues --  -10.08712 -10.07826 -10.07763 -10.07513 -10.07499
 Alpha  occ. eigenvalues --  -10.07444 -10.07221 -10.07205 -10.06913 -10.06821
 Alpha  occ. eigenvalues --  -10.06386 -10.06268 -10.05894 -10.01195 -10.01079
 Alpha  occ. eigenvalues --   -0.85180  -0.84747  -0.81573  -0.81433  -0.70523
 Alpha  occ. eigenvalues --   -0.69709  -0.65999  -0.65066  -0.64410  -0.60115
 Alpha  occ. eigenvalues --   -0.55383  -0.54943  -0.53498  -0.52498  -0.51021
 Alpha  occ. eigenvalues --   -0.46900  -0.43739  -0.43351  -0.42049  -0.39917
 Alpha  occ. eigenvalues --   -0.39552  -0.38448  -0.36903  -0.35625  -0.33879
 Alpha  occ. eigenvalues --   -0.33334  -0.32348  -0.31785  -0.30582  -0.30394
 Alpha  occ. eigenvalues --   -0.29808  -0.29115  -0.28976  -0.28123  -0.27013
 Alpha  occ. eigenvalues --   -0.26338  -0.26100  -0.25686  -0.25142  -0.25084
 Alpha  occ. eigenvalues --   -0.24031  -0.23442  -0.22732  -0.22538  -0.22065
 Alpha  occ. eigenvalues --   -0.21670  -0.21249  -0.20804  -0.15910  -0.14910
 Alpha  occ. eigenvalues --   -0.09351  -0.09203  -0.08895  -0.06601  -0.00387
 Alpha virt. eigenvalues --    0.06700   0.07071   0.08667   0.08827   0.09032
 Alpha virt. eigenvalues --    0.09066   0.09898   0.10722   0.11689   0.11799
 Alpha virt. eigenvalues --    0.12002   0.12150   0.12391   0.12630   0.13030

  Beta  occ. eigenvalues --  -18.91724 -18.91714 -14.19641 -14.19528 -10.08982
  Beta  occ. eigenvalues --  -10.08718 -10.07826 -10.07760 -10.07512 -10.07334
  Beta  occ. eigenvalues --  -10.07282 -10.07220 -10.07200 -10.06909 -10.06821
  Beta  occ. eigenvalues --  -10.06210 -10.06090 -10.05894 -10.01185 -10.01085
  Beta  occ. eigenvalues --   -0.84253  -0.83756  -0.81257  -0.81059  -0.70383
  Beta  occ. eigenvalues --   -0.69625  -0.65627  -0.65029  -0.64384  -0.59932
  Beta  occ. eigenvalues --   -0.55046  -0.54751  -0.53430  -0.52459  -0.50531
  Beta  occ. eigenvalues --   -0.46733  -0.43444  -0.43253  -0.41963  -0.39841
  Beta  occ. eigenvalues --   -0.39482  -0.38377  -0.36655  -0.35512  -0.33747
  Beta  occ. eigenvalues --   -0.33204  -0.32237  -0.31684  -0.30540  -0.30237
  Beta  occ. eigenvalues --   -0.29730  -0.29018  -0.28859  -0.27994  -0.26758
  Beta  occ. eigenvalues --   -0.26180  -0.25854  -0.25053  -0.24767  -0.24559
  Beta  occ. eigenvalues --   -0.23868  -0.22944  -0.22477  -0.22187  -0.21942
  Beta  occ. eigenvalues --   -0.21336  -0.20966  -0.19126  -0.15225  -0.12922
  Beta  occ. eigenvalues --   -0.08653  -0.08379  -0.07523  -0.05855
  Beta virt. eigenvalues --    0.06321   0.06696   0.07118   0.08679   0.08828
  Beta virt. eigenvalues --    0.09049   0.09060   0.09897   0.10718   0.11694
  Beta virt. eigenvalues --    0.11806   0.12008   0.12150   0.12407   0.12644

 Mulliken charges and spin densities:
               1          2
     1  O   -0.402353   0.244612
     2  C   -0.489039   0.118582
     3  C    0.238163  -0.034452
     4  C   -0.320546   0.174201
     5  N    0.424747   0.021440
     6  C   -0.152154   0.006780
     7  C   -0.532843  -0.006169
     8  C   -0.232237  -0.000852
     9  C   -0.298077   0.012775
    10  C   -0.410215  -0.001180
    11  C   -0.235472   0.098853
    12  O   -0.420248   0.226416
    13  C    0.215237  -0.076054
    14  C   -0.322221   0.158866
    15  N    0.317264   0.030122
    16  C   -0.088438   0.002385
    17  C   -0.502148  -0.005356
    18  C   -0.461285   0.002500
    19  C   -0.299729  -0.003542
    20  C   -0.287454   0.021996
    21  H    0.192816  -0.005573
    22  H    0.164178  -0.000426
    23  H    0.097482   0.006338
    24  H    0.136105   0.000601
    25  H    0.122034  -0.000102
    26  H    0.139529   0.000881
    27  H    0.139546   0.000069
    28  H    0.092701   0.002747
    29  H    0.160402   0.001203
    30  H    0.227239  -0.009801
    31  H    0.108258   0.010927
    32  H    0.185084  -0.005112
    33  H    0.096300   0.006572
    34  H    0.181672  -0.000282
    35  H    0.138427   0.001030
    36  H    0.162039   0.000686
    37  H    0.121561  -0.000118
    38  H    0.122731  -0.000162
    39  H    0.142446   0.001797
    40  H    0.150005   0.000234
    41  H    0.218898  -0.004955
    42  H    0.159595   0.001524
 Sum of Mulliken charges =  -1.00000   1.00000

 Dipole moment (field-independent basis, Debye):
    X=              0.8091    Y=             -1.3423    Z=             -0.5797  Tot=              1.6710
 Quadrupole moment (field-independent basis, Debye-Ang):
   XX=           -146.4695   YY=           -133.8712   ZZ=           -150.7106
   XY=             -6.2206   XZ=            -12.3560   YZ=            -10.4245

  Exact polarizability: 355.144  21.492 174.779  10.833  22.343 225.069
 Approx polarizability: 415.925  43.327 281.796  47.711  52.469 377.350

                      1                      2                      3
                      A                      A                      A
 Frequencies --     24.9851                45.6233                49.3502
 Red. masses --      4.0931                 3.1541                 3.1386
 Frc consts  --      0.0015                 0.0039                 0.0045
 IR Inten    --      3.7167                 0.8726                 1.7795

                      4                      5                      6
                      A                      A                      A
 Frequencies --     68.3776                83.4334               103.9636
 Red. masses --      4.2081                 3.9970                 3.0677
 Frc consts  --      0.0116                 0.0164                 0.0195
 IR Inten    --      2.1433                 3.7068                 1.9608

                      7                      8                      9
                      A                      A                      A
 Frequencies --    133.8756               152.2640               176.2368
 Red. masses --      2.6350                 2.5734                 4.6726
 Frc consts  --      0.0278                 0.0352                 0.0855
 IR Inten    --      1.8474                 1.4629                 4.0583

                     10                     11                     12
                      A                      A                      A
 Frequencies --    205.3396               216.8499               249.9619
 Red. masses --      4.7123                 3.2215                 2.7549
 Frc consts  --      0.1171                 0.0893                 0.1014
 IR Inten    --      0.5339                 0.5079                 4.0071

                     13                     14                     15
                      A                      A                      A
 Frequencies --    260.5589               287.7683               292.8499
 Red. masses --      2.2261                 2.3125                 2.7257
 Frc consts  --      0.0890                 0.1128                 0.1377
 IR Inten    --      0.3272                 6.9119                 9.2608

                     16                     17                     18
                      A                      A                      A
 Frequencies --    304.0552               328.2498               343.3012
 Red. masses --      2.5965                 6.1466                 4.4597
 Frc consts  --      0.1414                 0.3902                 0.3097
 IR Inten    --      4.8732                12.9533                 2.2966

                     19                     20                     21
                      A                      A                      A
 Frequencies --    378.9836               447.5053               456.2648
 Red. masses --      3.0313                 4.7722                 4.1254
 Frc consts  --      0.2565                 0.5631                 0.5060
 IR Inten    --      1.9244                12.3808                 0.1842

                     22                     23                     24
                      A                      A                      A
 Frequencies --    464.9117               474.8655               487.8637
 Red. masses --      3.1310                 3.8189                 6.7113
 Frc consts  --      0.3987                 0.5074                 0.9411
 IR Inten    --      0.3544                 1.0791                 3.1564

                     25                     26                     27
                      A                      A                      A
 Frequencies --    500.1210               512.2945               560.1785
 Red. masses --      4.2273                 3.8331                 2.1898
 Frc consts  --      0.6230                 0.5927                 0.4049
 IR Inten    --      5.1029                 0.1948                 2.1236

                     28                     29                     30
                      A                      A                      A
 Frequencies --    599.2016               669.0442               694.7777
 Red. masses --      2.6924                 4.0352                 3.3901
 Frc consts  --      0.5696                 1.0642                 0.9642
 IR Inten    --      2.2578                 1.6675                 6.3014

                     31                     32                     33
                      A                      A                      A
 Frequencies --    714.0737               725.0199               731.9820
 Red. masses --      3.4429                 2.4308                 6.7270
 Frc consts  --      1.0343                 0.7528                 2.1236
 IR Inten    --      6.5210                 6.2131                 0.6147

                     34                     35                     36
                      A                      A                      A
 Frequencies --    776.2556               782.9491               819.2684
 Red. masses --      1.3283                 1.3696                 3.6833
 Frc consts  --      0.4716                 0.4947                 1.4566
 IR Inten    --      1.3994                 9.4090                 6.2518

                     37                     38                     39
                      A                      A                      A
 Frequencies --    821.1006               825.4197               846.3031
 Red. masses --      1.9655                 3.1318                 1.5532
 Frc consts  --      0.7807                 1.2572                 0.6555
 IR Inten    --      0.6369                 7.9980                40.8515

                     40                     41                     42
                      A                      A                      A
 Frequencies --    855.2464               878.0206               882.9231
 Red. masses --      3.1294                 1.5574                 1.8089
 Frc consts  --      1.3486                 0.7074                 0.8308
 IR Inten    --      4.5038                 4.0169                 5.8672

                     43                     44                     45
                      A                      A                      A
 Frequencies --    887.5354               908.1856               915.5635
 Red. masses --      2.3207                 2.2737                 2.5159
 Frc consts  --      1.0771                 1.1049                 1.2426
 IR Inten    --      9.1072                 2.1411                 0.7529

                     46                     47                     48
                      A                      A                      A
 Frequencies --    949.4306               973.3496               992.5076
 Red. masses --      2.6072                 1.5728                 1.4586
 Frc consts  --      1.3847                 0.8779                 0.8466
 IR Inten    --     49.1851                17.8284                 4.4588

                     49                     50                     51
                      A                      A                      A
 Frequencies --   1013.8940              1028.0692              1036.2255
 Red. masses --      2.0683                 2.1706                 2.1154
 Frc consts  --      1.2527                 1.3517                 1.3383
 IR Inten    --      4.9383                14.7374                13.1460

                     52                     53                     54
                      A                      A                      A
 Frequencies --   1054.6178              1081.3389              1087.3708
 Red. masses --      1.9918                 1.8888                 1.7679
 Frc consts  --      1.3052                 1.3012                 1.2316
 IR Inten    --      5.4694                 0.9412                 0.2563

                     55                     56                     57
                      A                      A                      A
 Frequencies --   1125.2957              1134.9353              1147.5423
 Red. masses --      2.4312                 2.3104                 2.2541
 Frc consts  --      1.8139                 1.7534                 1.7489
 IR Inten    --      6.4813               112.4704                18.1679

                     58                     59                     60
                      A                      A                      A
 Frequencies --   1150.2689              1186.2703              1189.9735
 Red. masses --      2.2209                 1.4299                 1.2242
 Frc consts  --      1.7313                 1.1855                 1.0213
 IR Inten    --     13.9685               158.0462                 2.5419

                     61                     62                     63
                      A                      A                      A
 Frequencies --   1201.7895              1230.3357              1234.3048
 Red. masses --      3.3046                 2.3230                 1.9669
 Frc consts  --      2.8121                 2.0718                 1.7655
 IR Inten    --     32.3746               113.2045               222.1228

                     64                     65                     66
                      A                      A                      A
 Frequencies --   1244.1245              1248.9038              1256.5503
 Red. masses --      1.4518                 1.5191                 1.3188
 Frc consts  --      1.3240                 1.3960                 1.2269
 IR Inten    --      0.1167                55.4786                 7.3792

                     67                     68                     69
                      A                      A                      A
 Frequencies --   1266.3114              1280.7680              1287.6245
 Red. masses --      1.6160                 1.4204                 1.1806
 Frc consts  --      1.5268                 1.3728                 1.1533
 IR Inten    --      3.9677                 3.3422                28.0346

                     70                     71                     72
                      A                      A                      A
 Frequencies --   1293.9463              1330.2835              1340.1337
 Red. masses --      1.2760                 1.7400                 1.6315
 Frc consts  --      1.2587                 1.8142                 1.7264
 IR Inten    --     20.5275                49.8354                25.1662

                     73                     74                     75
                      A                      A                      A
 Frequencies --   1343.4447              1347.2469              1351.5985
 Red. masses --      1.3647                 1.5441                 1.5953
 Frc consts  --      1.4512                 1.6513                 1.7171
 IR Inten    --      6.2468                31.2823                33.8822

                     76                     77                     78
                      A                      A                      A
 Frequencies --   1356.0700              1357.6701              1372.5262
 Red. masses --      1.3449                 1.3913                 1.4075
 Frc consts  --      1.4571                 1.5110                 1.5622
 IR Inten    --      1.7077                21.3085                 0.4502

                     79                     80                     81
                      A                      A                      A
 Frequencies --   1373.6287              1378.5485              1386.3043
 Red. masses --      1.3965                 1.4090                 1.3999
 Frc consts  --      1.5525                 1.5776                 1.5851
 IR Inten    --      3.1702                 8.6019                 2.7946

                     82                     83                     84
                      A                      A                      A
 Frequencies --   1401.8785              1414.5004              1438.9055
 Red. masses --      1.5931                 1.5303                 4.5114
 Frc consts  --      1.8447                 1.8040                 5.5033
 IR Inten    --     54.2173                34.2303                 4.7606

                     85                     86                     87
                      A                      A                      A
 Frequencies --   1469.5336              1481.1750              1482.3591
 Red. masses --      1.2497                 1.0942                 1.1409
 Frc consts  --      1.5900                 1.4144                 1.4771
 IR Inten    --     31.9655                 4.1408                10.5117

                     88                     89                     90
                      A                      A                      A
 Frequencies --   1488.1599              1491.3400              1494.3147
 Red. masses --      1.2299                 2.9700                 1.1188
 Frc consts  --      1.6048                 3.8919                 1.4719
 IR Inten    --     12.7654                 3.3620                 2.6723

                     91                     92                     93
                      A                      A                      A
 Frequencies --   1499.3102              1500.4607              1505.3107
 Red. masses --      1.5755                 1.2018                 1.7146
 Frc consts  --      2.0866                 1.5942                 2.2890
 IR Inten    --     72.9205                73.7217                33.1856

                     94                     95                     96
                      A                      A                      A
 Frequencies --   1512.9448              1517.2442              1522.2667
 Red. masses --      1.1418                 1.1432                 1.2017
 Frc consts  --      1.5398                 1.5505                 1.6407
 IR Inten    --     10.5980                10.6101               129.5584

                     97                     98                     99
                      A                      A                      A
 Frequencies --   1536.1004              1618.3755              2873.0677
 Red. masses --      3.1054                 6.2323                 1.0747
 Frc consts  --      4.3173                 9.6174                 5.2269
 IR Inten    --    608.6854                 2.2897               124.7296

                    100                    101                    102
                      A                      A                      A
 Frequencies --   2874.0105              2882.9123              2975.2677
 Red. masses --      1.0749                 1.0745                 1.0762
 Frc consts  --      5.2309                 5.2616                 5.6132
 IR Inten    --    137.7096               163.3074                76.3183

                    103                    104                    105
                      A                      A                      A
 Frequencies --   2995.5246              3000.4661              3005.3213
 Red. masses --      1.0684                 1.0594                 1.0655
 Frc consts  --      5.6483                 5.6193                 5.6699
 IR Inten    --     65.7018                31.1861                46.5783

                    106                    107                    108
                      A                      A                      A
 Frequencies --   3013.0948              3013.4225              3020.5621
 Red. masses --      1.0634                 1.0694                 1.0677
 Frc consts  --      5.6881                 5.7214                 5.7396
 IR Inten    --     60.5194                83.1402                96.4309

                    109                    110                    111
                      A                      A                      A
 Frequencies --   3021.5407              3023.9728              3034.3512
 Red. masses --      1.0801                 1.0987                 1.0795
 Frc consts  --      5.8101                 5.9196                 5.8558
 IR Inten    --     43.0347                14.2570                64.7045

                    112                    113                    114
                      A                      A                      A
 Frequencies --   3043.3351              3048.2148              3050.1816
 Red. masses --      1.0951                 1.1033                 1.0971
 Frc consts  --      5.9757                 6.0397                 6.0139
 IR Inten    --     80.6905                62.9677                56.0971

                    115                    116                    117
                      A                      A                      A
 Frequencies --   3061.3392              3066.2315              3142.5550
 Red. masses --      1.1043                 1.0986                 1.0884
 Frc consts  --      6.0975                 6.0853                 6.3327
 IR Inten    --    104.9572                74.6463                 8.5989

                    118                    119                    120
                      A                      A                      A
 Frequencies --   3144.1295              3178.2198              3180.5724
 Red. masses --      1.0882                 1.0871                 1.0879
 Frc consts  --      6.3380                 6.4699                 6.4844
 IR Inten    --     17.2983                39.8815                 0.5913

 - Thermochemistry -
 -------------------
 Temperature   298.150 Kelvin.  Pressure   1.00000 Atm.
 Atom     1 has atomic number  8 and mass  15.99491

 Molecular mass:   274.16813 amu.
 Principal axes and moments of inertia in atomic units:
                           1         2         3
     Eigenvalues --  1813.24082********************
           X            0.99932  -0.01449  -0.03379
           Y            0.03673   0.34707   0.93712
           Z            0.00185   0.93773  -0.34737
 This molecule is an asymmetric top.
 Rotational symmetry number  1.
 Warning -- assumption of classical behavior for rotation
           may cause significant error
 Rotational temperatures (Kelvin)      0.04777     0.00711     0.00648
 Rotational constants (GHZ):           0.99531     0.14813     0.13494
 Zero-point vibrational energy     942648.8 (Joules/Mol)
                                  225.29848 (Kcal/Mol)
 Warning -- explicit consideration of  28 degrees of freedom as
           vibrations may cause significant error
 Vibrational temperatures:     35.95    65.64    71.00    98.38   120.04
          (Kelvin)            149.58   192.62   219.07   253.57   295.44
                              312.00   359.64   374.89   414.03   421.35
                              437.47   472.28   493.93   545.27   643.86
                              656.46   668.90   683.23   701.93   719.56
                              737.08   805.97   862.12   962.61   999.63
                             1027.39  1043.14  1053.16  1116.86  1126.49
                             1178.74  1181.38  1187.59  1217.64  1230.51
                             1263.28  1270.33  1276.97  1306.68  1317.29
                             1366.02  1400.43  1428.00  1458.77  1479.16
                             1490.90  1517.36  1555.81  1564.48  1619.05
                             1632.92  1651.06  1654.98  1706.78  1712.11
                             1729.11  1770.18  1775.89  1790.02  1796.89
                             1807.90  1821.94  1842.74  1852.60  1861.70
                             1913.98  1928.15  1932.92  1938.39  1944.65
                             1951.08  1953.38  1974.76  1976.35  1983.42
                             1994.58  2016.99  2035.15  2070.26  2114.33
                             2131.08  2132.78  2141.13  2145.71  2149.99
                             2157.17  2158.83  2165.81  2176.79  2182.98
                             2190.20  2210.11  2328.48  4133.70  4135.06
                             4147.87  4280.75  4309.89  4317.00  4323.99
                             4335.17  4335.64  4345.92  4347.32  4350.82
                             4365.75  4378.68  4385.70  4388.53  4404.58
                             4411.62  4521.44  4523.70  4572.75  4576.13

 Zero-point correction=                           0.359036 (Hartree/Particle)
 Thermal correction to Energy=                    0.377175
 Thermal correction to Enthalpy=                  0.378119
 Thermal correction to Gibbs Free Energy=         0.311503
 Sum of electronic and zero-point Energies=           -882.805006
 Sum of electronic and thermal Energies=              -882.786867
 Sum of electronic and thermal Enthalpies=            -882.785923
 Sum of electronic and thermal Free Energies=         -882.852539

                     E (Thermal)             CV                S
                      KCal/Mol        Cal/Mol-Kelvin    Cal/Mol-Kelvin
 Total                  236.681             71.626            140.206
 Electronic               0.000              0.000              1.377
 Translational            0.889              2.981             42.724
 Rotational               0.889              2.981             34.046
 Vibrational            234.903             65.664             62.058
 Vibration     1          0.593              1.985              6.192
 Vibration     2          0.595              1.979              4.999
 Vibration     3          0.595              1.978              4.843
 Vibration     4          0.598              1.969              4.200
 Vibration     5          0.600              1.961              3.808
 Vibration     6          0.605              1.946              3.379
 Vibration     7          0.613              1.920              2.890
 Vibration     8          0.619              1.900              2.644
 Vibration     9          0.628              1.872              2.368
 Vibration    10          0.640              1.832              2.085
 Vibration    11          0.646              1.815              1.985
 Vibration    12          0.663              1.763              1.731
 Vibration    13          0.669              1.745              1.658
 Vibration    14          0.685              1.696              1.487
 Vibration    15          0.688              1.687              1.457
 Vibration    16          0.695              1.666              1.394
 Vibration    17          0.711              1.619              1.269
 Vibration    18          0.722              1.589              1.197
 Vibration    19          0.749              1.515              1.043
 Vibration    20          0.807              1.366              0.803
 Vibration    21          0.814              1.347              0.777
 Vibration    22          0.822              1.328              0.752
 Vibration    23          0.832              1.306              0.724
 Vibration    24          0.844              1.277              0.689
 Vibration    25          0.856              1.250              0.658
 Vibration    26          0.867              1.223              0.628
 Vibration    27          0.916              1.117              0.523
 Vibration    28          0.957              1.033              0.451

 Optimization completed.
    -- Stationary point found.
 Normal termination of Gaussian 16 at Wed Jan 10 19:44:53 2024.
