 Q-Chem 5.4, Q-Chem, Inc., Pleasanton, CA (2021)
 Q-Chem 5.4.0 for Intel X86 EM64T Linux

User input:
--------------------------------------------------------------
$molecule
-1 2
O                  1.2631780000      1.2725120000      2.3292520000
C                  0.6857350000      0.7301050000      1.3383400000
C                 -0.7360790000      0.5148360000      1.3225030000
C                 -1.4484950000      0.0070760000      0.2516640000
N                 -2.8542870000     -0.0794860000      0.2668630000
C                 -3.5727500000      0.5275820000      1.3764460000
C                 -5.1007840000      0.4209280000      1.1699660000
C                 -5.4506720000      0.3779660000     -0.3208070000
C                 -4.8253000000     -0.8765860000     -0.9684210000
C                 -3.5187410000     -1.2742740000     -0.2527930000
C                 -0.7281240000     -0.3502900000     -0.9800000000
O                 -1.3181580000     -0.7587210000     -2.0270280000
C                  0.7013460000     -0.2072110000     -0.9355360000
C                  1.4151780000      0.2929040000      0.1394960000
N                  2.8060070000      0.4877000000      0.0808150000
C                  3.4658960000      0.3511690000     -1.2091220000
C                  4.9406940000      0.7437610000     -1.1017450000
C                  5.7081480000     -0.2130970000     -0.1618960000
C                  4.7656470000     -0.7801490000      0.9213950000
C                  3.6438990000      0.2098080000      1.2615480000
H                 -1.2349010000      0.8179770000      2.2349520000
H                 -3.2728090000      1.5791660000      1.4377850000
H                 -3.3059870000      0.0665240000      2.3466530000
H                 -5.5897460000      1.2631080000      1.6710180000
H                 -5.4817360000     -0.4876810000      1.6514940000
H                 -6.5370900000      0.3909080000     -0.4654650000
H                 -5.0543840000      1.2759740000     -0.8048270000
H                 -5.5294290000     -1.7176120000     -0.9252600000
H                 -4.6101600000     -0.6838520000     -2.0230410000
H                 -2.8463010000     -1.7636760000     -0.9503790000
H                 -3.7347390000     -1.9736710000      0.5780350000
H                  1.1998640000     -0.5120510000     -1.8476370000
H                  3.3980850000     -0.6784480000     -1.6113490000
H                  2.9505790000      0.9925910000     -1.9312770000
H                  5.3904850000      0.7494860000     -2.1000860000
H                  4.9976740000      1.7692320000     -0.7220740000
H                  6.5431790000      0.3219980000      0.3043120000
H                  6.1495920000     -1.0342440000     -0.7382950000
H                  5.3257240000     -1.0238620000      1.8311750000
H                  4.3133580000     -1.7148860000      0.5723110000
H                  3.0097670000     -0.1745180000      2.0547870000
H                  4.0766380000      1.1409990000      1.6522470000
$end

$rem
BASIS  =  6-311++G(d,p)
GUI  =  2
JOB_TYPE  =  SP
METHOD  =  B3LYP
SCF_CONVERGENCE  = 8
SOLVENT_METHOD = sm12
$end

$smx
solvent dimethylformamide
charges CM5
$end

--------------------------------------------------------------

             Standard Nuclear Orientation (Angstroms)
    I     Atom           X                Y                Z
 ----------------------------------------------------------------
    1      O       1.2631780000     1.2725120000     2.3292520000
    2      C       0.6857350000     0.7301050000     1.3383400000
    3      C      -0.7360790000     0.5148360000     1.3225030000
    4      C      -1.4484950000     0.0070760000     0.2516640000
    5      N      -2.8542870000    -0.0794860000     0.2668630000
    6      C      -3.5727500000     0.5275820000     1.3764460000
    7      C      -5.1007840000     0.4209280000     1.1699660000
    8      C      -5.4506720000     0.3779660000    -0.3208070000
    9      C      -4.8253000000    -0.8765860000    -0.9684210000
   10      C      -3.5187410000    -1.2742740000    -0.2527930000
   11      C      -0.7281240000    -0.3502900000    -0.9800000000
   12      O      -1.3181580000    -0.7587210000    -2.0270280000
   13      C       0.7013460000    -0.2072110000    -0.9355360000
   14      C       1.4151780000     0.2929040000     0.1394960000
   15      N       2.8060070000     0.4877000000     0.0808150000
   16      C       3.4658960000     0.3511690000    -1.2091220000
   17      C       4.9406940000     0.7437610000    -1.1017450000
   18      C       5.7081480000    -0.2130970000    -0.1618960000
   19      C       4.7656470000    -0.7801490000     0.9213950000
   20      C       3.6438990000     0.2098080000     1.2615480000
   21      H      -1.2349010000     0.8179770000     2.2349520000
   22      H      -3.2728090000     1.5791660000     1.4377850000
   23      H      -3.3059870000     0.0665240000     2.3466530000
   24      H      -5.5897460000     1.2631080000     1.6710180000
   25      H      -5.4817360000    -0.4876810000     1.6514940000
   26      H      -6.5370900000     0.3909080000    -0.4654650000
   27      H      -5.0543840000     1.2759740000    -0.8048270000
   28      H      -5.5294290000    -1.7176120000    -0.9252600000
   29      H      -4.6101600000    -0.6838520000    -2.0230410000
   30      H      -2.8463010000    -1.7636760000    -0.9503790000
   31      H      -3.7347390000    -1.9736710000     0.5780350000
   32      H       1.1998640000    -0.5120510000    -1.8476370000
   33      H       3.3980850000    -0.6784480000    -1.6113490000
   34      H       2.9505790000     0.9925910000    -1.9312770000
   35      H       5.3904850000     0.7494860000    -2.1000860000
   36      H       4.9976740000     1.7692320000    -0.7220740000
   37      H       6.5431790000     0.3219980000     0.3043120000
   38      H       6.1495920000    -1.0342440000    -0.7382950000
   39      H       5.3257240000    -1.0238620000     1.8311750000
   40      H       4.3133580000    -1.7148860000     0.5723110000
   41      H       3.0097670000    -0.1745180000     2.0547870000
   42      H       4.0766380000     1.1409990000     1.6522470000
 ----------------------------------------------------------------

   18    -883.1572312359      5.47e-09  Convergence criterion met
 Total energy in the final basis set =     -883.2552063782

                    Orbital Energies (a.u.)
 --------------------------------------------------------------

 Alpha MOs
 -- Occupied --
-19.0609 -19.0603 -14.3221 -14.3214 -10.2121 -10.2114 -10.1999 -10.1998
-10.1988 -10.1980 -10.1935 -10.1912 -10.1724 -10.1710 -10.1692 -10.1689
-10.1686 -10.1660 -10.1479 -10.1463  -0.9871  -0.9839  -0.9393  -0.9372
 -0.8210  -0.8053  -0.7808  -0.7585  -0.7560  -0.7257  -0.6829  -0.6630
 -0.6435  -0.6354  -0.6256  -0.5880  -0.5660  -0.5413  -0.5328  -0.5144
 -0.5030  -0.4990  -0.4909  -0.4767  -0.4559  -0.4436  -0.4349  -0.4310
 -0.4198  -0.4160  -0.4093  -0.4079  -0.4051  -0.3993  -0.3900  -0.3858
 -0.3837  -0.3759  -0.3696  -0.3652  -0.3591  -0.3539  -0.3428  -0.3366
 -0.3256  -0.3228  -0.3203  -0.3199  -0.2868  -0.2808  -0.2293  -0.2268
 -0.2205  -0.1982  -0.1395

 Beta MOs
 -- Occupied --
-19.0545 -19.0544 -14.3207 -14.3203 -10.2104 -10.2097 -10.2000 -10.1999
-10.1970 -10.1961 -10.1934 -10.1911 -10.1723 -10.1710 -10.1692 -10.1688
-10.1686 -10.1660 -10.1480 -10.1466  -0.9771  -0.9734  -0.9365  -0.9338
 -0.8177  -0.8046  -0.7785  -0.7582  -0.7558  -0.7241  -0.6764  -0.6620
 -0.6428  -0.6349  -0.6222  -0.5859  -0.5632  -0.5405  -0.5321  -0.5135
 -0.5018  -0.4974  -0.4882  -0.4752  -0.4544  -0.4425  -0.4331  -0.4298
 -0.4178  -0.4145  -0.4082  -0.4069  -0.4043  -0.3914  -0.3849  -0.3816
 -0.3805  -0.3719  -0.3687  -0.3645  -0.3513  -0.3460  -0.3358  -0.3332
 -0.3242  -0.3225  -0.3199  -0.3173  -0.2806  -0.2596  -0.2234  -0.2206
 -0.2062  -0.1898

          Ground-State Mulliken Net Atomic Charges

     Atom                 Charge (a.u.)    Spin (a.u.)
  --------------------------------------------------------
      1 O                    -0.360000       0.238911
      2 C                    -1.216363       0.116616
      3 C                    -0.732551      -0.043518
      4 C                    -1.170780       0.191347
      5 N                     0.437747       0.033199
      6 C                    -0.437783       0.005243
      7 C                     1.311327      -0.005101
      8 C                     0.249387      -0.004880
      9 C                     0.301361       0.011186
     10 C                    -0.964341      -0.001859
     11 C                    -1.011524       0.096093
     12 O                    -0.376934       0.218017
     13 C                    -0.633940      -0.092634
     14 C                    -0.609821       0.169909
     15 N                     0.310253       0.046160
     16 C                    -0.421445       0.000935
     17 C                     0.972063      -0.005634
     18 C                     0.208143       0.001478
     19 C                     0.367545      -0.002306
     20 C                    -0.752148       0.018839
     21 H                     0.127169      -0.004802
     22 H                     0.112345       0.000285
     23 H                     0.126334       0.006833
     24 H                     0.308964       0.000402
     25 H                     0.178308      -0.001295
     26 H                     0.344417      -0.000170
     27 H                     0.037246       0.000478
     28 H                     0.245415       0.001196
     29 H                     0.092574       0.000752
     30 H                     0.031010      -0.008530
     31 H                     0.141046       0.009820
     32 H                     0.109708      -0.004075
     33 H                     0.068257       0.007557
     34 H                     0.150954       0.000760
     35 H                     0.327642       0.000291
     36 H                     0.144022       0.000342
     37 H                     0.188715      -0.000098
     38 H                     0.219633      -0.000184
     39 H                     0.293077       0.001247
     40 H                     0.121564      -0.000082
     41 H                     0.054529      -0.004725
     42 H                     0.106874       0.001998
  --------------------------------------------------------
  Sum of atomic charges =    -1.000000

                    Cartesian Multipole Moments
 -----------------------------------------------------------------
    Charge (ESU x 10^10)
                -4.8032
    Dipole Moment (Debye)
         X       1.0110      Y      -1.4795      Z      -0.5655
       Tot       1.8791
    Quadrupole Moments (Debye-Ang)
        XX    -127.4746     XY      -6.6799     YY    -133.7683
        XZ     -14.6625     YZ     -10.9969     ZZ    -150.7723

 Total job time:  2090.09s(wall), 16099.97s(cpu)
        *  Thank you very much for using Q-Chem.  Have a nice day.  *
