 Q-Chem 5.4, Q-Chem, Inc., Pleasanton, CA (2021)
 Q-Chem 5.4.0 for Intel X86 EM64T Linux

User input:
--------------------------------------------------------------
$molecule
-2 1
N                 -2.8040160000      1.4205720000      1.3358690000
C                 -2.4845300000      0.4919310000      0.3653500000
C                 -3.4370140000     -0.1999440000     -0.3579800000
Br                -5.3455770000      0.1262890000     -0.0090360000
C                 -3.1255950000     -1.2206660000     -1.2871560000
C                 -1.8132300000     -1.5843930000     -1.4266060000
Br                -1.5430770000     -2.8851680000     -2.8835690000
C                 -0.7310170000     -0.9711050000     -0.7229610000
C                  0.6349420000     -1.4424640000     -0.8219490000
O                  0.9787740000     -2.5283430000     -1.3923780000
C                  1.6344010000     -0.5640060000     -0.2287430000
C                  3.0034030000     -0.8926230000     -0.3764350000
C                  4.0076500000     -0.1106200000      0.1588020000
C                  3.6675370000      1.0576470000      0.8923640000
C                  2.3421550000      1.4015420000      1.0553510000
C                  1.2907210000      0.6191190000      0.5073640000
C                 -0.0762560000      1.0215640000      0.7223960000
O                 -0.3329660000      2.0869380000      1.4396040000
C                 -1.0799200000      0.1912600000      0.1175630000
H                 -1.9606400000      1.9929090000      1.5654430000
H                 -3.7024870000      1.8667740000      1.2271670000
H                 -3.8975700000     -1.6562600000     -1.9052860000
H                  3.2227780000     -1.7960000000     -0.9365210000
H                  5.0518040000     -0.3857370000      0.0216340000
H                  4.4511670000      1.6767960000      1.3259740000
H                  2.0485640000      2.2839870000      1.6137350000
$end

$rem
BASIS  =  6-311++G(d,p)
GUI  =  2
JOB_TYPE  =  SP
METHOD  =  B3LYP
SCF_CONVERGENCE  = 8
SOLVENT_METHOD = sm12
$end

$smx
solvent dimethylformamide
charges CM5
$end

--------------------------------------------------------------

             Standard Nuclear Orientation (Angstroms)
    I     Atom           X                Y                Z
 ----------------------------------------------------------------
    1      N      -2.8040160000     1.4205720000     1.3358690000
    2      C      -2.4845300000     0.4919310000     0.3653500000
    3      C      -3.4370140000    -0.1999440000    -0.3579800000
    4      Br     -5.3455770000     0.1262890000    -0.0090360000
    5      C      -3.1255950000    -1.2206660000    -1.2871560000
    6      C      -1.8132300000    -1.5843930000    -1.4266060000
    7      Br     -1.5430770000    -2.8851680000    -2.8835690000
    8      C      -0.7310170000    -0.9711050000    -0.7229610000
    9      C       0.6349420000    -1.4424640000    -0.8219490000
   10      O       0.9787740000    -2.5283430000    -1.3923780000
   11      C       1.6344010000    -0.5640060000    -0.2287430000
   12      C       3.0034030000    -0.8926230000    -0.3764350000
   13      C       4.0076500000    -0.1106200000     0.1588020000
   14      C       3.6675370000     1.0576470000     0.8923640000
   15      C       2.3421550000     1.4015420000     1.0553510000
   16      C       1.2907210000     0.6191190000     0.5073640000
   17      C      -0.0762560000     1.0215640000     0.7223960000
   18      O      -0.3329660000     2.0869380000     1.4396040000
   19      C      -1.0799200000     0.1912600000     0.1175630000
   20      H      -1.9606400000     1.9929090000     1.5654430000
   21      H      -3.7024870000     1.8667740000     1.2271670000
   22      H      -3.8975700000    -1.6562600000    -1.9052860000
   23      H       3.2227780000    -1.7960000000    -0.9365210000
   24      H       5.0518040000    -0.3857370000     0.0216340000
   25      H       4.4511670000     1.6767960000     1.3259740000
   26      H       2.0485640000     2.2839870000     1.6137350000
 ----------------------------------------------------------------

   18   -5891.3950453294      7.17e-09  Convergence criterion met
 Total energy in the final basis set =    -5891.6559169656

                    Orbital Energies (a.u.)
 --------------------------------------------------------------

 Alpha MOs
 -- Occupied --
********-482.8052 -62.4784 -62.4575 -56.2987 -56.2952 -56.2951 -56.2780
-56.2743 -56.2740 -19.0368 -19.0280 -14.2976 -10.2156 -10.2105 -10.2048
-10.1947 -10.1937 -10.1753 -10.1737 -10.1728 -10.1692 -10.1692 -10.1663
-10.1647 -10.1577 -10.1561  -8.6866  -8.6657  -6.5170  -6.5055  -6.5051
 -6.4968  -6.4846  -6.4837  -2.6280  -2.6248  -2.6244  -2.6154  -2.6153
 -2.6076  -2.6044  -2.6038  -2.5940  -2.5939  -0.9570  -0.9525  -0.9077
 -0.8482  -0.8433  -0.7996  -0.7801  -0.7506  -0.7442  -0.7201  -0.7003
 -0.6539  -0.6249  -0.6128  -0.5707  -0.5456  -0.5402  -0.5072  -0.4968
 -0.4683  -0.4564  -0.4432  -0.4359  -0.4286  -0.4199  -0.4068  -0.3992
 -0.3787  -0.3766  -0.3757  -0.3696  -0.3511  -0.3459  -0.3385  -0.3310
 -0.3241  -0.3116  -0.2976  -0.2887  -0.2685  -0.2650  -0.2486  -0.2387
 -0.2312  -0.2186  -0.1991  -0.1972  -0.1201

          Ground-State Mulliken Net Atomic Charges

     Atom                 Charge (a.u.)
  ----------------------------------------
      1 N                    -0.090181
      2 C                    -1.499353
      3 C                     4.902408
      4 Br                    0.552632
      5 C                     2.743742
      6 C                     0.380484
      7 Br                    0.251787
      8 C                    -0.212016
      9 C                    -3.571535
     10 O                    -0.173364
     11 C                    -1.586664
     12 C                    -0.224824
     13 C                     1.491682
     14 C                     1.498027
     15 C                    -0.020544
     16 C                    -1.821123
     17 C                    -2.685509
     18 O                    -0.299703
     19 C                    -3.480407
     20 H                     0.278600
     21 H                     0.310052
     22 H                     0.242774
     23 H                     0.097545
     24 H                     0.389310
     25 H                     0.392763
     26 H                     0.133418
  ----------------------------------------
  Sum of atomic charges =    -2.000000

                    Cartesian Multipole Moments
 -----------------------------------------------------------------
    Charge (ESU x 10^10)
                -9.6064
    Dipole Moment (Debye)
         X       1.9706      Y       4.2988      Z       2.1234
       Tot       5.1838
    Quadrupole Moments (Debye-Ang)
        XX    -196.0312     XY      -1.2479     YY    -182.9751
        XZ      -2.2339     YZ     -24.2347     ZZ    -169.6129

 Total job time:  812.28s(wall), 6145.40s(cpu)
        *  Thank you very much for using Q-Chem.  Have a nice day.  *
