 Q-Chem 5.4, Q-Chem, Inc., Pleasanton, CA (2021)
 Q-Chem 5.4.0 for Intel X86 EM64T Linux

User input:
--------------------------------------------------------------
$molecule
0 1
C                  2.6085190000      1.5507490000     -0.2055610000
O                  2.4800860000      0.1869900000      0.2459400000
C                  1.3056980000     -0.4678890000      0.1702680000
C                  1.3007130000     -1.7961580000     -0.0556810000
C                  0.0498420000     -2.5720240000     -0.0839380000
O                  0.0635210000     -3.7779040000     -0.2994540000
C                 -1.2207590000     -1.8547440000      0.1120930000
C                 -1.2574670000     -0.5273810000      0.3407540000
O                 -2.4409350000      0.0721190000      0.5727130000
C                 -2.6908740000      1.4281260000      0.1497110000
C                  0.0232540000      0.2464870000      0.5026690000
O                  0.0259140000      1.3837700000      0.9362520000
H                  3.6727150000      1.6831770000     -0.3941850000
H                  2.0536190000      1.7064160000     -1.1339080000
H                  2.2643630000      2.2484420000      0.5545140000
H                  2.2239370000     -2.3348980000     -0.2293610000
H                 -2.1329030000     -2.4361850000      0.0604250000
H                 -2.2755810000      1.6072610000     -0.8450190000
H                 -3.7757260000      1.5118390000      0.1087290000
H                 -2.2779360000      2.1418060000      0.8589420000
$end
$rem
MAX_SCF_CYCLES=200
BASIS  =  6-311++G(d,p)
GUI  =  2
JOB_TYPE  =  SP
METHOD  =  B3LYP
SOLVENT_METHOD = COSMO
$end
$solvent
dielectric 37.219
opticaldielectric 1.43
$end

--------------------------------------------------------------

             Standard Nuclear Orientation (Angstroms)
    I     Atom           X                Y                Z
 ----------------------------------------------------------------
    1      C       2.6536506400    -1.8577945950     0.4089105234
    2      O       2.4656444946    -0.5504024484    -0.1703702919
    3      C       1.2849061296     0.0913288103    -0.0819517655
    4      C       1.2660123163     1.4356679357     0.0062053498
    5      C       0.0031754333     2.1916565859     0.0403950323
    6      O       0.0048751936     3.4134751391     0.1294869477
    7      C      -1.2617117845     1.4391468850     0.0067033621
    8      C      -1.2846088339     0.0948093633    -0.0813773788
    9      O      -2.4675458087    -0.5430149926    -0.1687955654
   10      C      -2.6590488377    -1.8512641246     0.4073693225
   11      C      -0.0009557978    -0.6726423037    -0.2504550240
   12      O      -0.0024019638    -1.8486663020    -0.5641098976
   13      H       3.7306960136    -1.9541239291     0.5366729493
   14      H       2.1654493454    -1.9243297960     1.3842089087
   15      H       2.2748671797    -2.6357293913    -0.2500837278
   16      H       2.1867856034     2.0031562572     0.0598862857
   17      H      -2.1808512732     2.0092351486     0.0608500848
   18      H      -2.1745093265    -1.9198685170     1.3843853390
   19      H      -3.7366636443    -1.9463225538     0.5310684587
   20      H      -2.2788648154    -2.6285997283    -0.2514743722
 ----------------------------------------------------------------

   10    -610.6707392334      3.74e-06  Convergence criterion met
 Total energy in the final basis set =     -610.6707392334
    5    -610.6864518829      5.55e-06  Convergence criterion met
 Total energy in the final basis set =     -610.6864518829

                    Orbital Energies (a.u.)
 --------------------------------------------------------------

 Alpha MOs
 -- Occupied --
-19.1773 -19.1772 -19.1582 -19.1344 -10.3060 -10.2844 -10.2749 -10.2749
-10.2243 -10.2243 -10.1983 -10.1982  -1.1083  -1.0913  -1.0737  -1.0653
 -0.8619  -0.7991  -0.7351  -0.7073  -0.7036  -0.6298  -0.6050  -0.5512
 -0.5399  -0.5187  -0.5120  -0.4945  -0.4792  -0.4711  -0.4617  -0.4411
 -0.4392  -0.4251  -0.4237  -0.4217  -0.3793  -0.3778  -0.3583  -0.3456
 -0.2902  -0.2871  -0.2843  -0.2576

          Ground-State Mulliken Net Atomic Charges

     Atom                 Charge (a.u.)
  ----------------------------------------
      1 C                    -0.348931
      2 O                    -0.193013
      3 C                    -0.086281
      4 C                     0.233998
      5 C                    -0.377664
      6 O                    -0.358833
      7 C                     0.227806
      8 C                    -0.081127
      9 O                    -0.193631
     10 C                    -0.348820
     11 C                     0.114839
     12 O                    -0.252788
     13 H                     0.178287
     14 H                     0.184760
     15 H                     0.194922
     16 H                     0.274131
     17 H                     0.274096
     18 H                     0.185083
     19 H                     0.178295
     20 H                     0.194870
  ----------------------------------------
  Sum of atomic charges =     0.000000

                    Cartesian Multipole Moments
 -----------------------------------------------------------------
    Charge (ESU x 10^10)
                -0.0000
    Dipole Moment (Debye)
         X      -0.0078      Y      -5.5778      Z       2.3409
       Tot       6.0491
    Quadrupole Moments (Debye-Ang)
        XX     -62.3799     XY      -0.0195     YY     -84.0434
        XZ       0.0087     YZ      -5.3467     ZZ     -69.0603

 Total job time:  64.17s(wall), 165.37s(cpu)
        *  Thank you very much for using Q-Chem.  Have a nice day.  *
