 Q-Chem 5.4, Q-Chem, Inc., Pleasanton, CA (2021)
 Q-Chem 5.4.0 for Intel X86 EM64T Linux

User input:
--------------------------------------------------------------
$molecule
0 1
C                  4.9029970000     -2.8623300000     -0.3630670000
C                  5.6242480000     -1.9593240000     -1.1344150000
C                  5.0332520000     -0.7631140000     -1.5522490000
C                  3.5821630000     -2.5776760000     -0.0015730000
C                  2.9874270000     -1.3738800000     -0.4220410000
C                  3.7217120000     -0.4713050000     -1.1982320000
C                  2.8258940000     -3.5522360000      0.8221110000
C                  1.4474290000     -3.2304490000      1.1860720000
C                  0.8433200000     -2.0076170000      0.7590090000
C                  1.5884370000     -1.0473370000     -0.0526500000
C                  0.7096640000     -4.1371010000      1.9658330000
C                 -0.6241450000     -3.8250770000      2.3177490000
C                 -0.4835350000     -1.7216860000      1.1223230000
C                 -1.2040090000     -2.6512800000      1.9078190000
O                  3.3609220000     -4.6119130000      1.1879220000
O                  1.0732700000      0.0183050000     -0.4294500000
O                  1.2072560000     -5.2999230000      2.4018010000
H                  5.3415860000     -3.7941920000     -0.0291290000
H                  6.6476550000     -2.1836850000     -1.4124840000
H                  5.5989310000     -0.0609540000     -2.1539160000
H                  3.2452170000      0.4491570000     -1.5111740000
H                  2.1378360000     -5.3571370000      2.0691330000
O                 -1.1148320000     -0.5990540000      0.7603470000
H                 -2.2252320000     -2.4069470000      2.1743360000
H                 -1.1710960000     -4.5408630000      2.9195170000
H                 -0.4740780000     -0.0693730000      0.2229680000
$end
$rem
MAX_SCF_CYCLES=200
BASIS  =  6-311++G(d,p)
GUI  =  2
JOB_TYPE  =  SP
METHOD  =  B3LYP
SOLVENT_METHOD = COSMO
$end
$solvent
dielectric 37.219
opticaldielectric 1.43
$end

--------------------------------------------------------------

             Standard Nuclear Orientation (Angstroms)
    I     Atom           X                Y                Z
 ----------------------------------------------------------------
    1      C       2.7992977540    -1.3972811537     0.0000916210
    2      C       4.0005570497    -0.6990142405     0.0000696040
    3      C       4.0005177228     0.6991201882    -0.0000036688
    4      C       1.5848208560    -0.7034842611     0.0000322261
    5      C       1.5847805886     0.7035086505    -0.0000258232
    6      C       2.7992268310     1.3973450034    -0.0000359836
    7      C       0.3112166182    -1.4638115344    -0.0000605995
    8      C      -0.9437317790    -0.7146221329    -0.0000448621
    9      C      -0.9437711131     0.7145904435    -0.0000486293
   10      C       0.3111323188     1.4638198675    -0.0000168718
   11      C      -2.1638317581    -1.4115427184    -0.0000345310
   12      C      -3.3778381535    -0.6859817234     0.0000674260
   13      C      -2.1638700505     1.4114809427     0.0000255443
   14      C      -3.3778622924     0.6859090375     0.0000770968
   15      O       0.3229999692    -2.7059263069     0.0001327461
   16      O       0.3228180669     2.7059275749    -0.0002079586
   17      O      -2.2428226921    -2.7470506047    -0.0001655771
   18      H       2.7769265025    -2.4797511130     0.0000853940
   19      H       4.9396407340    -1.2404419351     0.0000822682
   20      H       4.9395771714     1.2405921889    -0.0000108675
   21      H       2.7767911997     2.4798084513    -0.0000220716
   22      H      -1.3141873634    -3.0899164253    -0.0003437140
   23      O      -2.2428888586     2.7470037428     0.0001376687
   24      H      -4.3046066584     1.2469537888     0.0001723797
   25      H      -4.3045652467    -1.2470580229     0.0000978835
   26      H      -1.3142957770     3.0899596053     0.0002084010
 ----------------------------------------------------------------

    9    -839.4713491214      6.38e-06  Convergence criterion met
 Total energy in the final basis set =     -839.4713491214
    5    -839.4858286378      2.36e-06  Convergence criterion met
 Total energy in the final basis set =     -839.4858286378

                    Orbital Energies (a.u.)
 --------------------------------------------------------------

 Alpha MOs
 -- Occupied --
-19.1667 -19.1666 -19.1394 -19.1394 -10.2891 -10.2891 -10.2688 -10.2688
-10.2111 -10.2110 -10.2107 -10.2105 -10.2042 -10.2035 -10.1983 -10.1982
-10.1978 -10.1974  -1.0956  -1.0940  -1.0629  -1.0616  -0.8965  -0.8797
 -0.8195  -0.7819  -0.7767  -0.7672  -0.7038  -0.6725  -0.6626  -0.6339
 -0.6053  -0.5732  -0.5625  -0.5569  -0.5425  -0.5055  -0.4945  -0.4896
 -0.4720  -0.4691  -0.4552  -0.4527  -0.4517  -0.4395  -0.4381  -0.4334
 -0.4293  -0.4064  -0.3913  -0.3896  -0.3831  -0.3795  -0.3691  -0.3364
 -0.3001  -0.2961  -0.2840  -0.2806  -0.2798  -0.2362

          Ground-State Mulliken Net Atomic Charges

     Atom                 Charge (a.u.)
  ----------------------------------------
      1 C                     0.094187
      2 C                    -0.442455
      3 C                    -0.442210
      4 C                     0.032642
      5 C                     0.034032
      6 C                     0.094565
      7 C                    -0.260559
      8 C                     0.632130
      9 C                     0.631497
     10 C                    -0.260743
     11 C                    -0.314879
     12 C                    -0.099937
     13 C                    -0.315959
     14 C                    -0.099418
     15 O                    -0.351905
     16 O                    -0.351869
     17 O                    -0.333390
     18 H                     0.205201
     19 H                     0.227541
     20 H                     0.227596
     21 H                     0.205201
     22 H                     0.359581
     23 O                    -0.333419
     24 H                     0.251492
     25 H                     0.251483
     26 H                     0.359594
  ----------------------------------------
  Sum of atomic charges =     0.000000

                    Cartesian Multipole Moments
 -----------------------------------------------------------------
    Charge (ESU x 10^10)
                 0.0000
    Dipole Moment (Debye)
         X       2.6839      Y      -0.0006      Z      -0.0000
       Tot       2.6839
    Quadrupole Moments (Debye-Ang)
        XX     -76.7905     XY       0.0003     YY    -119.0911
        XZ      -0.0009     YZ       0.0037     ZZ    -104.9950

 Total job time:  65.36s(wall), 493.83s(cpu)
        *  Thank you very much for using Q-Chem.  Have a nice day.  *
