 Gaussian 16, Revision A.03,
 Gaussian 16:  ES64L-G16RevA.03 25-Dec-2016

 --------------------------------------
 #P UB3LYP/6-311++G(d,p) nosym opt freq
 --------------------------------------

 --------
 Oxidized
 --------
 Symbolic Z-matrix:
 Charge =  0 Multiplicity = 1

 SCF Done:  E(UB3LYP) =  -839.471277721     A.U. after   15 cycles
 Optimization completed.
    -- Stationary point found.
 Normal termination of Gaussian 16 at Sun Jan  7 04:58:55 2024.

 ----------------------------------------------------------------------
 #P Geom=AllCheck Guess=TCheck SCRF=Check GenChk UB3LYP/6-311++G(d,p) F
 req
 ----------------------------------------------------------------------

 Structure from the checkpoint file:  "185.chk"
 --------
 Oxidized
 --------
 Charge =  0 Multiplicity = 1

                          Input orientation:
 ---------------------------------------------------------------------
 Center     Atomic      Atomic             Coordinates (Angstroms)
 Number     Number       Type             X           Y           Z
 ---------------------------------------------------------------------
      1          6           0        4.902997   -2.862330   -0.363067
      2          6           0        5.624248   -1.959324   -1.134415
      3          6           0        5.033252   -0.763114   -1.552249
      4          6           0        3.582163   -2.577676   -0.001573
      5          6           0        2.987427   -1.373880   -0.422041
      6          6           0        3.721712   -0.471305   -1.198232
      7          6           0        2.825894   -3.552236    0.822111
      8          6           0        1.447429   -3.230449    1.186072
      9          6           0        0.843320   -2.007617    0.759009
     10          6           0        1.588437   -1.047337   -0.052650
     11          6           0        0.709664   -4.137101    1.965833
     12          6           0       -0.624145   -3.825077    2.317749
     13          6           0       -0.483535   -1.721686    1.122323
     14          6           0       -1.204009   -2.651280    1.907819
     15          8           0        3.360922   -4.611913    1.187922
     16          8           0        1.073270    0.018305   -0.429450
     17          8           0        1.207256   -5.299923    2.401801
     18          1           0        5.341586   -3.794192   -0.029129
     19          1           0        6.647655   -2.183685   -1.412484
     20          1           0        5.598931   -0.060954   -2.153916
     21          1           0        3.245217    0.449157   -1.511174
     22          1           0        2.137836   -5.357137    2.069133
     23          8           0       -1.114832   -0.599054    0.760347
     24          1           0       -2.225232   -2.406947    2.174336
     25          1           0       -1.171096   -4.540863    2.919517
     26          1           0       -0.474078   -0.069373    0.222968
 ---------------------------------------------------------------------

 SCF Done:  E(UB3LYP) =  -839.471277721     A.U. after    1 cycles

 Alpha  occ. eigenvalues --  -19.16382 -19.16381 -19.13922 -19.13921 -10.28973
 Alpha  occ. eigenvalues --  -10.28972 -10.27070 -10.27069 -10.21752 -10.21702
 Alpha  occ. eigenvalues --  -10.21333 -10.21291 -10.20990 -10.20940 -10.20926
 Alpha  occ. eigenvalues --  -10.20887 -10.20650 -10.20650  -1.09387  -1.09216
 Alpha  occ. eigenvalues --   -1.06181  -1.06047  -0.90214  -0.88458  -0.82527
 Alpha  occ. eigenvalues --   -0.78890  -0.78359  -0.76971  -0.70706  -0.67894
 Alpha  occ. eigenvalues --   -0.66832  -0.63570  -0.61144  -0.57876  -0.56743
 Alpha  occ. eigenvalues --   -0.55799  -0.54314  -0.51016  -0.50123  -0.49616
 Alpha  occ. eigenvalues --   -0.47381  -0.46673  -0.46107  -0.46033  -0.45535
 Alpha  occ. eigenvalues --   -0.44499  -0.43739  -0.43321  -0.43102  -0.40467
 Alpha  occ. eigenvalues --   -0.39646  -0.39052  -0.38803  -0.38461  -0.37647
 Alpha  occ. eigenvalues --   -0.33563  -0.29967  -0.29917  -0.28741  -0.28692
 Alpha  occ. eigenvalues --   -0.28375  -0.23634
 Alpha virt. eigenvalues --   -0.12720  -0.07695  -0.04763  -0.02075  -0.01239
 Alpha virt. eigenvalues --   -0.00206   0.00783   0.00943   0.01925   0.02530
 Alpha virt. eigenvalues --    0.03380   0.03577   0.03828   0.03942   0.03962

  Beta  occ. eigenvalues --  -19.16382 -19.16381 -19.13922 -19.13921 -10.28973
  Beta  occ. eigenvalues --  -10.28972 -10.27070 -10.27069 -10.21752 -10.21702
  Beta  occ. eigenvalues --  -10.21333 -10.21291 -10.20990 -10.20940 -10.20926
  Beta  occ. eigenvalues --  -10.20887 -10.20650 -10.20650  -1.09387  -1.09216
  Beta  occ. eigenvalues --   -1.06181  -1.06047  -0.90214  -0.88458  -0.82527
  Beta  occ. eigenvalues --   -0.78890  -0.78359  -0.76971  -0.70706  -0.67894
  Beta  occ. eigenvalues --   -0.66832  -0.63570  -0.61144  -0.57876  -0.56743
  Beta  occ. eigenvalues --   -0.55799  -0.54314  -0.51016  -0.50123  -0.49616
  Beta  occ. eigenvalues --   -0.47381  -0.46673  -0.46107  -0.46033  -0.45535
  Beta  occ. eigenvalues --   -0.44499  -0.43739  -0.43321  -0.43102  -0.40467
  Beta  occ. eigenvalues --   -0.39646  -0.39052  -0.38803  -0.38461  -0.37647
  Beta  occ. eigenvalues --   -0.33563  -0.29967  -0.29917  -0.28741  -0.28692
  Beta  occ. eigenvalues --   -0.28375  -0.23634
  Beta virt. eigenvalues --   -0.12720  -0.07695  -0.04763  -0.02075  -0.01239
  Beta virt. eigenvalues --   -0.00206   0.00783   0.00943   0.01925   0.02530
  Beta virt. eigenvalues --    0.03380   0.03577   0.03828   0.03942   0.03962

 Mulliken charges and spin densities:
               1          2
     1  C    0.103757   0.000000
     2  C   -0.392670  -0.000000
     3  C   -0.392658   0.000000
     4  C    0.080064   0.000000
     5  C    0.080062  -0.000000
     6  C    0.103813  -0.000000
     7  C   -0.327058  -0.000000
     8  C    0.582745  -0.000000
     9  C    0.582914  -0.000000
    10  C   -0.327095  -0.000000
    11  C   -0.390541   0.000000
    12  C    0.002126  -0.000000
    13  C   -0.390618   0.000000
    14  C    0.002114  -0.000000
    15  O   -0.290107   0.000000
    16  O   -0.290105   0.000000
    17  O   -0.276213  -0.000000
    18  H    0.188469   0.000000
    19  H    0.178607  -0.000000
    20  H    0.178606   0.000000
    21  H    0.188464   0.000000
    22  H    0.329870  -0.000000
    23  O   -0.276221  -0.000000
    24  H    0.210900  -0.000000
    25  H    0.210901  -0.000000
    26  H    0.329872   0.000000
 Sum of Mulliken charges =  -0.00000   0.00000

 Dipole moment (field-independent basis, Debye):
    X=              1.7164    Y=              0.5162    Z=             -0.9502  Tot=              2.0286
 Quadrupole moment (field-independent basis, Debye-Ang):
   XX=            -84.4732   YY=           -113.7084   ZZ=           -102.0981
   XY=              5.4515   XZ=            -10.9585   YZ=              2.6182

  Exact polarizability: 247.339   0.765 181.557 -64.745 -53.932 137.175
 Approx polarizability: 408.266 -22.628 339.780 -94.987-102.927 226.574

                      1                      2                      3
                      A                      A                      A
 Frequencies --     52.8573                89.9691               137.2391
 Red. masses --      6.6418                 5.8934                 7.0230
 Frc consts  --      0.0109                 0.0281                 0.0779
 IR Inten    --      2.8535                 0.0000                 0.0000

                      4                      5                      6
                      A                      A                      A
 Frequencies --    152.2776               176.2346               209.2151
 Red. masses --      7.3726                 7.1120                 5.5515
 Frc consts  --      0.1007                 0.1301                 0.1432
 IR Inten    --      0.9262                 0.0707                 0.1223

                      7                      8                      9
                      A                      A                      A
 Frequencies --    232.5944               318.6738               335.8886
 Red. masses --      6.4532                 6.7777                 6.4112
 Frc consts  --      0.2057                 0.4055                 0.4262
 IR Inten    --      0.5599                 0.4230                 4.1647

                     10                     11                     12
                      A                      A                      A
 Frequencies --    366.1297               398.4792               425.8440
 Red. masses --      5.7090                12.4006                 7.1192
 Frc consts  --      0.4509                 1.1601                 0.7607
 IR Inten    --      0.0000                 0.4665                14.1651

                     13                     14                     15
                      A                      A                      A
 Frequencies --    426.2990               427.4902               438.4210
 Red. masses --      3.3894                 6.1687                12.9315
 Frc consts  --      0.3629                 0.6642                 1.4645
 IR Inten    --      0.8394                 0.0005                 5.9168

                     16                     17                     18
                      A                      A                      A
 Frequencies --    466.6909               486.8098               512.9259
 Red. masses --      9.2396                 4.7569                 5.4969
 Frc consts  --      1.1857                 0.6642                 0.8521
 IR Inten    --     18.0651                 0.0000                15.0761

                     19                     20                     21
                      A                      A                      A
 Frequencies --    523.0528               580.3935               611.4706
 Red. masses --      9.8470                 3.3283                 5.6687
 Frc consts  --      1.5873                 0.6606                 1.2488
 IR Inten    --      0.3208                18.2140                 1.8409

                     22                     23                     24
                      A                      A                      A
 Frequencies --    666.8162               667.8470               703.0995
 Red. masses --      5.2830                 6.7244                 7.1443
 Frc consts  --      1.3840                 1.7671                 2.0808
 IR Inten    --      0.0029                 6.8463                 0.0000

                     25                     26                     27
                      A                      A                      A
 Frequencies --    711.2384               734.9749               768.3450
 Red. masses --      7.2245                 2.0865                 7.1413
 Frc consts  --      2.1532                 0.6641                 2.4839
 IR Inten    --     13.3840                21.5295                 3.5772

                     28                     29                     30
                      A                      A                      A
 Frequencies --    775.0978               808.2740               819.2333
 Red. masses --      5.9535                 1.4852                 1.0768
 Frc consts  --      2.1073                 0.5717                 0.4258
 IR Inten    --      0.0008               141.4338                 1.4834

                     31                     32                     33
                      A                      A                      A
 Frequencies --    823.3661               859.0374               888.0190
 Red. masses --      1.4060                 1.5256                 7.8307
 Frc consts  --      0.5616                 0.6633                 3.6383
 IR Inten    --    120.4354                 3.7178                27.7570

                     34                     35                     36
                      A                      A                      A
 Frequencies --    914.1093               916.0942               980.8828
 Red. masses --      1.3562                 7.5981                 1.2937
 Frc consts  --      0.6677                 3.7569                 0.7333
 IR Inten    --      0.0007                 4.1279                 0.0000

                     37                     38                     39
                      A                      A                      A
 Frequencies --    987.0981              1002.5595              1018.1675
 Red. masses --      5.6725                 1.3795                 1.3233
 Frc consts  --      3.2564                 0.8169                 0.8082
 IR Inten    --     19.1211                 1.5359                 0.0000

                     40                     41                     42
                      A                      A                      A
 Frequencies --   1048.6260              1090.7299              1114.3114
 Red. masses --      2.6749                 2.0503                 2.3369
 Frc consts  --      1.7330                 1.4371                 1.7096
 IR Inten    --     24.2245                24.2396                 2.6447

                     43                     44                     45
                      A                      A                      A
 Frequencies --   1170.4361              1184.2564              1186.5280
 Red. masses --      1.3952                 2.2696                 1.1715
 Frc consts  --      1.1261                 1.8754                 0.9717
 IR Inten    --     45.6693                 9.7729                36.8446

                     46                     47                     48
                      A                      A                      A
 Frequencies --   1252.1337              1253.1556              1297.2611
 Red. masses --      1.7547                 3.3786                 1.8804
 Frc consts  --      1.6209                 3.1261                 1.8645
 IR Inten    --     76.1214               426.2608               176.3113

                     49                     50                     51
                      A                      A                      A
 Frequencies --   1306.8187              1350.6895              1352.6295
 Red. masses --      5.7576                 2.8470                 5.5070
 Frc consts  --      5.7933                 3.0602                 5.9364
 IR Inten    --     30.1562                 6.6116               113.5348

                     52                     53                     54
                      A                      A                      A
 Frequencies --   1373.1092              1396.2776              1429.3339
 Red. masses --      3.8381                 2.6376                 7.9305
 Frc consts  --      4.2636                 3.0298                 9.5459
 IR Inten    --    308.3193               172.7271                38.6196

                     55                     56                     57
                      A                      A                      A
 Frequencies --   1486.2260              1487.6460              1503.0887
 Red. masses --      2.6336                 2.5184                 2.8574
 Frc consts  --      3.4275                 3.2837                 3.8036
 IR Inten    --     33.4460               245.2946                45.8698

                     58                     59                     60
                      A                      A                      A
 Frequencies --   1507.9426              1602.1196              1619.9970
 Red. masses --      2.8931                 4.6305                 4.5115
 Frc consts  --      3.8760                 7.0027                 6.9760
 IR Inten    --      9.0436                53.0288                87.0546

                     61                     62                     63
                      A                      A                      A
 Frequencies --   1620.8650              1625.9362              1665.1724
 Red. masses --      5.8759                 3.4092                 8.9509
 Frc consts  --      9.0953                 5.3101                14.6229
 IR Inten    --    190.2981                54.0638               290.0261

                     64                     65                     66
                      A                      A                      A
 Frequencies --   1683.7241              3172.2797              3186.5478
 Red. masses --      8.6099                 1.0872                 1.0921
 Frc consts  --     14.3811                 6.4462                 6.5337
 IR Inten    --      1.2379                 3.1028                11.0576

                     67                     68                     69
                      A                      A                      A
 Frequencies --   3188.4917              3202.3256              3203.3498
 Red. masses --      1.0882                 1.0960                 1.0925
 Frc consts  --      6.5180                 6.6220                 6.6054
 IR Inten    --      1.2878                 2.3360                 0.0585

                     70                     71                     72
                      A                      A                      A
 Frequencies --   3205.6776              3296.0124              3298.2979
 Red. masses --      1.0947                 1.0688                 1.0678
 Frc consts  --      6.6283                 6.8411                 6.8442
 IR Inten    --      9.1740               253.5200                35.8120

 - Thermochemistry -
 -------------------
 Temperature   298.150 Kelvin.  Pressure   1.00000 Atm.
 Atom     1 has atomic number  6 and mass  12.00000

 Molecular mass:   240.04226 amu.
 Principal axes and moments of inertia in atomic units:
                           1         2         3
     Eigenvalues --  2523.901784685.570017209.47177
           X            0.84610  -0.42266   0.32475
           Y            0.25438   0.85561   0.45081
           Z           -0.46840  -0.29882   0.83145
 This molecule is an asymmetric top.
 Rotational symmetry number  1.
 Warning -- assumption of classical behavior for rotation
           may cause significant error
 Rotational temperatures (Kelvin)      0.03432     0.01849     0.01201
 Rotational constants (GHZ):           0.71506     0.38517     0.25033
 Zero-point vibrational energy     495105.7 (Joules/Mol)
                                  118.33311 (Kcal/Mol)
 Warning -- explicit consideration of  21 degrees of freedom as
           vibrations may cause significant error
 Vibrational temperatures:     76.05   129.45   197.46   219.09   253.56
          (Kelvin)            301.01   334.65   458.50   483.27   526.78
                              573.32   612.69   613.35   615.06   630.79
                              671.46   700.41   737.99   752.56   835.06
                              879.77   959.40   960.88  1011.60  1023.31
                             1057.46  1105.48  1115.19  1162.93  1178.69
                             1184.64  1235.96  1277.66  1315.20  1318.06
                             1411.27  1420.21  1442.46  1464.92  1508.74
                             1569.32  1603.25  1684.00  1703.88  1707.15
                             1801.54  1803.01  1866.47  1880.22  1943.34
                             1946.13  1975.60  2008.93  2056.49  2138.35
                             2140.39  2162.61  2169.59  2305.09  2330.81
                             2332.06  2339.36  2395.81  2422.50  4564.20
                             4584.73  4587.53  4607.43  4608.91  4612.26
                             4742.23  4745.52

 Zero-point correction=                           0.188576 (Hartree/Particle)
 Thermal correction to Energy=                    0.201339
 Thermal correction to Enthalpy=                  0.202283
 Thermal correction to Gibbs Free Energy=         0.149494
 Sum of electronic and zero-point Energies=           -839.282702
 Sum of electronic and thermal Energies=              -839.269939
 Sum of electronic and thermal Enthalpies=            -839.268994
 Sum of electronic and thermal Free Energies=         -839.321784

                     E (Thermal)             CV                S
                      KCal/Mol        Cal/Mol-Kelvin    Cal/Mol-Kelvin
 Total                  126.342             52.518            111.104
 Electronic               0.000              0.000              0.000
 Translational            0.889              2.981             42.328
 Rotational               0.889              2.981             32.811
 Vibrational            124.565             46.556             35.966
 Vibration     1          0.596              1.976              4.708
 Vibration     2          0.602              1.956              3.661
 Vibration     3          0.614              1.916              2.842
 Vibration     4          0.619              1.900              2.644
 Vibration     5          0.628              1.872              2.368
 Vibration     6          0.642              1.827              2.051
 Vibration     7          0.653              1.791              1.859
 Vibration     8          0.705              1.638              1.317
 Vibration     9          0.717              1.604              1.232
 Vibration    10          0.739              1.542              1.096
 Vibration    11          0.765              1.473              0.968
 Vibration    12          0.788              1.414              0.872
 Vibration    13          0.788              1.413              0.871
 Vibration    14          0.789              1.410              0.867
 Vibration    15          0.799              1.386              0.832
 Vibration    16          0.824              1.324              0.747
 Vibration    17          0.843              1.279              0.692
 Vibration    18          0.868              1.221              0.627
 Vibration    19          0.878              1.199              0.603
 Vibration    20          0.937              1.074              0.485
 Vibration    21          0.971              1.008              0.430

 Optimization completed.
    -- Stationary point found.
 Normal termination of Gaussian 16 at Sun Jan  7 05:27:52 2024.
