 Gaussian 16, Revision A.03,
 Gaussian 16:  ES64L-G16RevA.03 25-Dec-2016

 ----------------------------------------------------------------
 #P UB3LYP/6-311++G(d,p) SCRF=(PCM,Solvent=n,n-DiMethylFormamide)
 ----------------------------------------------------------------

 -------
 Reduced
 -------
 Symbolic Z-matrix:
 Charge = -2 Multiplicity = 1

                         Standard orientation:
 ---------------------------------------------------------------------
 Center     Atomic      Atomic             Coordinates (Angstroms)
 Number     Number       Type             X           Y           Z
 ---------------------------------------------------------------------
      1          6           0       -2.722747    2.287188   -0.724129
      2          8           0       -2.425355    1.315309    0.263435
      3          6           0       -1.179547    0.702244    0.096509
      4          6           0       -1.179305   -0.702738   -0.097239
      5          8           0       -2.424765   -1.316305   -0.264586
      6          6           0       -2.723149   -2.286254    0.724607
      7          6           0        0.000113   -1.491930   -0.194340
      8          8           0       -0.006041   -2.774758   -0.378697
      9          6           0        1.226320   -0.718591   -0.086495
     10          6           0        2.473970   -1.380320   -0.178139
     11          6           0        3.677580   -0.703718   -0.093035
     12          6           0        3.677354    0.704435    0.092822
     13          6           0        2.473559    1.380647    0.178146
     14          6           0        1.226123    0.718525    0.086638
     15          6           0       -0.000291    1.491577    0.194601
     16          8           0       -0.006652    2.774270    0.379641
     17          1           0       -1.941554    3.053907   -0.750621
     18          1           0       -2.826573    1.817330   -1.716588
     19          1           0       -3.686066    2.736071   -0.447406
     20          1           0       -1.941890   -3.052784    0.753485
     21          1           0       -3.685987   -2.735983    0.447612
     22          1           0       -2.828224   -1.814394    1.715948
     23          1           0        2.437556   -2.456731   -0.319379
     24          1           0        4.619426   -1.246483   -0.165141
     25          1           0        4.619056    1.247494    0.164688
     26          1           0        2.436869    2.457052    0.319370
 ---------------------------------------------------------------------

 SCF Done:  E(UB3LYP) =  -764.613447180     A.U. after   17 cycles

 The electronic state is 1-A.
 Alpha  occ. eigenvalues --  -19.11020 -19.11017 -19.01460 -19.01459 -10.18917
 Alpha  occ. eigenvalues --  -10.18915 -10.17356 -10.17312 -10.16898 -10.16897
 Alpha  occ. eigenvalues --  -10.14816 -10.14771 -10.14409 -10.14408 -10.13658
 Alpha  occ. eigenvalues --  -10.13621  -1.02974  -1.01202  -0.92775  -0.92481
 Alpha  occ. eigenvalues --   -0.82307  -0.76426  -0.72102  -0.71126  -0.67962
 Alpha  occ. eigenvalues --   -0.64956  -0.63012  -0.57431  -0.56992  -0.52923
 Alpha  occ. eigenvalues --   -0.49260  -0.49108  -0.46768  -0.44154  -0.43418
 Alpha  occ. eigenvalues --   -0.43254  -0.42452  -0.41229  -0.41108  -0.39489
 Alpha  occ. eigenvalues --   -0.38828  -0.36671  -0.35962  -0.35452  -0.33785
 Alpha  occ. eigenvalues --   -0.32516  -0.32383  -0.31552  -0.30575  -0.30428
 Alpha  occ. eigenvalues --   -0.26170  -0.25610  -0.22707  -0.22088  -0.19622
 Alpha  occ. eigenvalues --   -0.19340  -0.19191  -0.11103
 Alpha virt. eigenvalues --   -0.00434  -0.00068   0.00772   0.01383   0.01755
 Alpha virt. eigenvalues --    0.02323   0.02985   0.03189   0.03770   0.04719
 Alpha virt. eigenvalues --    0.04782   0.05815   0.06261   0.06666   0.07086

  Beta  occ. eigenvalues --  -19.11020 -19.11017 -19.01460 -19.01459 -10.18917
  Beta  occ. eigenvalues --  -10.18915 -10.17356 -10.17312 -10.16898 -10.16897
  Beta  occ. eigenvalues --  -10.14816 -10.14771 -10.14409 -10.14408 -10.13658
  Beta  occ. eigenvalues --  -10.13621  -1.02974  -1.01202  -0.92775  -0.92481
  Beta  occ. eigenvalues --   -0.82307  -0.76426  -0.72102  -0.71126  -0.67962
  Beta  occ. eigenvalues --   -0.64956  -0.63012  -0.57431  -0.56992  -0.52923
  Beta  occ. eigenvalues --   -0.49260  -0.49108  -0.46768  -0.44154  -0.43418
  Beta  occ. eigenvalues --   -0.43254  -0.42452  -0.41229  -0.41108  -0.39489
  Beta  occ. eigenvalues --   -0.38828  -0.36671  -0.35962  -0.35452  -0.33785
  Beta  occ. eigenvalues --   -0.32516  -0.32383  -0.31552  -0.30575  -0.30428
  Beta  occ. eigenvalues --   -0.26170  -0.25610  -0.22707  -0.22088  -0.19622
  Beta  occ. eigenvalues --   -0.19340  -0.19191  -0.11103
  Beta virt. eigenvalues --   -0.00434  -0.00068   0.00772   0.01383   0.01755
  Beta virt. eigenvalues --    0.02323   0.02985   0.03189   0.03770   0.04719
  Beta virt. eigenvalues --    0.04782   0.05815   0.06261   0.06666   0.07086

 Mulliken charges and spin densities:
               1          2
     1  C   -0.246202   0.000000
     2  O   -0.213150   0.000000
     3  C    0.008382  -0.000000
     4  C    0.011387   0.000000
     5  O   -0.213106   0.000000
     6  C   -0.246280   0.000000
     7  C   -0.678938   0.000000
     8  O   -0.685659  -0.000000
     9  C    0.514999   0.000000
    10  C    0.030833  -0.000000
    11  C   -0.454222  -0.000000
    12  C   -0.454092  -0.000000
    13  C    0.031078  -0.000000
    14  C    0.515972  -0.000000
    15  C   -0.679194   0.000000
    16  O   -0.685571  -0.000000
    17  H    0.169848  -0.000000
    18  H    0.113916  -0.000000
    19  H    0.136825   0.000000
    20  H    0.169746  -0.000000
    21  H    0.136892  -0.000000
    22  H    0.113974   0.000000
    23  H    0.142481  -0.000000
    24  H    0.158793   0.000000
    25  H    0.158790   0.000000
    26  H    0.142497   0.000000
 Sum of Mulliken charges =  -2.00000   0.00000

 Dipole moment (field-independent basis, Debye):
    X=             -0.2005    Y=              0.0055    Z=              0.0003  Tot=              0.2006
 Quadrupole moment (field-independent basis, Debye-Ang):
   XX=           -119.9558   YY=           -153.8449   ZZ=           -106.1073
   XY=              0.0012   XZ=             -0.0086   YZ=            -12.0287

 Normal termination of Gaussian 16 at Sun Jan 21 08:53:28 2024.
