 Gaussian 16, Revision A.03,
 Gaussian 16:  ES64L-G16RevA.03 25-Dec-2016

 --------------------------------------
 #P UB3LYP/6-311++G(d,p) nosym opt freq
 --------------------------------------

 -------
 Radical
 -------
 Symbolic Z-matrix:
 Charge = -1 Multiplicity = 2

 SCF Done:  E(UB3LYP) =  -610.553834113     A.U. after   24 cycles
 SCF Done:  E(UB3LYP) =  -610.568079263     A.U. after   19 cycles
 SCF Done:  E(UB3LYP) =  -610.569260915     A.U. after   17 cycles
 SCF Done:  E(UB3LYP) =  -610.569329498     A.U. after   16 cycles
 SCF Done:  E(UB3LYP) =  -610.569335725     A.U. after   13 cycles
 Optimization completed.
    -- Stationary point found.
 Normal termination of Gaussian 16 at Sat Jan  6 01:53:27 2024.

 ----------------------------------------------------------------------
 #P Geom=AllCheck Guess=TCheck SCRF=Check GenChk UB3LYP/6-311++G(d,p) F
 req
 ----------------------------------------------------------------------

 Structure from the checkpoint file:  "325-rad.chk"
 -------
 Radical
 -------
 Charge = -1 Multiplicity = 2

                          Input orientation:
 ---------------------------------------------------------------------
 Center     Atomic      Atomic             Coordinates (Angstroms)
 Number     Number       Type             X           Y           Z
 ---------------------------------------------------------------------
      1          6           0       -1.797740    2.801195   -0.750120
      2          6           0       -2.902330    1.997522   -0.534913
      3          6           0       -2.731155    0.646274   -0.166843
      4          6           0       -0.483439    2.307299   -0.611787
      5          6           0       -0.317768    0.935588   -0.238175
      6          6           0       -1.455787    0.129237   -0.022304
      7          6           0        0.654144    3.207549   -0.853066
      8          6           0        2.029684    2.631461   -0.692054
      9          6           0        2.107184    1.234191   -0.311844
     10          6           0        1.016360    0.438255   -0.098789
     11          8           0        0.479174    4.402259   -1.178224
     12          8           0        3.061682    3.312679   -0.873909
     13          1           0       -1.903697    3.842331   -1.033563
     14          1           0       -3.902466    2.405578   -0.648946
     15          1           0       -3.596260    0.012422    0.002928
     16          1           0       -1.312299   -0.907355    0.260108
     17          1           0        3.112528    0.829787   -0.198716
     18          8           0        1.141685   -0.896623    0.264731
     19          1           0        2.082449   -1.091279    0.320926
 ---------------------------------------------------------------------

 SCF Done:  E(UB3LYP) =  -610.569335725     A.U. after    1 cycles

 Alpha  occ. eigenvalues --  -19.04130 -18.93326 -18.92787 -10.10751 -10.07846
 Alpha  occ. eigenvalues --  -10.07622 -10.05443 -10.05422 -10.05347 -10.05194
 Alpha  occ. eigenvalues --  -10.04458 -10.04293 -10.03003  -0.94705  -0.86723
 Alpha  occ. eigenvalues --   -0.84033  -0.73693  -0.67562  -0.63012  -0.60433
 Alpha  occ. eigenvalues --   -0.55366  -0.49891  -0.46894  -0.46467  -0.40290
 Alpha  occ. eigenvalues --   -0.38634  -0.37363  -0.32472  -0.32138  -0.30421
 Alpha  occ. eigenvalues --   -0.30113  -0.29218  -0.27513  -0.26155  -0.26119
 Alpha  occ. eigenvalues --   -0.25357  -0.23668  -0.22566  -0.21548  -0.19843
 Alpha  occ. eigenvalues --   -0.15817  -0.13256  -0.11126  -0.09572  -0.07725
 Alpha  occ. eigenvalues --   -0.01228
 Alpha virt. eigenvalues --    0.07962   0.08494   0.08931   0.10238   0.11815
 Alpha virt. eigenvalues --    0.12070   0.12892   0.14312   0.15512   0.16254
 Alpha virt. eigenvalues --    0.16974   0.17177   0.17870   0.18401   0.19009

  Beta  occ. eigenvalues --  -19.04057 -18.92626 -18.92225 -10.10530 -10.07762
  Beta  occ. eigenvalues --  -10.07504 -10.05406 -10.05332 -10.05310 -10.05138
  Beta  occ. eigenvalues --  -10.04457 -10.04179 -10.03033  -0.94520  -0.85655
  Beta  occ. eigenvalues --   -0.82891  -0.73440  -0.67193  -0.62765  -0.60230
  Beta  occ. eigenvalues --   -0.54649  -0.49677  -0.46517  -0.46262  -0.40140
  Beta  occ. eigenvalues --   -0.38445  -0.37089  -0.32298  -0.31976  -0.30368
  Beta  occ. eigenvalues --   -0.29190  -0.28960  -0.27315  -0.25640  -0.25006
  Beta  occ. eigenvalues --   -0.24790  -0.22526  -0.22334  -0.21365  -0.17386
  Beta  occ. eigenvalues --   -0.14651  -0.12168  -0.10489  -0.08369  -0.07148
  Beta virt. eigenvalues --    0.05241   0.07965   0.08490   0.09583   0.10229
  Beta virt. eigenvalues --    0.11810   0.12899   0.13661   0.14298   0.15560
  Beta virt. eigenvalues --    0.16284   0.17203   0.17807   0.18060   0.18420

 Mulliken charges and spin densities:
               1          2
     1  C    0.210030   0.032347
     2  C   -0.318224   0.038127
     3  C   -0.380665   0.064131
     4  C    0.112277   0.079952
     5  C   -0.185178   0.054455
     6  C    0.251830   0.009255
     7  C   -0.401278   0.066362
     8  C   -0.411936   0.109195
     9  C    0.217674  -0.027285
    10  C    0.064116   0.096482
    11  O   -0.370877   0.265343
    12  O   -0.397860   0.205126
    13  H    0.146999  -0.002899
    14  H    0.121483  -0.003579
    15  H    0.117815  -0.005045
    16  H    0.138021   0.001630
    17  H    0.093107  -0.001070
    18  O   -0.249332   0.018280
    19  H    0.241996  -0.000807
 Sum of Mulliken charges =  -1.00000   1.00000

 Dipole moment (field-independent basis, Debye):
    X=             -4.3513    Y=            -15.2374    Z=              4.0471  Tot=             16.3552
 Quadrupole moment (field-independent basis, Debye-Ang):
   XX=            -98.2843   YY=           -139.4153   ZZ=            -85.0365
   XY=            -25.6357   XZ=              6.8418   YZ=             15.5674

  Exact polarizability: 217.611  16.629 162.127  -4.077 -23.969  80.321
 Approx polarizability: 355.773  39.186 280.954  -9.903 -45.536 125.408

                      1                      2                      3
                      A                      A                      A
 Frequencies --     70.5152               127.4787               172.9278
 Red. masses --     11.4773                 4.3071                 4.5858
 Frc consts  --      0.0336                 0.0412                 0.0808
 IR Inten    --      0.0688                 0.0976                 1.7668

                      4                      5                      6
                      A                      A                      A
 Frequencies --    210.7616               241.4934               262.4066
 Red. masses --      5.1179                 1.1815                 5.6970
 Frc consts  --      0.1339                 0.0406                 0.2311
 IR Inten    --      2.1482                95.2081                 5.0358

                      7                      8                      9
                      A                      A                      A
 Frequencies --    336.9026               360.0761               405.0412
 Red. masses --      6.9216                13.4850                 5.5652
 Frc consts  --      0.4629                 1.0301                 0.5379
 IR Inten    --     11.0763                 0.3935                 0.0265

                     10                     11                     12
                      A                      A                      A
 Frequencies --    409.8544               427.9141               467.5606
 Red. masses --     10.6381                 3.7683                 8.6861
 Frc consts  --      1.0529                 0.4065                 1.1188
 IR Inten    --      7.0417                 0.5991                 1.0923

                     13                     14                     15
                      A                      A                      A
 Frequencies --    515.8372               520.3232               593.8506
 Red. masses --      7.2263                 3.8810                 4.4234
 Frc consts  --      1.1329                 0.6191                 0.9191
 IR Inten    --      0.7479                 3.8780                 3.7167

                     16                     17                     18
                      A                      A                      A
 Frequencies --    642.8368               676.6898               702.9417
 Red. masses --      6.3296                 5.7310                 3.9932
 Frc consts  --      1.5411                 1.5462                 1.1626
 IR Inten    --     22.5407                 2.3912                13.3369

                     19                     20                     21
                      A                      A                      A
 Frequencies --    720.5752               737.1190               764.2310
 Red. masses --      6.7112                 1.9636                 2.5402
 Frc consts  --      2.0531                 0.6286                 0.8741
 IR Inten    --     11.0859                48.6020                 8.0188

                     22                     23                     24
                      A                      A                      A
 Frequencies --    809.1566               820.0889               846.8387
 Red. masses --      1.5671                 4.4604                 1.3593
 Frc consts  --      0.6045                 1.7674                 0.5743
 IR Inten    --     37.2592                 0.4803                 0.0325

                     25                     26                     27
                      A                      A                      A
 Frequencies --    945.4824               977.6995               978.2613
 Red. masses --      1.3020                 1.2834                 6.9110
 Frc consts  --      0.6857                 0.7228                 3.8968
 IR Inten    --      1.6151                 1.3491                19.5173

                     28                     29                     30
                      A                      A                      A
 Frequencies --   1039.9631              1062.6509              1131.5732
 Red. masses --      2.1124                 5.0081                 1.6720
 Frc consts  --      1.3460                 3.3320                 1.2614
 IR Inten    --     24.3548               138.1932                12.8503

                     31                     32                     33
                      A                      A                      A
 Frequencies --   1161.0960              1198.0205              1208.0502
 Red. masses --      1.2132                 1.2718                 4.6233
 Frc consts  --      0.9637                 1.0755                 3.9753
 IR Inten    --     33.1715                13.1267                 0.2823

                     34                     35                     36
                      A                      A                      A
 Frequencies --   1223.0124              1246.0080              1283.1338
 Red. masses --      2.3402                 2.1230                 2.0329
 Frc consts  --      2.0624                 1.9420                 1.9720
 IR Inten    --     81.2203               120.2552                19.6119

                     37                     38                     39
                      A                      A                      A
 Frequencies --   1355.7759              1434.3043              1450.0039
 Red. masses --      7.8223                 2.2703                 2.6133
 Frc consts  --      8.4716                 2.7518                 3.2372
 IR Inten    --     38.3972                 3.5291                46.0361

                     40                     41                     42
                      A                      A                      A
 Frequencies --   1502.3348              1511.0255              1553.8579
 Red. masses --      4.8206                 4.2556                 6.2686
 Frc consts  --      6.4104                 5.7247                 8.9175
 IR Inten    --    203.2976                90.1219               307.5345

                     43                     44                     45
                      A                      A                      A
 Frequencies --   1580.7372              1612.5720              1621.9765
 Red. masses --      7.6792                 7.3498                 6.1057
 Frc consts  --     11.3054                11.2607                 9.4640
 IR Inten    --    151.7522               241.9406                51.4057

                     46                     47                     48
                      A                      A                      A
 Frequencies --   3110.8005              3133.3911              3152.6225
 Red. masses --      1.0889                 1.0844                 1.0905
 Frc consts  --      6.2086                 6.2727                 6.3860
 IR Inten    --     46.3592                16.2400                44.4687

                     49                     50                     51
                      A                      A                      A
 Frequencies --   3179.0107              3181.8907              3835.4350
 Red. masses --      1.0913                 1.0931                 1.0657
 Frc consts  --      6.4977                 6.5206                 9.2365
 IR Inten    --     18.7257                25.1498                34.6406

 - Thermochemistry -
 -------------------
 Temperature   298.150 Kelvin.  Pressure   1.00000 Atm.
 Atom     1 has atomic number  6 and mass  12.00000

 Molecular mass:   174.03169 amu.
 Principal axes and moments of inertia in atomic units:
                           1         2         3
     Eigenvalues --  1474.503112264.907393739.41049
           X            0.91561  -0.40205  -0.00300
           Y            0.38868   0.88321   0.26241
           Z           -0.10285  -0.24143   0.96495
 This molecule is an asymmetric top.
 Rotational symmetry number  1.
 Warning -- assumption of classical behavior for rotation
           may cause significant error
 Rotational temperatures (Kelvin)      0.05874     0.03824     0.02316
 Rotational constants (GHZ):           1.22397     0.79683     0.48263
 Zero-point vibrational energy     349992.1 (Joules/Mol)
                                   83.65012 (Kcal/Mol)
 Warning -- explicit consideration of  15 degrees of freedom as
           vibrations may cause significant error
 Vibrational temperatures:    101.46   183.41   248.80   303.24   347.46
          (Kelvin)            377.54   484.73   518.07   582.76   589.69
                              615.67   672.72   742.17   748.63   854.42
                              924.90   973.61  1011.38  1036.75  1060.55
                             1099.56  1164.20  1179.93  1218.41  1360.34
                             1406.69  1407.50  1496.28  1528.92  1628.08
                             1670.56  1723.68  1738.11  1759.64  1792.73
                             1846.14  1950.66  2063.64  2086.23  2161.52
                             2174.03  2235.65  2274.33  2320.13  2333.66
                             4475.75  4508.25  4535.92  4573.89  4578.03
                             5518.34

 Zero-point correction=                           0.133305 (Hartree/Particle)
 Thermal correction to Energy=                    0.143404
 Thermal correction to Enthalpy=                  0.144348
 Thermal correction to Gibbs Free Energy=         0.097118
 Sum of electronic and zero-point Energies=           -610.436031
 Sum of electronic and thermal Energies=              -610.425932
 Sum of electronic and thermal Enthalpies=            -610.424988
 Sum of electronic and thermal Free Energies=         -610.472218

                     E (Thermal)             CV                S
                      KCal/Mol        Cal/Mol-Kelvin    Cal/Mol-Kelvin
 Total                   89.987             40.047             99.404
 Electronic               0.000              0.000              1.377
 Translational            0.889              2.981             41.370
 Rotational               0.889              2.981             30.902
 Vibrational             88.210             34.085             25.755
 Vibration     1          0.598              1.968              4.139
 Vibration     2          0.611              1.926              2.984
 Vibration     3          0.626              1.876              2.403
 Vibration     4          0.643              1.824              2.037
 Vibration     5          0.658              1.777              1.792
 Vibration     6          0.670              1.742              1.646
 Vibration     7          0.718              1.602              1.227
 Vibration     8          0.735              1.555              1.122
 Vibration     9          0.770              1.459              0.944
 Vibration    10          0.774              1.449              0.927
 Vibration    11          0.789              1.409              0.865
 Vibration    12          0.825              1.322              0.744
 Vibration    13          0.871              1.215              0.620
 Vibration    14          0.875              1.205              0.609
 Vibration    15          0.951              1.045              0.460

 Optimization completed.
    -- Stationary point found.
 Normal termination of Gaussian 16 at Sat Jan  6 02:10:40 2024.
