 Q-Chem 5.4, Q-Chem, Inc., Pleasanton, CA (2021)
 Q-Chem 5.4.0 for Intel X86 EM64T Linux

User input:
--------------------------------------------------------------
$molecule
-1 2
C                 -1.9325660000      3.0532710000      0.2295580000
C                 -2.8669730000      2.2384850000      0.8414190000
C                 -2.5621400000      0.8870120000      1.1016470000
C                 -0.6670480000      2.5500750000     -0.1426180000
C                 -0.3569670000      1.1846820000      0.1199260000
C                 -1.3244870000      0.3775180000      0.7432940000
C                  0.3105410000      3.4038200000     -0.7834930000
C                  1.5766680000      2.7982380000     -1.1263020000
C                  1.9067790000      1.4797070000     -0.8939270000
C                  0.9527710000      0.6046620000     -0.2470030000
O                  0.1381360000      4.6356110000     -1.0642400000
O                  1.2162480000     -0.6022370000     -0.0051260000
H                 -2.1436340000      4.0956720000      0.0189130000
H                 -3.8367930000      2.6391520000      1.1223180000
H                 -3.2966620000      0.2476250000      1.5822990000
H                 -1.0627510000     -0.6575280000      0.9320340000
C                  3.2523700000      0.9230190000     -1.2814350000
O                  2.4480640000      3.6626720000     -1.7236010000
H                  3.6481590000      1.4825390000     -2.1353260000
H                  3.1153990000     -0.1193870000     -1.5866460000
H                  1.9218140000      4.4923880000     -1.7511090000
C                  4.2803860000      0.9618110000     -0.1339760000
C                  5.6372340000      0.3636240000     -0.5205810000
C                  6.6713670000      0.3940240000      0.6107660000
C                  8.0251930000     -0.2073140000      0.2183140000
H                  3.8673160000      0.4137770000      0.7195980000
H                  4.4169420000      2.0010330000      0.1886320000
H                  6.0393000000      0.9036800000     -1.3892020000
H                  5.4929240000     -0.6749850000     -0.8476820000
H                  6.2704710000     -0.1454510000      1.4776330000
H                  6.8150010000      1.4309770000      0.9392640000
H                  7.9184940000     -1.2549970000     -0.0826040000
H                  8.7403320000     -0.1707250000      1.0468050000
H                  8.4668410000      0.3328100000     -0.6261080000
$end
$rem
MAX_SCF_CYCLES=200
BASIS  =  6-311++G(d,p)
GUI  =  2
JOB_TYPE  =  SP
METHOD  =  B3LYP
SOLVENT_METHOD = COSMO
$end
$solvent
dielectric 37.219
opticaldielectric 1.43
$end

--------------------------------------------------------------

             Standard Nuclear Orientation (Angstroms)
    I     Atom           X                Y                Z
 ----------------------------------------------------------------
    1      C       3.9206810911    -0.4109440443     0.5312715894
    2      C       4.6645575580     0.7514283413     0.6143666542
    3      C       4.0647325833     1.9949198896     0.3296566107
    4      C       2.5583818999    -0.3732693412     0.1625189244
    5      C       1.9503150938     0.8824667638    -0.1251600925
    6      C       2.7286205514     2.0495000848    -0.0331265164
    7      C       1.7804013371    -1.5908278963     0.0754617456
    8      C       0.3949109187    -1.4504300315    -0.3092847805
    9      C      -0.2229735726    -0.2528904867    -0.6018821234
   10      C       0.5273906068     0.9815102458    -0.5149677543
   11      O       2.2228429195    -2.7634013293     0.3103413320
   12      O       0.0006270942     2.0977879308    -0.7618971789
   13      H       4.3595454030    -1.3789971626     0.7452625642
   14      H       5.7118663172     0.7074435221     0.8993207278
   15      H       4.6497248683     2.9075315347     0.3951444802
   16      H       2.2413207361     2.9918229022    -0.2567676158
   17      C      -1.6761650232    -0.1902093822    -0.9955632200
   18      O      -0.2755782591    -2.6380377495    -0.3673829323
   19      H      -1.9662220245    -1.1300455362    -1.4766207451
   20      H      -1.7984294795     0.6200740409    -1.7215227611
   21      H       0.4276918842    -3.2787987242    -0.1204803763
   22      C      -2.6180253558     0.0778982799     0.1943952951
   23      C      -4.0917745474     0.1753130436    -0.2141402508
   24      C      -5.0422051028     0.4426137202     0.9586910942
   25      C      -6.5139957659     0.5408345697     0.5431724912
   26      H      -2.3085175886     1.0108105309     0.6775477943
   27      H      -2.4953712446    -0.7219312821     0.9346212530
   28      H      -4.3930761394    -0.7550205976    -0.7156546172
   29      H      -4.2069397331     0.9741356868    -0.9592231052
   30      H      -4.7419784622     1.3714481787     1.4590307660
   31      H      -4.9267100602    -0.3540144386     1.7042497155
   32      H      -6.6667224073     1.3518181814    -0.1769359328
   33      H      -7.1657003977     0.7320709336     1.4021658598
   34      H      -6.8527293424    -0.3866211246     0.0689142232
 ----------------------------------------------------------------

   10    -807.2206992043      7.40e-06  Convergence criterion met
 Total energy in the final basis set =     -807.2206992043
    4    -807.3011928407      7.73e-06  Convergence criterion met
 Total energy in the final basis set =     -807.3011928407

                    Orbital Energies (a.u.)
 --------------------------------------------------------------

 Alpha MOs
 -- Occupied --
-19.1447 -19.0893 -19.0775 -10.2256 -10.2236 -10.2228 -10.1755 -10.1732
-10.1726 -10.1716 -10.1710 -10.1696 -10.1636 -10.1569 -10.1568 -10.1545
-10.1541 -10.1507  -1.0647  -1.0029  -0.9991  -0.8593  -0.8136  -0.7913
 -0.7604  -0.7513  -0.7265  -0.6852  -0.6594  -0.6216  -0.6095  -0.5806
 -0.5708  -0.5678  -0.5374  -0.5053  -0.4851  -0.4699  -0.4576  -0.4527
 -0.4389  -0.4289  -0.4267  -0.4200  -0.4192  -0.4028  -0.4021  -0.3912
 -0.3892  -0.3788  -0.3699  -0.3652  -0.3521  -0.3461  -0.3446  -0.3384
 -0.3270  -0.3216  -0.3164  -0.3149  -0.2691  -0.2633  -0.2588  -0.2425
 -0.2287  -0.1535

 Beta MOs
 -- Occupied --
-19.1442 -19.0831 -19.0722 -10.2243 -10.2219 -10.2206 -10.1754 -10.1726
-10.1721 -10.1708 -10.1705 -10.1698 -10.1628 -10.1570 -10.1568 -10.1544
-10.1541 -10.1506  -1.0625  -0.9937  -0.9886  -0.8569  -0.8110  -0.7898
 -0.7586  -0.7492  -0.7255  -0.6804  -0.6544  -0.6201  -0.6074  -0.5792
 -0.5698  -0.5662  -0.5356  -0.5030  -0.4825  -0.4688  -0.4567  -0.4517
 -0.4316  -0.4259  -0.4239  -0.4187  -0.4144  -0.4002  -0.3982  -0.3901
 -0.3792  -0.3770  -0.3647  -0.3580  -0.3502  -0.3418  -0.3370  -0.3310
 -0.3257  -0.3213  -0.3154  -0.3143  -0.2579  -0.2518  -0.2495  -0.2375
 -0.2201

          Ground-State Mulliken Net Atomic Charges

     Atom                 Charge (a.u.)    Spin (a.u.)
  --------------------------------------------------------
      1 C                     0.124970       0.076118
      2 C                    -0.412707      -0.000469
      3 C                    -0.454633       0.072202
      4 C                     0.277466      -0.005248
      5 C                     0.042472       0.059197
      6 C                     0.107465       0.003840
      7 C                    -0.786453       0.174129
      8 C                    -0.571832       0.059612
      9 C                     1.935612       0.045950
     10 C                    -0.749993       0.081351
     11 O                    -0.553695       0.223921
     12 O                    -0.483713       0.193432
     13 H                     0.182559      -0.003862
     14 H                     0.203617      -0.000730
     15 H                     0.199767      -0.005112
     16 H                     0.178569      -0.000250
     17 C                    -0.393684       0.010305
     18 O                    -0.302560       0.016141
     19 H                     0.211691      -0.000461
     20 H                     0.196640       0.002333
     21 H                     0.308267      -0.003370
     22 C                    -0.456091      -0.001309
     23 C                    -0.208165       0.003149
     24 C                    -0.180314      -0.001259
     25 C                    -0.685254       0.000044
     26 H                     0.169255      -0.001631
     27 H                     0.159156       0.001653
     28 H                     0.115222      -0.000224
     29 H                     0.114925       0.000459
     30 H                     0.134335      -0.000044
     31 H                     0.135120       0.000086
     32 H                     0.146216      -0.000020
     33 H                     0.149851       0.000064
     34 H                     0.145912       0.000004
  --------------------------------------------------------
  Sum of atomic charges =    -1.000008

                    Cartesian Multipole Moments
 -----------------------------------------------------------------
    Charge (ESU x 10^10)
                -4.8032
    Dipole Moment (Debye)
         X      -4.1537      Y       1.5910      Z       1.5059
       Tot       4.6960
    Quadrupole Moments (Debye-Ang)
        XX    -121.7510     XY      12.7287     YY    -137.9269
        XZ      -0.8975     YZ       4.8112     ZZ    -115.9891

 Total job time:  104.01s(wall), 796.64s(cpu)
        *  Thank you very much for using Q-Chem.  Have a nice day.  *
