 Gaussian 16, Revision A.03,
 Gaussian 16:  ES64L-G16RevA.03 25-Dec-2016

 ----------------------------------------------------------------------
 #P UB3LYP/6-311++G(d,p) nosym opt freq SCRF=(PCM,Solvent=n,n-DiMethylF
 ormamide)
 ----------------------------------------------------------------------

 -------
 Reduced
 -------
 Symbolic Z-matrix:
 Charge = -2 Multiplicity = 1

 SCF Done:  E(UB3LYP) =  -1897.26402390     A.U. after   16 cycles
 SCF Done:  E(UB3LYP) =  -1897.26681784     A.U. after   13 cycles
 SCF Done:  E(UB3LYP) =  -1897.26796962     A.U. after   14 cycles
 SCF Done:  E(UB3LYP) =  -1897.26841297     A.U. after   13 cycles
 SCF Done:  E(UB3LYP) =  -1897.26860178     A.U. after   13 cycles
 SCF Done:  E(UB3LYP) =  -1897.26867798     A.U. after   12 cycles
 SCF Done:  E(UB3LYP) =  -1897.26874063     A.U. after   12 cycles
 SCF Done:  E(UB3LYP) =  -1897.26878077     A.U. after   12 cycles
 SCF Done:  E(UB3LYP) =  -1897.26878471     A.U. after   11 cycles
 SCF Done:  E(UB3LYP) =  -1897.26878568     A.U. after   10 cycles
 SCF Done:  E(UB3LYP) =  -1897.26878604     A.U. after    9 cycles
 SCF Done:  E(UB3LYP) =  -1897.26878688     A.U. after   10 cycles
 SCF Done:  E(UB3LYP) =  -1897.26878699     A.U. after    9 cycles
 SCF Done:  E(UB3LYP) =  -1897.26878707     A.U. after    9 cycles
 Optimization completed.
    -- Stationary point found.
 Normal termination of Gaussian 16 at Sun Feb 11 00:13:47 2024.

 ----------------------------------------------------------------------
 #P Geom=AllCheck Guess=TCheck SCRF=Check GenChk UB3LYP/6-311++G(d,p) F
 req
 ----------------------------------------------------------------------

 Structure from the checkpoint file:  "219-an.chk"
 -------
 Reduced
 -------
 Charge = -2 Multiplicity = 1

                          Input orientation:
 ---------------------------------------------------------------------
 Center     Atomic      Atomic             Coordinates (Angstroms)
 Number     Number       Type             X           Y           Z
 ---------------------------------------------------------------------
      1          6           0        5.067342   -2.512192    0.187437
      2          6           0        5.796135   -1.560749   -0.478347
      3          6           0        5.089099   -0.514716   -1.143172
      4          6           0        3.643752   -2.497411    0.236013
      5          6           0        2.945249   -1.425163   -0.447755
      6          6           0        3.713616   -0.452954   -1.128171
      7          6           0        2.946079   -3.530040    0.950896
      8          6           0        1.504571   -3.413520    0.930534
      9          6           0        0.806068   -2.341272    0.246767
     10          6           0        1.503739   -1.308662   -0.468144
     11          6           0        0.736205   -4.385709    1.610981
     12          6           0       -0.617521   -2.326471    0.295373
     13          6           0       -1.346313   -3.277896    0.961183
     14          8           0        3.553840   -4.488413    1.565731
     15          8           0        0.895981   -0.350258   -1.082934
     16          1           0        5.573788   -3.317828    0.706182
     17          1           0       -2.428368   -3.245764    0.980390
     18          1           0        3.188184    0.344399   -1.636853
     19          1           0        1.261637   -5.183062    2.119662
     20          1           0       -1.123967   -1.520837   -0.223375
     21          6           0       -0.639277   -4.323930    1.626008
     22         16           0        6.001657    0.718071   -2.024659
     23          1           0        6.878191   -1.592870   -0.497535
     24         16           0       -1.551833   -5.556684    2.507545
     25          8           0       -0.632734   -6.618624    2.954974
     26          8           0       -2.744789   -5.970208    1.746409
     27          7           0       -2.178352   -4.689319    3.819934
     28          1           0       -1.455066   -4.513102    4.514033
     29          1           0       -2.937599   -5.221385    4.241344
     30          8           0        5.082539    1.779976   -2.472131
     31          8           0        7.194555    1.131639   -1.263454
     32          7           0        6.628277   -0.149271   -3.337015
     33          1           0        7.387537    0.382816   -3.758374
     34          1           0        5.905039   -0.325505   -4.031159
 ---------------------------------------------------------------------

 SCF Done:  E(UB3LYP) =  -1897.26878707     A.U. after    1 cycles

 Alpha  occ. eigenvalues --  -89.06797 -89.06797 -19.12027 -19.12027 -19.11927
 Alpha  occ. eigenvalues --  -19.11927 -19.03214 -19.03213 -14.34294 -14.34294
 Alpha  occ. eigenvalues --  -10.19765 -10.19765 -10.19176 -10.19175 -10.17729
 Alpha  occ. eigenvalues --  -10.17729 -10.17117 -10.17117 -10.16426 -10.16426
 Alpha  occ. eigenvalues --  -10.15775 -10.15774 -10.15419 -10.15418  -8.12972
 Alpha  occ. eigenvalues --   -8.12972  -6.09266  -6.09266  -6.09227  -6.09227
 Alpha  occ. eigenvalues --   -6.09033  -6.09033  -1.12062  -1.12062  -1.00825
 Alpha  occ. eigenvalues --   -1.00824  -0.95094  -0.94681  -0.91262  -0.91261
 Alpha  occ. eigenvalues --   -0.85487  -0.85150  -0.78657  -0.75857  -0.75073
 Alpha  occ. eigenvalues --   -0.74182  -0.68838  -0.67655  -0.64022  -0.62410
 Alpha  occ. eigenvalues --   -0.59667  -0.58141  -0.55426  -0.55249  -0.53071
 Alpha  occ. eigenvalues --   -0.52598  -0.52116  -0.51641  -0.50379  -0.49380
 Alpha  occ. eigenvalues --   -0.46700  -0.46186  -0.45656  -0.45652  -0.44823
 Alpha  occ. eigenvalues --   -0.42521  -0.42319  -0.41482  -0.39888  -0.39435
 Alpha  occ. eigenvalues --   -0.39096  -0.37303  -0.36829  -0.36514  -0.36363
 Alpha  occ. eigenvalues --   -0.35488  -0.35087  -0.33922  -0.33881  -0.33799
 Alpha  occ. eigenvalues --   -0.33017  -0.32273  -0.31830  -0.31639  -0.31234
 Alpha  occ. eigenvalues --   -0.31033  -0.29249  -0.28980  -0.25763  -0.24683
 Alpha  occ. eigenvalues --   -0.23919  -0.23755  -0.21426  -0.20861  -0.12482
 Alpha virt. eigenvalues --   -0.05509  -0.02850  -0.00824  -0.00564  -0.00513
 Alpha virt. eigenvalues --    0.01217   0.01416   0.02482   0.02628   0.02733
 Alpha virt. eigenvalues --    0.03457   0.03606   0.04502   0.04610   0.05122

  Beta  occ. eigenvalues --  -89.06797 -89.06797 -19.12027 -19.12027 -19.11927
  Beta  occ. eigenvalues --  -19.11927 -19.03214 -19.03213 -14.34294 -14.34294
  Beta  occ. eigenvalues --  -10.19765 -10.19765 -10.19176 -10.19175 -10.17729
  Beta  occ. eigenvalues --  -10.17729 -10.17117 -10.17117 -10.16426 -10.16426
  Beta  occ. eigenvalues --  -10.15775 -10.15774 -10.15419 -10.15418  -8.12972
  Beta  occ. eigenvalues --   -8.12972  -6.09266  -6.09266  -6.09227  -6.09227
  Beta  occ. eigenvalues --   -6.09033  -6.09033  -1.12062  -1.12062  -1.00825
  Beta  occ. eigenvalues --   -1.00824  -0.95094  -0.94681  -0.91262  -0.91261
  Beta  occ. eigenvalues --   -0.85487  -0.85150  -0.78657  -0.75857  -0.75073
  Beta  occ. eigenvalues --   -0.74182  -0.68838  -0.67655  -0.64022  -0.62410
  Beta  occ. eigenvalues --   -0.59667  -0.58141  -0.55426  -0.55249  -0.53071
  Beta  occ. eigenvalues --   -0.52598  -0.52116  -0.51641  -0.50379  -0.49380
  Beta  occ. eigenvalues --   -0.46700  -0.46186  -0.45656  -0.45652  -0.44823
  Beta  occ. eigenvalues --   -0.42521  -0.42319  -0.41482  -0.39888  -0.39435
  Beta  occ. eigenvalues --   -0.39096  -0.37303  -0.36829  -0.36514  -0.36363
  Beta  occ. eigenvalues --   -0.35488  -0.35087  -0.33922  -0.33881  -0.33799
  Beta  occ. eigenvalues --   -0.33017  -0.32273  -0.31830  -0.31639  -0.31234
  Beta  occ. eigenvalues --   -0.31033  -0.29249  -0.28980  -0.25763  -0.24683
  Beta  occ. eigenvalues --   -0.23919  -0.23755  -0.21426  -0.20861  -0.12482
  Beta virt. eigenvalues --   -0.05509  -0.02850  -0.00824  -0.00564  -0.00513
  Beta virt. eigenvalues --    0.01217   0.01416   0.02482   0.02628   0.02733
  Beta virt. eigenvalues --    0.03457   0.03606   0.04502   0.04610   0.05122

 Mulliken charges and spin densities:
               1          2
     1  C   -0.138686  -0.000000
     2  C   -0.390629  -0.000000
     3  C   -0.598158   0.000000
     4  C    0.552874   0.000000
     5  C    0.204019  -0.000000
     6  C    0.058486  -0.000000
     7  C   -0.592780   0.000000
     8  C    0.204028   0.000000
     9  C    0.552880  -0.000000
    10  C   -0.592774   0.000000
    11  C    0.058480   0.000000
    12  C   -0.138687   0.000000
    13  C   -0.390609  -0.000000
    14  O   -0.613164   0.000000
    15  O   -0.613164  -0.000000
    16  H    0.153459   0.000000
    17  H    0.230107   0.000000
    18  H    0.220856   0.000000
    19  H    0.220855   0.000000
    20  H    0.153459  -0.000000
    21  C   -0.598161  -0.000000
    22  S    0.313084   0.000000
    23  H    0.230107  -0.000000
    24  S    0.313077   0.000000
    25  O   -0.271163  -0.000000
    26  O   -0.319485   0.000000
    27  N   -0.430776   0.000000
    28  H    0.300745   0.000000
    29  H    0.321198   0.000000
    30  O   -0.271162  -0.000000
    31  O   -0.319478  -0.000000
    32  N   -0.430783  -0.000000
    33  H    0.321199  -0.000000
    34  H    0.300745  -0.000000
 Sum of Mulliken charges =  -2.00000   0.00000

 Dipole moment (field-independent basis, Debye):
    X=            -21.3730    Y=             23.2411    Z=             -2.3192  Tot=             31.6596
 Quadrupole moment (field-independent basis, Debye-Ang):
   XX=           -273.3714   YY=           -317.3293   ZZ=           -150.6386
   XY=             13.5678   XZ=            -20.7267   YZ=             37.6079

  Exact polarizability: 739.791 134.073 427.177-118.135-146.962 325.305
 Approx polarizability: 833.027 106.576 475.844 -91.337-152.911 355.448

                      1                      2                      3
                      A                      A                      A
 Frequencies --     16.1562                26.2396                27.5881
 Red. masses --      7.4043                 6.8812                 9.1465
 Frc consts  --      0.0011                 0.0028                 0.0041
 IR Inten    --     12.3823                 0.0000                10.7256

                      4                      5                      6
                      A                      A                      A
 Frequencies --     67.9801                79.8939                83.3751
 Red. masses --      7.1100                 9.7347                 6.0720
 Frc consts  --      0.0194                 0.0366                 0.0249
 IR Inten    --      0.0000                 2.5204                22.4730

                      7                      8                      9
                      A                      A                      A
 Frequencies --    125.5861               135.5521               153.9175
 Red. masses --      7.7943                 3.6018                 3.4265
 Frc consts  --      0.0724                 0.0390                 0.0478
 IR Inten    --      0.0000                24.5852                 0.0000

                     10                     11                     12
                      A                      A                      A
 Frequencies --    166.9677               183.3306               198.8140
 Red. masses --      4.1300                 8.4521                 1.9381
 Frc consts  --      0.0678                 0.1674                 0.0451
 IR Inten    --     60.7643                 0.0000                 0.0000

                     13                     14                     15
                      A                      A                      A
 Frequencies --    212.3766               231.2415               248.1739
 Red. masses --      1.6239                 9.1771                 2.9325
 Frc consts  --      0.0432                 0.2891                 0.1064
 IR Inten    --    108.6173                14.5449                 0.0000

                     16                     17                     18
                      A                      A                      A
 Frequencies --    262.0182               272.1063               322.8292
 Red. masses --     10.4835                12.6210                 3.7865
 Frc consts  --      0.4241                 0.5506                 0.2325
 IR Inten    --     16.5972                 0.0000                99.9202

                     19                     20                     21
                      A                      A                      A
 Frequencies --    329.1418               361.4948               362.7115
 Red. masses --      4.2980                 4.9914                 4.5232
 Frc consts  --      0.2743                 0.3843                 0.3506
 IR Inten    --      0.0000                 0.0000                56.2021

                     22                     23                     24
                      A                      A                      A
 Frequencies --    386.2532               412.6978               416.4048
 Red. masses --      9.9629                 6.7886                 6.4656
 Frc consts  --      0.8757                 0.6812                 0.6605
 IR Inten    --      2.6599                 0.0000                 0.0001

                     25                     26                     27
                      A                      A                      A
 Frequencies --    416.8046               436.0043               441.7474
 Red. masses --      3.7799                 5.3528                 6.0943
 Frc consts  --      0.3869                 0.5995                 0.7007
 IR Inten    --     16.7334                86.4800                 0.0000

                     28                     29                     30
                      A                      A                      A
 Frequencies --    474.2470               476.9756               486.4325
 Red. masses --      7.5664                 3.9482                 7.2733
 Frc consts  --      1.0027                 0.5292                 1.0140
 IR Inten    --    244.4745                 0.0000                 0.0000

                     31                     32                     33
                      A                      A                      A
 Frequencies --    499.0003               505.7542               531.3290
 Red. masses --      8.8508                 9.3392                 7.5015
 Frc consts  --      1.2985                 1.4075                 1.2477
 IR Inten    --      0.0000                 0.0000              1054.1288

                     34                     35                     36
                      A                      A                      A
 Frequencies --    549.5598               589.1990               628.6343
 Red. masses --      5.5082                 7.0604                 5.3347
 Frc consts  --      0.9801                 1.4441                 1.2421
 IR Inten    --    119.8270                 0.0000                 0.0000

                     37                     38                     39
                      A                      A                      A
 Frequencies --    639.7054               665.8128               674.7507
 Red. masses --      7.3125                 6.0181                 4.4018
 Frc consts  --      1.7631                 1.5719                 1.1808
 IR Inten    --     53.3070               303.3524                 0.0000

                     40                     41                     42
                      A                      A                      A
 Frequencies --    678.6150               690.8631               707.5883
 Red. masses --      4.6203                 6.5812                 4.3466
 Frc consts  --      1.2536                 1.8507                 1.2822
 IR Inten    --    962.8270                 0.0000                 6.4182

                     43                     44                     45
                      A                      A                      A
 Frequencies --    715.2772               721.2801               760.9673
 Red. masses --      3.8404                 6.1868                 1.5305
 Frc consts  --      1.1576                 1.8964                 0.5222
 IR Inten    --     36.7850                 0.0000                 0.0000

                     46                     47                     48
                      A                      A                      A
 Frequencies --    793.9171               821.1900               837.3909
 Red. masses --      1.7968                 4.1739                 3.4270
 Frc consts  --      0.6673                 1.6584                 1.4159
 IR Inten    --     47.0291                 0.0000               124.5053

                     49                     50                     51
                      A                      A                      A
 Frequencies --    860.5721               863.4435               946.2300
 Red. masses --      1.6989                 2.1337                 1.8544
 Frc consts  --      0.7413                 0.9372                 0.9782
 IR Inten    --      0.0003               736.1782                82.5191

                     52                     53                     54
                      A                      A                      A
 Frequencies --    947.1496               949.3332               968.8265
 Red. masses --      1.3872                 2.5754                 6.7366
 Frc consts  --      0.7332                 1.3675                 3.7255
 IR Inten    --      0.0000               169.1671                 0.0000

                     55                     56                     57
                      A                      A                      A
 Frequencies --    979.6939               981.6682              1037.1971
 Red. masses --      1.3035                 1.3223                 2.2700
 Frc consts  --      0.7371                 0.7508                 1.4388
 IR Inten    --      0.0000                 9.1921              1489.0863

                     58                     59                     60
                      A                      A                      A
 Frequencies --   1043.0435              1049.5367              1066.8802
 Red. masses --      3.3016                 9.2302                 3.0339
 Frc consts  --      2.1163                 5.9904                 2.0346
 IR Inten    --      0.0000              1739.3365                 0.0000

                     61                     62                     63
                      A                      A                      A
 Frequencies --   1099.3046              1104.6122              1110.1148
 Red. masses --      1.6699                 2.9521                 1.4899
 Frc consts  --      1.1890                 2.1222                 1.0818
 IR Inten    --    988.3406               703.9354                 0.0001

                     64                     65                     66
                      A                      A                      A
 Frequencies --   1133.3404              1143.1537              1178.9470
 Red. masses --      1.5647                 2.0472                 5.0045
 Frc consts  --      1.1841                 1.5762                 4.0983
 IR Inten    --      0.0000               661.7288                 0.0000

                     67                     68                     69
                      A                      A                      A
 Frequencies --   1203.9229              1207.9871              1218.5920
 Red. masses --      2.1206                 1.7955                 6.2781
 Frc consts  --      1.8109                 1.5437                 5.4928
 IR Inten    --    611.1880                 0.0000              1044.7845

                     70                     71                     72
                      A                      A                      A
 Frequencies --   1220.9294              1246.2832              1311.9159
 Red. masses --      5.6945                 2.3888                 2.4500
 Frc consts  --      5.0013                 2.1860                 2.4844
 IR Inten    --      0.0000               291.1584                 0.0000

                     73                     74                     75
                      A                      A                      A
 Frequencies --   1333.5197              1340.5773              1356.1301
 Red. masses --      4.8386                 3.3292                 6.7652
 Frc consts  --      5.0695                 3.5252                 7.3305
 IR Inten    --      0.0000              1924.8706              1086.6376

                     76                     77                     78
                      A                      A                      A
 Frequencies --   1431.9627              1451.9968              1459.8030
 Red. masses --      5.3332                 3.3890                 2.6119
 Frc consts  --      6.4432                 4.2097                 3.2794
 IR Inten    --    969.3359                 0.0000               155.2909

                     79                     80                     81
                      A                      A                      A
 Frequencies --   1472.0163              1496.6515              1520.8999
 Red. masses --      7.0235                 5.3739                 6.9634
 Frc consts  --      8.9666                 7.0922                 9.4901
 IR Inten    --      0.0000                 0.0000               144.4983

                     82                     83                     84
                      A                      A                      A
 Frequencies --   1568.3509              1575.3700              1582.6131
 Red. masses --      4.5975                 2.6226                 1.2216
 Frc consts  --      6.6629                 3.8349                 1.8027
 IR Inten    --      0.0000               141.9203                 0.0014

                     85                     86                     87
                      A                      A                      A
 Frequencies --   1583.3540              1596.5873              3177.2942
 Red. masses --      1.4440                 6.3700                 1.0862
 Frc consts  --      2.1330                 9.5670                 6.4607
 IR Inten    --    138.5718                 0.0000                23.1679

                     88                     89                     90
                      A                      A                      A
 Frequencies --   3177.6013              3195.4548              3195.6026
 Red. masses --      1.0864                 1.0942                 1.0942
 Frc consts  --      6.4630                 6.5830                 6.5836
 IR Inten    --      0.0000                43.4996                 0.0000

                     91                     92                     93
                      A                      A                      A
 Frequencies --   3206.5811              3206.7083              3476.7421
 Red. masses --      1.0892                 1.0893                 1.0475
 Frc consts  --      6.5986                 6.5993                 7.4605
 IR Inten    --     16.8253                 0.0001               109.1436

                     94                     95                     96
                      A                      A                      A
 Frequencies --   3476.7553              3573.3744              3573.3816
 Red. masses --      1.0476                 1.0968                 1.0968
 Frc consts  --      7.4606                 8.2517                 8.2516
 IR Inten    --      0.0040                84.5488                 0.0985

 - Thermochemistry -
 -------------------
 Temperature   298.150 Kelvin.  Pressure   1.00000 Atm.
 Atom     1 has atomic number  6 and mass  12.00000

 Molecular mass:   365.99803 amu.
 Principal axes and moments of inertia in atomic units:
                           1         2         3
     Eigenvalues --  2636.99382********************
           X            0.72075   0.69149   0.04852
           Y            0.55241  -0.61525   0.56241
           Z           -0.41875   0.37856   0.82543
 This molecule is an asymmetric top.
 Rotational symmetry number  1.
 Warning -- assumption of classical behavior for rotation
           may cause significant error
 Rotational temperatures (Kelvin)      0.03285     0.00383     0.00354
 Rotational constants (GHZ):           0.68439     0.07979     0.07372
 Zero-point vibrational energy     596505.3 (Joules/Mol)
                                  142.56819 (Kcal/Mol)
 Warning -- explicit consideration of  35 degrees of freedom as
           vibrations may cause significant error
 Vibrational temperatures:     23.25    37.75    39.69    97.81   114.95
          (Kelvin)            119.96   180.69   195.03   221.45   240.23
                              263.77   286.05   305.56   332.70   357.07
                              376.99   391.50   464.48   473.56   520.11
                              521.86   555.73   593.78   599.11   599.69
                              627.31   635.58   682.34   686.26   699.87
                              717.95   727.67   764.46   790.69   847.73
                              904.46   920.39   957.96   970.82   976.38
                              994.00  1018.06  1029.12  1037.76  1094.86
                             1142.27  1181.51  1204.82  1238.17  1242.30
                             1361.41  1362.74  1365.88  1393.93  1409.56
                             1412.40  1492.30  1500.71  1510.05  1535.00
                             1581.65  1589.29  1597.21  1630.62  1644.74
                             1696.24  1732.18  1738.02  1753.28  1756.65
                             1793.12  1887.55  1918.64  1928.79  1951.17
                             2060.27  2089.10  2100.33  2117.90  2153.35
                             2188.24  2256.51  2266.61  2277.03  2278.09
                             2297.13  4571.42  4571.86  4597.55  4597.76
                             4613.55  4613.74  5002.26  5002.28  5141.29
                             5141.30

 Zero-point correction=                           0.227197 (Hartree/Particle)
 Thermal correction to Energy=                    0.248430
 Thermal correction to Enthalpy=                  0.249374
 Thermal correction to Gibbs Free Energy=         0.175430
 Sum of electronic and zero-point Energies=          -1897.041590
 Sum of electronic and thermal Energies=             -1897.020357
 Sum of electronic and thermal Enthalpies=           -1897.019413
 Sum of electronic and thermal Free Energies=        -1897.093357

                     E (Thermal)             CV                S
                      KCal/Mol        Cal/Mol-Kelvin    Cal/Mol-Kelvin
 Total                  155.892             81.827            155.628
 Electronic               0.000              0.000              0.000
 Translational            0.889              2.981             43.585
 Rotational               0.889              2.981             35.633
 Vibrational            154.115             75.865             76.410
 Vibration     1          0.593              1.986              7.058
 Vibration     2          0.593              1.985              6.095
 Vibration     3          0.593              1.984              5.996
 Vibration     4          0.598              1.969              4.211
 Vibration     5          0.600              1.963              3.893
 Vibration     6          0.600              1.961              3.810
 Vibration     7          0.611              1.927              3.013
 Vibration     8          0.613              1.918              2.866
 Vibration     9          0.619              1.898              2.623
 Vibration    10          0.624              1.883              2.469
 Vibration    11          0.631              1.863              2.294
 Vibration    12          0.637              1.842              2.144
 Vibration    13          0.643              1.822              2.023
 Vibration    14          0.653              1.793              1.869
 Vibration    15          0.662              1.766              1.744
 Vibration    16          0.669              1.742              1.648
 Vibration    17          0.675              1.725              1.583
 Vibration    18          0.708              1.630              1.296
 Vibration    19          0.712              1.617              1.264
 Vibration    20          0.736              1.552              1.116
 Vibration    21          0.737              1.549              1.110
 Vibration    22          0.755              1.500              1.015
 Vibration    23          0.776              1.443              0.917
 Vibration    24          0.780              1.435              0.904
 Vibration    25          0.780              1.434              0.903
 Vibration    26          0.796              1.392              0.839
 Vibration    27          0.802              1.379              0.821
 Vibration    28          0.831              1.307              0.726
 Vibration    29          0.834              1.301              0.718
 Vibration    30          0.842              1.280              0.693
 Vibration    31          0.854              1.252              0.661
 Vibration    32          0.861              1.237              0.644
 Vibration    33          0.886              1.181              0.584
 Vibration    34          0.905              1.141              0.545
 Vibration    35          0.946              1.055              0.469

 Optimization completed.
    -- Stationary point found.
 Normal termination of Gaussian 16 at Sun Feb 11 02:05:11 2024.
