 Gaussian 16, Revision A.03,
 Gaussian 16:  ES64L-G16RevA.03 25-Dec-2016

 ----------------------------------------------------------------------
 #P UB3LYP/6-311++G(d,p) nosym opt freq SCRF=(PCM,Solvent=n,n-DiMethylF
 ormamide)
 ----------------------------------------------------------------------

 -------
 Radical
 -------
 Symbolic Z-matrix:
 Charge = -1 Multiplicity = 2

 SCF Done:  E(UB3LYP) =  -964.591783326     A.U. after   20 cycles
 SCF Done:  E(UB3LYP) =  -964.592047008     A.U. after   15 cycles
 SCF Done:  E(UB3LYP) =  -964.592093650     A.U. after   15 cycles
 SCF Done:  E(UB3LYP) =  -964.592113415     A.U. after   15 cycles
 SCF Done:  E(UB3LYP) =  -964.592127568     A.U. after   15 cycles
 SCF Done:  E(UB3LYP) =  -964.592131571     A.U. after   13 cycles
 SCF Done:  E(UB3LYP) =  -964.592133228     A.U. after   15 cycles
 SCF Done:  E(UB3LYP) =  -964.592134082     A.U. after   13 cycles
 SCF Done:  E(UB3LYP) =  -964.592134098     A.U. after   12 cycles
 SCF Done:  E(UB3LYP) =  -964.592134141     A.U. after   10 cycles
 Optimization completed.
    -- Stationary point found.
 Normal termination of Gaussian 16 at Sun Feb 11 03:12:31 2024.

 ----------------------------------------------------------------------
 #P Geom=AllCheck Guess=TCheck SCRF=Check GenChk UB3LYP/6-311++G(d,p) F
 req
 ----------------------------------------------------------------------

 Structure from the checkpoint file:  "287-rad.chk"
 -------
 Radical
 -------
 Charge = -1 Multiplicity = 2

                          Input orientation:
 ---------------------------------------------------------------------
 Center     Atomic      Atomic             Coordinates (Angstroms)
 Number     Number       Type             X           Y           Z
 ---------------------------------------------------------------------
      1          6           0       -0.295736    3.854351   -0.183243
      2          6           0       -1.529008    3.282056   -0.438673
      3          6           0       -1.611648    1.927950   -0.815346
      4          6           0        0.890924    3.097571   -0.294692
      5          6           0        0.810254    1.728253   -0.676421
      6          6           0       -0.456820    1.170701   -0.930047
      7          6           0        2.183268    3.694198   -0.025526
      8          6           0        3.338158    2.843042   -0.165517
      9          6           0        3.297465    1.510946   -0.528597
     10          6           0        2.022358    0.894282   -0.808195
     11          8           0        2.367087    4.909580    0.325481
     12          8           0        1.929982   -0.320396   -1.150852
     13          1           0       -0.218547    4.895223    0.108409
     14          1           0       -2.432599    3.875489   -0.348981
     15          1           0       -2.578609    1.479148   -1.015222
     16          1           0       -0.506201    0.127725   -1.219326
     17          8           0        4.523651    3.464447    0.101786
     18          6           0        4.561806    0.698597   -0.654410
     19          6           0        5.205867    0.769555   -2.054009
     20          6           0        6.485558   -0.065743   -2.169084
     21          6           0        7.135383   -0.004821   -3.556213
     22          6           0        8.418808   -0.835427   -3.671338
     23          1           0        4.251067    4.376001    0.336681
     24          1           0        4.327302   -0.345242   -0.428350
     25          1           0        5.291399    1.041665    0.086018
     26          1           0        5.430214    1.815604   -2.293484
     27          1           0        4.478489    0.428543   -2.799644
     28          1           0        6.258125   -1.111109   -1.922204
     29          1           0        7.208434    0.275428   -1.416287
     30          1           0        7.358926    1.040967   -3.804466
     31          1           0        6.413681   -0.349539   -4.308221
     32          1           0        8.195967   -1.880811   -3.420724
     33          1           0        9.141407   -0.488992   -2.920923
     34          6           0        9.066603   -0.777239   -5.059546
     35          1           0        9.288211    0.268249   -5.310912
     36          1           0        8.344286   -1.124949   -5.809651
     37          6           0       10.350779   -1.606143   -5.174671
     38          1           0       10.130423   -2.651947   -4.922954
     39          1           0       11.074518   -1.258213   -4.425831
     40          6           0       10.998296   -1.549654   -6.563074
     41          6           0       12.281111   -2.380091   -6.667754
     42          1           0       11.218569   -0.505091   -6.815299
     43          1           0       10.276121   -1.898405   -7.311458
     44          1           0       13.035496   -2.032287   -5.954567
     45          1           0       12.716952   -2.318512   -7.669115
     46          1           0       12.086063   -3.436049   -6.454187
 ---------------------------------------------------------------------

 SCF Done:  E(UB3LYP) =  -964.592134141     A.U. after    1 cycles

 Alpha  occ. eigenvalues --  -19.14335 -19.08414 -19.07222 -10.22214 -10.22076
 Alpha  occ. eigenvalues --  -10.21991 -10.17447 -10.17249 -10.17231 -10.17114
 Alpha  occ. eigenvalues --  -10.17081 -10.16941 -10.16214 -10.16045 -10.15792
 Alpha  occ. eigenvalues --  -10.15766 -10.15756 -10.15741 -10.15706 -10.15665
 Alpha  occ. eigenvalues --  -10.15639 -10.15428  -1.06222  -0.99495  -0.99298
 Alpha  occ. eigenvalues --   -0.85800  -0.81422  -0.80574  -0.78776  -0.76480
 Alpha  occ. eigenvalues --   -0.75022  -0.74092  -0.71157  -0.68056  -0.65975
 Alpha  occ. eigenvalues --   -0.62861  -0.61570  -0.59476  -0.57695  -0.57315
 Alpha  occ. eigenvalues --   -0.56988  -0.56793  -0.53574  -0.50457  -0.48432
 Alpha  occ. eigenvalues --   -0.48029  -0.46615  -0.45688  -0.45194  -0.43709
 Alpha  occ. eigenvalues --   -0.43506  -0.42954  -0.42636  -0.42090  -0.41365
 Alpha  occ. eigenvalues --   -0.40805  -0.40134  -0.39662  -0.39275  -0.38624
 Alpha  occ. eigenvalues --   -0.37924  -0.37320  -0.36704  -0.36369  -0.35265
 Alpha  occ. eigenvalues --   -0.34599  -0.34350  -0.34105  -0.33779  -0.33321
 Alpha  occ. eigenvalues --   -0.32708  -0.32368  -0.32061  -0.31835  -0.31692
 Alpha  occ. eigenvalues --   -0.30043  -0.26629  -0.25760  -0.25702  -0.23814
 Alpha  occ. eigenvalues --   -0.22720  -0.15078
 Alpha virt. eigenvalues --   -0.03267  -0.00838  -0.00460  -0.00150   0.00548
 Alpha virt. eigenvalues --    0.00858   0.00893   0.01424   0.01720   0.02234
 Alpha virt. eigenvalues --    0.02635   0.02918   0.03703   0.03983   0.04327

  Beta  occ. eigenvalues --  -19.14287 -19.07779 -19.06678 -10.22080 -10.21973
  Beta  occ. eigenvalues --  -10.21707 -10.17432 -10.17226 -10.17140 -10.17038
  Beta  occ. eigenvalues --  -10.17030 -10.16960 -10.16135 -10.16045 -10.15792
  Beta  occ. eigenvalues --  -10.15766 -10.15762 -10.15741 -10.15706 -10.15658
  Beta  occ. eigenvalues --  -10.15636 -10.15428  -1.06014  -0.98542  -0.98212
  Beta  occ. eigenvalues --   -0.85566  -0.81273  -0.80436  -0.78664  -0.76355
  Beta  occ. eigenvalues --   -0.74809  -0.74004  -0.71059  -0.67629  -0.65485
  Beta  occ. eigenvalues --   -0.62763  -0.61392  -0.59319  -0.57638  -0.57289
  Beta  occ. eigenvalues --   -0.56931  -0.56605  -0.53401  -0.50229  -0.48335
  Beta  occ. eigenvalues --   -0.47855  -0.46516  -0.45608  -0.45097  -0.43526
  Beta  occ. eigenvalues --   -0.43157  -0.42704  -0.42393  -0.41797  -0.40923
  Beta  occ. eigenvalues --   -0.40605  -0.39852  -0.39573  -0.39071  -0.37836
  Beta  occ. eigenvalues --   -0.37626  -0.37046  -0.36540  -0.35759  -0.34904
  Beta  occ. eigenvalues --   -0.34276  -0.33967  -0.33733  -0.33201  -0.32725
  Beta  occ. eigenvalues --   -0.32656  -0.32280  -0.32051  -0.31831  -0.31642
  Beta  occ. eigenvalues --   -0.29980  -0.25198  -0.25000  -0.24641  -0.23300
  Beta  occ. eigenvalues --   -0.21784
  Beta virt. eigenvalues --   -0.08520  -0.02519  -0.00485  -0.00143   0.00251
  Beta virt. eigenvalues --    0.00588   0.00864   0.00905   0.01432   0.01727
  Beta virt. eigenvalues --    0.02246   0.02641   0.02930   0.03721   0.03992

 Mulliken charges and spin densities:
               1          2
     1  C    0.006734   0.071732
     2  C   -0.368096  -0.000668
     3  C   -0.439561   0.069151
     4  C    0.542203  -0.003477
     5  C   -0.109631   0.057924
     6  C    0.058812   0.003192
     7  C   -0.909575   0.163413
     8  C   -0.631032   0.061487
     9  C    2.011167   0.058568
    10  C   -0.726030   0.074431
    11  O   -0.528794   0.232368
    12  O   -0.465620   0.201329
    13  H    0.165992  -0.004085
    14  H    0.182579  -0.000614
    15  H    0.178052  -0.004970
    16  H    0.167718  -0.000410
    17  O   -0.277497   0.016386
    18  C   -0.363137   0.012299
    19  C   -0.774509  -0.002760
    20  C   -0.220300   0.000263
    21  C    0.049353  -0.003516
    22  C    0.018913  -0.001051
    23  H    0.289542  -0.003623
    24  H    0.203883   0.001964
    25  H    0.211258  -0.000246
    26  H    0.168639   0.002612
    27  H    0.174825  -0.001610
    28  H    0.113669   0.000382
    29  H    0.115040  -0.000498
    30  H    0.124549  -0.000112
    31  H    0.122723  -0.000011
    32  H    0.131046  -0.000009
    33  H    0.130077  -0.000003
    34  C   -0.188115  -0.000089
    35  H    0.127112  -0.000004
    36  H    0.127018   0.000003
    37  C   -0.396781   0.000230
    38  H    0.123250   0.000009
    39  H    0.123117  -0.000008
    40  C   -0.266288   0.000009
    41  C   -0.689636   0.000009
    42  H    0.130722   0.000000
    43  H    0.130853  -0.000000
    44  H    0.139720   0.000001
    45  H    0.146233   0.000005
    46  H    0.139804  -0.000003
 Sum of Mulliken charges =  -1.00000   1.00000

 Dipole moment (field-independent basis, Debye):
    X=            -11.1155    Y=            -10.2321    Z=              2.0776  Tot=             15.2501
 Quadrupole moment (field-independent basis, Debye-Ang):
   XX=           -168.2921   YY=           -190.2200   ZZ=           -145.1291
   XY=            -24.5614   XZ=              4.8277   YZ=             -2.9442

  Exact polarizability: 434.061 -15.651 400.391  -0.767  50.570 254.145
 Approx polarizability: 445.673   4.399 462.740  16.543  56.701 274.586

                      1                      2                      3
                      A                      A                      A
 Frequencies --     17.4355                23.4967                25.6614
 Red. masses --      4.8648                 5.0710                 1.6442
 Frc consts  --      0.0009                 0.0016                 0.0006
 IR Inten    --      0.1646                 0.6136                 0.1888

                      4                      5                      6
                      A                      A                      A
 Frequencies --     41.8746                57.1981                77.7541
 Red. masses --      3.7176                 4.5696                 2.0958
 Frc consts  --      0.0038                 0.0088                 0.0075
 IR Inten    --      1.1999                 3.6971                 0.9552

                      7                      8                      9
                      A                      A                      A
 Frequencies --     93.5958                96.2250               115.2200
 Red. masses --      3.4960                 2.8692                 4.8244
 Frc consts  --      0.0180                 0.0157                 0.0377
 IR Inten    --      6.9491                 2.4753                 0.4344

                     10                     11                     12
                      A                      A                      A
 Frequencies --    128.0991               144.1414               149.8244
 Red. masses --      1.9264                 4.1215                 2.1293
 Frc consts  --      0.0186                 0.0505                 0.0282
 IR Inten    --      0.2633                 0.6106                 0.2132

                     13                     14                     15
                      A                      A                      A
 Frequencies --    151.2419               162.6419               180.8552
 Red. masses --      5.4122                 1.9664                 7.1109
 Frc consts  --      0.0729                 0.0306                 0.1370
 IR Inten    --      0.0407                 0.0138                 2.4608

                     16                     17                     18
                      A                      A                      A
 Frequencies --    222.6874               243.4701               255.2034
 Red. masses --      3.9906                 1.1203                 4.5568
 Frc consts  --      0.1166                 0.0391                 0.1749
 IR Inten    --      0.0122                 0.0053                 4.9423

                     19                     20                     21
                      A                      A                      A
 Frequencies --    289.4237               306.9937               319.7266
 Red. masses --      3.9730                 2.8285                 4.8470
 Frc consts  --      0.1961                 0.1571                 0.2919
 IR Inten    --      0.5886                 5.1282                 8.7669

                     22                     23                     24
                      A                      A                      A
 Frequencies --    349.1393               371.6549               379.8010
 Red. masses --      5.2354                 3.6848                 9.4063
 Frc consts  --      0.3760                 0.2999                 0.7994
 IR Inten    --     29.2095                 0.8422                22.5941

                     25                     26                     27
                      A                      A                      A
 Frequencies --    425.0226               430.8297               449.1842
 Red. masses --      5.3028                 8.8351                 3.6720
 Frc consts  --      0.5644                 0.9662                 0.4365
 IR Inten    --      1.7537                 2.9400                 3.5729

                     28                     29                     30
                      A                      A                      A
 Frequencies --    454.4039               483.8994               496.2118
 Red. masses --      4.2926                 3.1450                 5.1281
 Frc consts  --      0.5222                 0.4339                 0.7439
 IR Inten    --      5.2594                 0.8608                 3.2761

                     31                     32                     33
                      A                      A                      A
 Frequencies --    534.4665               574.4192               644.3882
 Red. masses --      6.2955                 5.3156                 6.1702
 Frc consts  --      1.0595                 1.0334                 1.5096
 IR Inten    --      1.4653                 3.3002                33.2183

                     34                     35                     36
                      A                      A                      A
 Frequencies --    656.1458               675.0464               697.6567
 Red. masses --      1.1129                 5.7538                 3.1678
 Frc consts  --      0.2823                 1.5448                 0.9084
 IR Inten    --    135.2980                 9.8492                 3.0360

                     37                     38                     39
                      A                      A                      A
 Frequencies --    706.6637               713.6490               727.9050
 Red. masses --      3.5451                 5.0642                 1.0687
 Frc consts  --      1.0431                 1.5196                 0.3336
 IR Inten    --     67.2054                26.1437                15.8272

                     40                     41                     42
                      A                      A                      A
 Frequencies --    730.1380               741.2658               763.9133
 Red. masses --      1.1120                 1.1875                 3.4886
 Frc consts  --      0.3493                 0.3845                 1.1995
 IR Inten    --      0.0091                 3.0450                27.4499

                     43                     44                     45
                      A                      A                      A
 Frequencies --    769.1141               787.0862               815.1768
 Red. masses --      1.2501                 2.0816                 1.3879
 Frc consts  --      0.4357                 0.7598                 0.5434
 IR Inten    --      0.3934                28.2343                 1.7040

                     46                     47                     48
                      A                      A                      A
 Frequencies --    863.4716               881.8817               893.8065
 Red. masses --      1.8959                 1.3813                 1.9651
 Frc consts  --      0.8328                 0.6329                 0.9249
 IR Inten    --     32.5905                 0.0551                 3.2646

                     49                     50                     51
                      A                      A                      A
 Frequencies --    907.1206               939.5187               968.8077
 Red. masses --      1.6212                 5.6976                 1.3756
 Frc consts  --      0.7860                 2.9631                 0.7607
 IR Inten    --     18.0384                39.1680                 4.6603

                     52                     53                     54
                      A                      A                      A
 Frequencies --    982.6642               988.7893               996.4967
 Red. masses --      1.3661                 4.4549                 3.7343
 Frc consts  --      0.7772                 2.5662                 2.1848
 IR Inten    --      2.8410                15.6709                 2.3127

                     55                     56                     57
                      A                      A                      A
 Frequencies --    997.1008              1021.8877              1031.4416
 Red. masses --      1.3184                 3.2131                 1.4845
 Frc consts  --      0.7723                 1.9769                 0.9305
 IR Inten    --      0.0998                21.5493                 3.1447

                     58                     59                     60
                      A                      A                      A
 Frequencies --   1040.0411              1050.7876              1057.1742
 Red. masses --      2.1062                 2.6559                 2.1627
 Frc consts  --      1.3423                 1.7278                 1.4241
 IR Inten    --     31.3215                 3.0461                79.9658

                     61                     62                     63
                      A                      A                      A
 Frequencies --   1062.3039              1064.7572              1071.5285
 Red. masses --      2.4525                 2.2132                 2.6571
 Frc consts  --      1.6306                 1.4784                 1.7975
 IR Inten    --      5.9712                 2.1208                 4.6885

                     64                     65                     66
                      A                      A                      A
 Frequencies --   1109.5400              1127.3692              1135.9038
 Red. masses --      2.1344                 1.7033                 2.7073
 Frc consts  --      1.5482                 1.2755                 2.0581
 IR Inten    --      9.8576               132.7938                 7.3471

                     67                     68                     69
                      A                      A                      A
 Frequencies --   1153.7561              1193.3432              1202.1254
 Red. masses --      1.3282                 2.4980                 2.0135
 Frc consts  --      1.0417                 2.0959                 1.7143
 IR Inten    --      3.0266                34.1122                10.6350

                     70                     71                     72
                      A                      A                      A
 Frequencies --   1207.5140              1231.0760              1241.3515
 Red. masses --      1.9396                 1.2543                 1.7160
 Frc consts  --      1.6663                 1.1200                 1.5580
 IR Inten    --     35.0019                 0.2742                 5.4897

                     73                     74                     75
                      A                      A                      A
 Frequencies --   1255.5646              1271.6584              1281.1508
 Red. masses --      2.1031                 1.3240                 1.6375
 Frc consts  --      1.9533                 1.2614                 1.5835
 IR Inten    --    111.5717                 1.0632                88.3777

                     76                     77                     78
                      A                      A                      A
 Frequencies --   1292.1670              1311.0515              1315.0254
 Red. masses --      1.7397                 1.3421                 1.3269
 Frc consts  --      1.7114                 1.3591                 1.3519
 IR Inten    --     15.3542                65.7704                27.9318

                     79                     80                     81
                      A                      A                      A
 Frequencies --   1323.6191              1324.0681              1329.0844
 Red. masses --      1.0208                 1.5239                 1.1370
 Frc consts  --      1.0537                 1.5741                 1.1833
 IR Inten    --      0.1422               171.9934                 3.1547

                     82                     83                     84
                      A                      A                      A
 Frequencies --   1331.8388              1334.2989              1346.8943
 Red. masses --      1.1311                 1.1195                 1.4838
 Frc consts  --      1.1821                 1.1743                 1.5859
 IR Inten    --      0.3255                 0.6947                 1.3511

                     85                     86                     87
                      A                      A                      A
 Frequencies --   1350.3609              1369.3729              1384.1889
 Red. masses --      7.0526                 1.4580                 1.5221
 Frc consts  --      7.5770                 1.6108                 1.7183
 IR Inten    --     55.0085                 1.4797                 1.8099

                     88                     89                     90
                      A                      A                      A
 Frequencies --   1394.0810              1395.6913              1403.6202
 Red. masses --      1.5965                 1.6222                 1.2622
 Frc consts  --      1.8281                 1.8617                 1.4652
 IR Inten    --      1.1535                 0.2838                 2.3121

                     91                     92                     93
                      A                      A                      A
 Frequencies --   1423.1719              1455.0141              1458.8881
 Red. masses --      2.7687                 1.9836                 2.1749
 Frc consts  --      3.3040                 2.4742                 2.7273
 IR Inten    --    727.8098               382.4620                47.4059

                     94                     95                     96
                      A                      A                      A
 Frequencies --   1470.5160              1471.4173              1474.8587
 Red. masses --      1.0704                 1.0761                 1.1513
 Frc consts  --      1.3638                 1.3727                 1.4756
 IR Inten    --      0.0666                 3.0627                31.1725

                     97                     98                     99
                      A                      A                      A
 Frequencies --   1478.3598              1482.2534              1487.9404
 Red. masses --      1.6312                 1.1698                 1.0403
 Frc consts  --      2.1005                 1.5142                 1.3570
 IR Inten    --     90.1913                15.3165                 9.7480

                    100                    101                    102
                      A                      A                      A
 Frequencies --   1489.0809              1496.4097              1499.6174
 Red. masses --      1.0990                 1.1122                 3.9012
 Frc consts  --      1.4358                 1.4673                 5.1690
 IR Inten    --      3.0509                24.5927               949.8088

                    103                    104                    105
                      A                      A                      A
 Frequencies --   1502.9719              1507.3981              1529.2014
 Red. masses --      1.1028                 1.0989                 5.2233
 Frc consts  --      1.4677                 1.4712                 7.1966
 IR Inten    --      5.8445                24.0195                19.1570

                    106                    107                    108
                      A                      A                      A
 Frequencies --   1571.7122              1622.7330              1631.0274
 Red. masses --      5.3509                 5.9074                 6.5805
 Frc consts  --      7.7879                 9.1651                10.3140
 IR Inten    --     17.2103                 7.9097                 6.4407

                    109                    110                    111
                      A                      A                      A
 Frequencies --   2987.4126              2987.8090              2990.4496
 Red. masses --      1.0570                 1.0576                 1.0574
 Frc consts  --      5.5578                 5.5628                 5.5716
 IR Inten    --      0.3613                 8.4865                 4.5766

                    112                    113                    114
                      A                      A                      A
 Frequencies --   2992.0689              2997.7253              3002.7639
 Red. masses --      1.0587                 1.0592                 1.0595
 Frc consts  --      5.5843                 5.6082                 5.6288
 IR Inten    --      0.7364               156.2673               201.1807

                    115                    116                    117
                      A                      A                      A
 Frequencies --   3003.2518              3006.2800              3009.5583
 Red. masses --      1.0980                 1.0993                 1.0591
 Frc consts  --      5.8349                 5.8537                 5.6521
 IR Inten    --      0.8581                 0.8826                68.7939

                    118                    119                    120
                      A                      A                      A
 Frequencies --   3012.9733              3013.4051              3023.6475
 Red. masses --      1.0355                 1.1014                 1.1031
 Frc consts  --      5.5385                 5.8925                 5.9420
 IR Inten    --     56.4260                 2.9735                 5.3953

                    121                    122                    123
                      A                      A                      A
 Frequencies --   3028.5214              3034.2488              3041.9910
 Red. masses --      1.0627                 1.1037                 1.1047
 Frc consts  --      5.7429                 5.9871                 6.0229
 IR Inten    --    110.8080                 4.5050               113.9690

                    124                    125                    126
                      A                      A                      A
 Frequencies --   3046.5960              3071.6179              3074.8917
 Red. masses --      1.1038                 1.1026                 1.1039
 Frc consts  --      6.0365                 6.1293                 6.1492
 IR Inten    --    275.5377               117.6619                70.5804

                    127                    128                    129
                      A                      A                      A
 Frequencies --   3076.4907              3158.4344              3171.9934
 Red. masses --      1.1011                 1.0858                 1.0897
 Frc consts  --      6.1404                 6.3818                 6.4601
 IR Inten    --     72.8787                 8.5591                19.1658

                    130                    131                    132
                      A                      A                      A
 Frequencies --   3185.5286              3190.5310              3534.4937
 Red. masses --      1.0926                 1.0944                 1.0639
 Frc consts  --      6.5322                 6.5637                 7.8306
 IR Inten    --     24.2620                35.0510               194.9179

 - Thermochemistry -
 -------------------
 Temperature   298.150 Kelvin.  Pressure   1.00000 Atm.
 Atom     1 has atomic number  6 and mass  12.00000

 Molecular mass:   300.17254 amu.
 Principal axes and moments of inertia in atomic units:
                           1         2         3
     Eigenvalues --  2482.25989********************
           X            0.82773   0.52819   0.18941
           Y           -0.35936   0.75824  -0.54399
           Z           -0.43095   0.38221   0.81743
 This molecule is an asymmetric top.
 Rotational symmetry number  1.
 Warning -- assumption of classical behavior for rotation
           may cause significant error
 Rotational temperatures (Kelvin)      0.03489     0.00341     0.00323
 Rotational constants (GHZ):           0.72706     0.07097     0.06730
 Zero-point vibrational energy    1020477.4 (Joules/Mol)
                                  243.89996 (Kcal/Mol)
 Warning -- explicit consideration of  32 degrees of freedom as
           vibrations may cause significant error
 Vibrational temperatures:     25.09    33.81    36.92    60.25    82.30
          (Kelvin)            111.87   134.66   138.45   165.78   184.31
                              207.39   215.56   217.60   234.01   260.21
                              320.40   350.30   367.18   416.42   441.70
                              460.02   502.33   534.73   546.45   611.51
                              619.87   646.28   653.79   696.22   713.94
                              768.98   826.46   927.13   944.05   971.24
                             1003.77  1016.73  1026.78  1047.29  1050.51
                             1066.52  1099.10  1106.58  1132.44  1172.86
                             1242.34  1268.83  1285.99  1305.14  1351.76
                             1393.90  1413.83  1422.65  1433.74  1434.61
                             1470.27  1484.01  1496.39  1511.85  1521.04
                             1528.42  1531.95  1541.69  1596.38  1622.03
                             1634.31  1660.00  1716.95  1729.59  1737.34
                             1771.24  1786.03  1806.48  1829.63  1843.29
                             1859.14  1886.31  1892.03  1904.39  1905.04
                             1912.26  1916.22  1919.76  1937.88  1942.87
                             1970.22  1991.54  2005.77  2008.09  2019.50
                             2047.63  2093.44  2099.01  2115.74  2117.04
                             2121.99  2127.03  2132.63  2140.81  2142.46
                             2153.00  2157.61  2162.44  2168.81  2200.18
                             2261.34  2334.75  2346.68  4298.22  4298.79
                             4302.59  4304.92  4313.06  4320.31  4321.01
                             4325.37  4330.08  4335.00  4335.62  4350.35
                             4357.37  4365.61  4376.75  4383.37  4419.37
                             4424.08  4426.38  4544.28  4563.79  4583.27
                             4590.46  5085.35

 Zero-point correction=                           0.388679 (Hartree/Particle)
 Thermal correction to Energy=                    0.410876
 Thermal correction to Enthalpy=                  0.411821
 Thermal correction to Gibbs Free Energy=         0.333651
 Sum of electronic and zero-point Energies=           -964.203455
 Sum of electronic and thermal Energies=              -964.181258
 Sum of electronic and thermal Enthalpies=            -964.180313
 Sum of electronic and thermal Free Energies=         -964.258483

                     E (Thermal)             CV                S
                      KCal/Mol        Cal/Mol-Kelvin    Cal/Mol-Kelvin
 Total                  257.829             83.401            164.522
 Electronic               0.000              0.000              1.377
 Translational            0.889              2.981             42.994
 Rotational               0.889              2.981             35.780
 Vibrational            256.051             77.439             84.370
 Vibration     1          0.593              1.986              6.907
 Vibration     2          0.593              1.985              6.314
 Vibration     3          0.593              1.985              6.139
 Vibration     4          0.594              1.980              5.168
 Vibration     5          0.596              1.975              4.552
 Vibration     6          0.599              1.964              3.947
 Vibration     7          0.603              1.954              3.583
 Vibration     8          0.603              1.952              3.529
 Vibration     9          0.608              1.937              3.179
 Vibration    10          0.611              1.925              2.974
 Vibration    11          0.616              1.909              2.748
 Vibration    12          0.618              1.903              2.674
 Vibration    13          0.619              1.901              2.657
 Vibration    14          0.623              1.888              2.519
 Vibration    15          0.630              1.866              2.320
 Vibration    16          0.648              1.807              1.937
 Vibration    17          0.659              1.774              1.777
 Vibration    18          0.666              1.754              1.694
 Vibration    19          0.686              1.693              1.477
 Vibration    20          0.697              1.660              1.378
 Vibration    21          0.706              1.636              1.312
 Vibration    22          0.726              1.577              1.170
 Vibration    23          0.743              1.530              1.073
 Vibration    24          0.750              1.513              1.040
 Vibration    25          0.787              1.416              0.875
 Vibration    26          0.792              1.403              0.856
 Vibration    27          0.808              1.363              0.798
 Vibration    28          0.813              1.351              0.783
 Vibration    29          0.840              1.286              0.700
 Vibration    30          0.852              1.258              0.668
 Vibration    31          0.889              1.174              0.577
 Vibration    32          0.931              1.087              0.496

 Optimization completed.
    -- Stationary point found.
 Normal termination of Gaussian 16 at Sun Feb 11 04:54:24 2024.
