 Gaussian 16, Revision A.03,
 Gaussian 16:  ES64L-G16RevA.03 25-Dec-2016

 ----------------------------------------------------------------------
 #P UB3LYP/genecp nosym opt freq SCRF=(PCM,Solvent=n,n-DiMethylFormamid
 e)
 ----------------------------------------------------------------------

 -------
 Reduced
 -------
 Symbolic Z-matrix:
 Charge = -2 Multiplicity = 1

 SCF Done:  E(UB3LYP) =  -1133.52177614     A.U. after   17 cycles
 SCF Done:  E(UB3LYP) =  -1133.52235033     A.U. after   13 cycles
 SCF Done:  E(UB3LYP) =  -1133.52243229     A.U. after   14 cycles
 SCF Done:  E(UB3LYP) =  -1133.52265629     A.U. after   13 cycles
 SCF Done:  E(UB3LYP) =  -1133.52283737     A.U. after   13 cycles
 SCF Done:  E(UB3LYP) =  -1133.52284868     A.U. after   11 cycles
 SCF Done:  E(UB3LYP) =  -1133.52285114     A.U. after   11 cycles
 SCF Done:  E(UB3LYP) =  -1133.52285132     A.U. after   10 cycles
 Optimization completed.
    -- Stationary point found.
 Normal termination of Gaussian 16 at Sat Feb 10 10:43:32 2024.

 ------------------------------------------------------------------
 #P Geom=AllCheck Guess=TCheck SCRF=Check GenChk UB3LYP/GenECP Freq
 ------------------------------------------------------------------

 Structure from the checkpoint file:  "016-an.chk"
 -------
 Reduced
 -------
 Charge = -2 Multiplicity = 1

                          Input orientation:
 ---------------------------------------------------------------------
 Center     Atomic      Atomic             Coordinates (Angstroms)
 Number     Number       Type             X           Y           Z
 ---------------------------------------------------------------------
      1          6           0       -1.754045    1.465110    1.074924
      2          6           0       -2.925526    0.687389    0.815196
      3          6           0       -2.972286   -0.546787    0.175084
      4          6           0       -1.752118   -1.169827   -0.305384
      5          6           0       -0.573943   -0.398280   -0.056667
      6          6           0       -0.564912    0.852057    0.596511
      7          8           0       -1.723730   -2.321123   -0.902901
      8          8           0       -1.808806    2.611848    1.689718
      9         53           0        1.209410    1.989545    0.950980
     10         53           0        1.216446   -1.330883   -0.760602
     11          1           0       -3.843731    1.140906    1.170773
     12          6           0       -4.319392   -1.279458   -0.018261
     13          6           0       -5.524681   -0.479067    0.514488
     14          6           0       -4.289093   -2.626933    0.742152
     15          6           0       -4.571468   -1.536894   -1.522821
     16          1           0       -5.635532    0.483408    0.006441
     17          1           0       -5.453003   -0.289893    1.589353
     18          1           0       -6.440862   -1.052608    0.340500
     19          1           0       -4.194153   -2.455241    1.819764
     20          1           0       -3.445448   -3.230757    0.408415
     21          1           0       -5.217599   -3.184954    0.572618
     22          1           0       -4.666005   -0.588474   -2.062544
     23          1           0       -5.503677   -2.096562   -1.664033
     24          1           0       -3.745109   -2.102902   -1.951026
 ---------------------------------------------------------------------

 SCF Done:  E(UB3LYP) =  -1133.52285132     A.U. after    1 cycles

 Alpha  occ. eigenvalues --  -19.01866 -19.01485 -10.18157 -10.18002 -10.17461
 Alpha  occ. eigenvalues --  -10.17391 -10.16781 -10.14209 -10.14118 -10.13512
 Alpha  occ. eigenvalues --  -10.13381 -10.12699  -6.81769  -6.81665  -4.84103
 Alpha  occ. eigenvalues --   -4.83999  -4.83133  -4.83049  -4.83033  -4.82941
 Alpha  occ. eigenvalues --   -1.88928  -1.88824  -1.88614  -1.88550  -1.88514
 Alpha  occ. eigenvalues --   -1.88443  -1.87712  -1.87710  -1.87608  -1.87606
 Alpha  occ. eigenvalues --   -0.93355  -0.92895  -0.80880  -0.78427  -0.72021
 Alpha  occ. eigenvalues --   -0.68994  -0.66935  -0.66462  -0.64847  -0.63932
 Alpha  occ. eigenvalues --   -0.56482  -0.53108  -0.49921  -0.45115  -0.44266
 Alpha  occ. eigenvalues --   -0.42069  -0.40746  -0.40271  -0.38355  -0.37507
 Alpha  occ. eigenvalues --   -0.36257  -0.35960  -0.35121  -0.34828  -0.32887
 Alpha  occ. eigenvalues --   -0.32080  -0.31803  -0.31177  -0.30474  -0.29903
 Alpha  occ. eigenvalues --   -0.27397  -0.25890  -0.24824  -0.22974  -0.22493
 Alpha  occ. eigenvalues --   -0.20492  -0.19779  -0.18917  -0.12487
 Alpha virt. eigenvalues --   -0.02992   0.00084   0.01321   0.01694   0.02078
 Alpha virt. eigenvalues --    0.02164   0.02371   0.04109   0.04445   0.04566
 Alpha virt. eigenvalues --    0.04721   0.06050   0.06603   0.06902   0.07481

  Beta  occ. eigenvalues --  -19.01866 -19.01485 -10.18157 -10.18002 -10.17461
  Beta  occ. eigenvalues --  -10.17391 -10.16781 -10.14209 -10.14118 -10.13512
  Beta  occ. eigenvalues --  -10.13381 -10.12699  -6.81769  -6.81665  -4.84103
  Beta  occ. eigenvalues --   -4.83999  -4.83133  -4.83049  -4.83033  -4.82941
  Beta  occ. eigenvalues --   -1.88928  -1.88824  -1.88614  -1.88550  -1.88514
  Beta  occ. eigenvalues --   -1.88443  -1.87712  -1.87710  -1.87608  -1.87606
  Beta  occ. eigenvalues --   -0.93355  -0.92895  -0.80880  -0.78427  -0.72021
  Beta  occ. eigenvalues --   -0.68994  -0.66935  -0.66462  -0.64847  -0.63932
  Beta  occ. eigenvalues --   -0.56482  -0.53108  -0.49921  -0.45115  -0.44266
  Beta  occ. eigenvalues --   -0.42069  -0.40746  -0.40271  -0.38355  -0.37507
  Beta  occ. eigenvalues --   -0.36257  -0.35960  -0.35121  -0.34828  -0.32887
  Beta  occ. eigenvalues --   -0.32080  -0.31803  -0.31177  -0.30474  -0.29903
  Beta  occ. eigenvalues --   -0.27397  -0.25890  -0.24824  -0.22974  -0.22493
  Beta  occ. eigenvalues --   -0.20492  -0.19779  -0.18917  -0.12487
  Beta virt. eigenvalues --   -0.02992   0.00084   0.01321   0.01694   0.02078
  Beta virt. eigenvalues --    0.02164   0.02371   0.04109   0.04445   0.04566
  Beta virt. eigenvalues --    0.04721   0.06050   0.06603   0.06902   0.07481

 Mulliken charges and spin densities:
               1          2
     1  C   -1.228181   0.000000
     2  C   -0.231934  -0.000000
     3  C    1.030383   0.000000
     4  C   -1.065432   0.000000
     5  C    0.190280  -0.000000
     6  C    0.731389   0.000000
     7  O   -0.558353  -0.000000
     8  O   -0.648650  -0.000000
     9  I   -0.207381   0.000000
    10  I   -0.208492   0.000000
    11  H    0.155735  -0.000000
    12  C    0.634358  -0.000000
    13  C   -0.511597   0.000000
    14  C   -0.690673  -0.000000
    15  C   -0.673337  -0.000000
    16  H    0.126795   0.000000
    17  H    0.125013   0.000000
    18  H    0.162751  -0.000000
    19  H    0.122468   0.000000
    20  H    0.176316  -0.000000
    21  H    0.134972   0.000000
    22  H    0.120855  -0.000000
    23  H    0.135193   0.000000
    24  H    0.177523  -0.000000
 Sum of Mulliken charges =  -2.00000  -0.00000

 Dipole moment (field-independent basis, Debye):
    X=             10.7413    Y=             -2.4764    Z=             -3.4794  Tot=             11.5592
 Quadrupole moment (field-independent basis, Debye-Ang):
   XX=           -165.5557   YY=           -187.0931   ZZ=           -152.7684
   XY=              2.4559   XZ=              5.7189   YZ=            -26.2296

  Exact polarizability: 389.592  20.171 340.132 -11.604  59.917 252.474
 Approx polarizability: 408.001  14.591 378.031 -13.959  68.813 279.692

                      1                      2                      3
                      A                      A                      A
 Frequencies --     44.0279                51.8738                86.4507
 Red. masses --      7.8150                 4.7305                 4.3410
 Frc consts  --      0.0089                 0.0075                 0.0191
 IR Inten    --      2.6102                15.7148                 0.7338

                      4                      5                      6
                      A                      A                      A
 Frequencies --     96.2434               123.0315               169.5208
 Red. masses --     61.7361                 7.6115                 6.6592
 Frc consts  --      0.3369                 0.0679                 0.1128
 IR Inten    --      3.8807                 6.3628                11.4153

                      7                      8                      9
                      A                      A                      A
 Frequencies --    179.3735               211.3767               222.1588
 Red. masses --      7.4919                 4.2888                 4.5275
 Frc consts  --      0.1420                 0.1129                 0.1317
 IR Inten    --      1.5141                 2.8693                 9.9911

                     10                     11                     12
                      A                      A                      A
 Frequencies --    232.6916               240.2994               266.9642
 Red. masses --      1.1626                 3.9423                 1.4637
 Frc consts  --      0.0371                 0.1341                 0.0615
 IR Inten    --      2.4368                 5.2847                 2.2603

                     13                     14                     15
                      A                      A                      A
 Frequencies --    290.3596               295.9058               333.8905
 Red. masses --      4.9774                 2.7727                 1.6837
 Frc consts  --      0.2472                 0.1430                 0.1106
 IR Inten    --      0.0989                 6.7116                11.6123

                     16                     17                     18
                      A                      A                      A
 Frequencies --    340.5236               354.4397               408.9239
 Red. masses --      1.8102                 3.0854                 2.6424
 Frc consts  --      0.1237                 0.2284                 0.2603
 IR Inten    --     13.0264                 0.1342                 2.3446

                     19                     20                     21
                      A                      A                      A
 Frequencies --    413.1332               470.1650               482.6317
 Red. masses --      2.8801                 5.1039                 7.1441
 Frc consts  --      0.2896                 0.6647                 0.9805
 IR Inten    --      0.3457                17.0897                 2.9282

                     22                     23                     24
                      A                      A                      A
 Frequencies --    549.8844               566.9048               664.2859
 Red. masses --      4.7510                 4.0189                 6.3657
 Frc consts  --      0.8464                 0.7610                 1.6550
 IR Inten    --      0.5296                 0.7212                 7.8692

                     25                     26                     27
                      A                      A                      A
 Frequencies --    668.3715               724.4239               750.6524
 Red. masses --      4.6377                 8.2046                 7.4606
 Frc consts  --      1.2206                 2.5368                 2.4769
 IR Inten    --      0.5144               101.8558                15.1878

                     28                     29                     30
                      A                      A                      A
 Frequencies --    807.5943               831.0595               857.8918
 Red. masses --      5.0506                 4.2059                 1.6227
 Frc consts  --      1.9408                 1.7115                 0.7037
 IR Inten    --    269.5407               106.6950                31.9850

                     31                     32                     33
                      A                      A                      A
 Frequencies --    924.3351               926.7692               954.3446
 Red. masses --      1.7734                 1.7447                 1.2028
 Frc consts  --      0.8927                 0.8829                 0.6455
 IR Inten    --      0.4947                 9.9337                 0.7059

                     34                     35                     36
                      A                      A                      A
 Frequencies --    962.2784              1033.0142              1044.7835
 Red. masses --      4.9647                 1.5032                 1.3820
 Frc consts  --      2.7086                 0.9451                 0.8888
 IR Inten    --     39.5582                46.4816                 0.3566

                     37                     38                     39
                      A                      A                      A
 Frequencies --   1088.4632              1129.2071              1211.1303
 Red. masses --      2.9270                10.4630                 2.3988
 Frc consts  --      2.0431                 7.8605                 2.0731
 IR Inten    --    112.6293               304.4827                64.6316

                     40                     41                     42
                      A                      A                      A
 Frequencies --   1212.0604              1254.0211              1265.2253
 Red. masses --      2.7298                 2.1903                 3.2457
 Frc consts  --      2.3628                 2.0294                 3.0612
 IR Inten    --      9.4541               208.6265                54.5002

                     43                     44                     45
                      A                      A                      A
 Frequencies --   1320.5262              1364.9258              1368.0047
 Red. masses --      5.1286                 1.2486                 1.9896
 Frc consts  --      5.2692                 1.3705                 2.1938
 IR Inten    --    158.4186                43.0923               116.7251

                     46                     47                     48
                      A                      A                      A
 Frequencies --   1373.6457              1388.6988              1409.6339
 Red. masses --      4.5636                 1.9876                 1.5739
 Frc consts  --      5.0735                 2.2583                 1.8426
 IR Inten    --    676.5554               553.8889               328.0903

                     49                     50                     51
                      A                      A                      A
 Frequencies --   1428.9244              1466.4298              1485.9374
 Red. masses --      4.4852                 1.0478                 1.0888
 Frc consts  --      5.3957                 1.3275                 1.4165
 IR Inten    --    110.8108                 0.2767                 6.7435

                     52                     53                     54
                      A                      A                      A
 Frequencies --   1487.5442              1489.6383              1502.2858
 Red. masses --      1.0623                 1.0515                 1.0514
 Frc consts  --      1.3850                 1.3748                 1.3980
 IR Inten    --      3.5570                 0.4032                 6.3044

                     55                     56                     57
                      A                      A                      A
 Frequencies --   1515.2221              1579.6154              2998.1063
 Red. masses --      1.0586                 6.8206                 1.0390
 Frc consts  --      1.4320                10.0271                 5.5023
 IR Inten    --     11.5054               167.7861                90.2812

                     58                     59                     60
                      A                      A                      A
 Frequencies --   3002.2775              3014.6336              3052.9879
 Red. masses --      1.0386                 1.0358                 1.1004
 Frc consts  --      5.5158                 5.5462                 6.0429
 IR Inten    --    113.1987               116.2914                49.9252

                     61                     62                     63
                      A                      A                      A
 Frequencies --   3055.5468              3070.8215              3079.7429
 Red. masses --      1.0994                 1.1006                 1.1018
 Frc consts  --      6.0477                 6.1151                 6.1569
 IR Inten    --     81.3560               135.0064                75.3164

                     64                     65                     66
                      A                      A                      A
 Frequencies --   3114.1346              3117.9348              3162.8821
 Red. masses --      1.0976                 1.0974                 1.0869
 Frc consts  --      6.2714                 6.2858                 6.4060
 IR Inten    --      9.1933                14.3981                49.6214

 - Thermochemistry -
 -------------------
 Temperature   298.150 Kelvin.  Pressure   1.00000 Atm.
 Atom     1 has atomic number  6 and mass  12.00000

 Molecular mass:   415.86888 amu.
 Principal axes and moments of inertia in atomic units:
                           1         2         3
     Eigenvalues --  4495.622458178.57770**********
           X            0.89556  -0.42986   0.11489
           Y            0.43193   0.77786  -0.45647
           Z            0.10685   0.45842   0.88229
 This molecule is an asymmetric top.
 Rotational symmetry number  1.
 Warning -- assumption of classical behavior for rotation
           may cause significant error
 Rotational temperatures (Kelvin)      0.01927     0.01059     0.00706
 Rotational constants (GHZ):           0.40144     0.22067     0.14704
 Zero-point vibrational energy     452133.3 (Joules/Mol)
                                  108.06245 (Kcal/Mol)
 Warning -- explicit consideration of  23 degrees of freedom as
           vibrations may cause significant error
 Vibrational temperatures:     63.35    74.63   124.38   138.47   177.01
          (Kelvin)            243.90   258.08   304.12   319.64   334.79
                              345.74   384.10   417.76   425.74   480.39
                              489.94   509.96   588.35   594.41   676.46
                              694.40   791.16   815.65   955.76   961.64
                             1042.28  1080.02  1161.95  1195.71  1234.31
                             1329.91  1333.41  1373.09  1384.50  1486.28
                             1503.21  1566.06  1624.68  1742.55  1743.88
                             1804.26  1820.38  1899.94  1963.82  1968.25
                             1976.37  1998.03  2028.15  2055.90  2109.87
                             2137.93  2140.24  2143.26  2161.45  2180.07
                             2272.71  4313.61  4319.61  4337.39  4392.57
                             4396.25  4418.23  4431.06  4480.55  4486.01
                             4550.68

 Zero-point correction=                           0.172208 (Hartree/Particle)
 Thermal correction to Energy=                    0.187185
 Thermal correction to Enthalpy=                  0.188129
 Thermal correction to Gibbs Free Energy=         0.128103
 Sum of electronic and zero-point Energies=          -1133.350643
 Sum of electronic and thermal Energies=             -1133.335667
 Sum of electronic and thermal Enthalpies=           -1133.334723
 Sum of electronic and thermal Free Energies=        -1133.394748

                     E (Thermal)             CV                S
                      KCal/Mol        Cal/Mol-Kelvin    Cal/Mol-Kelvin
 Total                  117.460             54.486            126.335
 Electronic               0.000              0.000              0.000
 Translational            0.889              2.981             43.966
 Rotational               0.889              2.981             34.467
 Vibrational            115.683             48.525             47.902
 Vibration     1          0.595              1.980              5.069
 Vibration     2          0.596              1.977              4.745
 Vibration     3          0.601              1.959              3.739
 Vibration     4          0.603              1.952              3.529
 Vibration     5          0.610              1.930              3.052
 Vibration     6          0.625              1.880              2.441
 Vibration     7          0.629              1.868              2.335
 Vibration     8          0.643              1.824              2.032
 Vibration     9          0.648              1.807              1.941
 Vibration    10          0.653              1.791              1.858
 Vibration    11          0.657              1.779              1.801
 Vibration    12          0.672              1.734              1.616
 Vibration    13          0.686              1.692              1.472
 Vibration    14          0.690              1.681              1.440
 Vibration    15          0.715              1.608              1.241
 Vibration    16          0.720              1.595              1.210
 Vibration    17          0.730              1.566              1.146
 Vibration    18          0.773              1.451              0.930
 Vibration    19          0.777              1.442              0.916
 Vibration    20          0.827              1.316              0.737
 Vibration    21          0.839              1.289              0.703
 Vibration    22          0.905              1.140              0.544
 Vibration    23          0.923              1.103              0.510

                           ! Non-Optimized Parameters !
 Normal termination of Gaussian 16 at Sat Feb 10 11:11:08 2024.
