 Gaussian 16, Revision A.03,
 Gaussian 16:  ES64L-G16RevA.03 25-Dec-2016

 ----------------------------------------------------------------------
 #P UB3LYP/6-311++G(d,p) nosym opt freq SCRF=(PCM,Solvent=n,n-DiMethylF
 ormamide)
 ----------------------------------------------------------------------

 -------
 Reduced
 -------
 Symbolic Z-matrix:
 Charge = -2 Multiplicity = 1

 SCF Done:  E(UB3LYP) =  -1897.26449013     A.U. after   19 cycles
 SCF Done:  E(UB3LYP) =  -1897.26739462     A.U. after   15 cycles
 SCF Done:  E(UB3LYP) =  -1897.26858912     A.U. after   14 cycles
 SCF Done:  E(UB3LYP) =  -1897.26889119     A.U. after   14 cycles
 SCF Done:  E(UB3LYP) =  -1897.26902086     A.U. after   15 cycles
 SCF Done:  E(UB3LYP) =  -1897.26921709     A.U. after   14 cycles
 SCF Done:  E(UB3LYP) =  -1897.26935287     A.U. after   13 cycles
 SCF Done:  E(UB3LYP) =  -1897.26937562     A.U. after   12 cycles
 SCF Done:  E(UB3LYP) =  -1897.26938578     A.U. after   12 cycles
 SCF Done:  E(UB3LYP) =  -1897.26939422     A.U. after   12 cycles
 SCF Done:  E(UB3LYP) =  -1897.26939551     A.U. after   11 cycles
 SCF Done:  E(UB3LYP) =  -1897.26939648     A.U. after   10 cycles
 SCF Done:  E(UB3LYP) =  -1897.26939673     A.U. after   10 cycles
 Optimization completed.
    -- Stationary point found.
 Normal termination of Gaussian 16 at Sun Feb 11 00:18:14 2024.

 ----------------------------------------------------------------------
 #P Geom=AllCheck Guess=TCheck SCRF=Check GenChk UB3LYP/6-311++G(d,p) F
 req
 ----------------------------------------------------------------------

 Structure from the checkpoint file:  "220-an.chk"
 -------
 Reduced
 -------
 Charge = -2 Multiplicity = 1

                          Input orientation:
 ---------------------------------------------------------------------
 Center     Atomic      Atomic             Coordinates (Angstroms)
 Number     Number       Type             X           Y           Z
 ---------------------------------------------------------------------
      1          6           0        4.980913   -2.730289    0.055125
      2          6           0        5.713315   -1.791059   -0.639606
      3          6           0        5.079756   -0.677163   -1.268290
      4          6           0        3.578553   -2.627022    0.162831
      5          6           0        2.910718   -1.503823   -0.467481
      6          6           0        3.718363   -0.560275   -1.170424
      7          6           0        2.859957   -3.645442    0.899043
      8          6           0        1.426305   -3.450758    0.950697
      9          6           0        0.768854   -2.324484    0.314832
     10          6           0        1.488215   -1.314737   -0.409894
     11          6           0        0.639529   -4.390606    1.647824
     12          6           0       -0.651491   -2.235988    0.424692
     13          6           0       -1.401284   -3.159904    1.103676
     14          8           0        3.445118   -4.638775    1.458726
     15          8           0        0.896116   -0.304879   -0.971816
     16          1           0        5.468923   -3.570091    0.532274
     17          1           0       -2.478662   -3.069223    1.166107
     18          1           0        3.210280    0.273161   -1.640329
     19          1           0        1.141142   -5.223835    2.121985
     20          1           0       -1.134674   -1.395940   -0.060015
     21          6           0       -0.730712   -4.256860    1.723676
     22         16           0        7.466822   -1.962206   -0.748606
     23         16           0       -1.672055   -5.452677    2.618041
     24          8           0       -0.793046   -6.567239    3.016747
     25          8           0       -2.912175   -5.793862    1.896737
     26          7           0       -2.208843   -4.578539    3.966372
     27          1           0       -1.451503   -4.445172    4.633149
     28          1           0       -2.972493   -5.085040    4.410871
     29          8           0        7.868610   -3.253926   -0.162226
     30          8           0        7.941598   -1.661915   -2.112141
     31          7           0        8.030799   -0.661259    0.177946
     32          1           0        5.666090    0.052276   -1.813325
     33          1           0        9.013544   -0.499746   -0.034828
     34          1           0        7.921145   -0.852134    1.171631
 ---------------------------------------------------------------------

 SCF Done:  E(UB3LYP) =  -1897.26939673     A.U. after    2 cycles

 Alpha  occ. eigenvalues --  -89.06748 -89.06744 -19.11969 -19.11966 -19.11857
 Alpha  occ. eigenvalues --  -19.11856 -19.04141 -19.02471 -14.34248 -14.34241
 Alpha  occ. eigenvalues --  -10.20069 -10.19607 -10.19605 -10.18489 -10.17864
 Alpha  occ. eigenvalues --  -10.17859 -10.17272 -10.17272 -10.16302 -10.16295
 Alpha  occ. eigenvalues --  -10.15785 -10.15785 -10.15528 -10.15525  -8.12918
 Alpha  occ. eigenvalues --   -8.12915  -6.09214  -6.09210  -6.09174  -6.09171
 Alpha  occ. eigenvalues --   -6.08980  -6.08977  -1.11989  -1.11987  -1.00747
 Alpha  occ. eigenvalues --   -1.00746  -0.96074  -0.93931  -0.91203  -0.91191
 Alpha  occ. eigenvalues --   -0.85509  -0.85163  -0.78670  -0.75833  -0.75137
 Alpha  occ. eigenvalues --   -0.74241  -0.69246  -0.66602  -0.65351  -0.61194
 Alpha  occ. eigenvalues --   -0.60397  -0.57977  -0.55764  -0.54488  -0.54151
 Alpha  occ. eigenvalues --   -0.52300  -0.52086  -0.51040  -0.50395  -0.49043
 Alpha  occ. eigenvalues --   -0.47252  -0.46616  -0.46155  -0.44807  -0.44693
 Alpha  occ. eigenvalues --   -0.42538  -0.42224  -0.41188  -0.40251  -0.39961
 Alpha  occ. eigenvalues --   -0.38929  -0.37052  -0.36804  -0.36563  -0.36459
 Alpha  occ. eigenvalues --   -0.36049  -0.34154  -0.33978  -0.33928  -0.33682
 Alpha  occ. eigenvalues --   -0.33413  -0.32109  -0.31936  -0.31603  -0.31115
 Alpha  occ. eigenvalues --   -0.31073  -0.29210  -0.28911  -0.25779  -0.24671
 Alpha  occ. eigenvalues --   -0.23938  -0.23841  -0.21868  -0.20537  -0.12538
 Alpha virt. eigenvalues --   -0.05020  -0.03862  -0.00813  -0.00502   0.00191
 Alpha virt. eigenvalues --    0.01044   0.01700   0.02115   0.02278   0.03084
 Alpha virt. eigenvalues --    0.03403   0.03638   0.04153   0.04512   0.05348

  Beta  occ. eigenvalues --  -89.06748 -89.06744 -19.11969 -19.11966 -19.11857
  Beta  occ. eigenvalues --  -19.11856 -19.04141 -19.02471 -14.34248 -14.34241
  Beta  occ. eigenvalues --  -10.20069 -10.19607 -10.19605 -10.18489 -10.17864
  Beta  occ. eigenvalues --  -10.17859 -10.17272 -10.17272 -10.16302 -10.16295
  Beta  occ. eigenvalues --  -10.15785 -10.15785 -10.15528 -10.15525  -8.12918
  Beta  occ. eigenvalues --   -8.12915  -6.09214  -6.09210  -6.09174  -6.09171
  Beta  occ. eigenvalues --   -6.08980  -6.08977  -1.11989  -1.11987  -1.00747
  Beta  occ. eigenvalues --   -1.00746  -0.96074  -0.93931  -0.91203  -0.91191
  Beta  occ. eigenvalues --   -0.85509  -0.85163  -0.78670  -0.75833  -0.75137
  Beta  occ. eigenvalues --   -0.74241  -0.69246  -0.66602  -0.65351  -0.61194
  Beta  occ. eigenvalues --   -0.60397  -0.57977  -0.55764  -0.54488  -0.54151
  Beta  occ. eigenvalues --   -0.52300  -0.52086  -0.51040  -0.50395  -0.49043
  Beta  occ. eigenvalues --   -0.47252  -0.46616  -0.46155  -0.44807  -0.44693
  Beta  occ. eigenvalues --   -0.42538  -0.42224  -0.41188  -0.40251  -0.39961
  Beta  occ. eigenvalues --   -0.38929  -0.37052  -0.36804  -0.36563  -0.36459
  Beta  occ. eigenvalues --   -0.36049  -0.34154  -0.33978  -0.33928  -0.33682
  Beta  occ. eigenvalues --   -0.33413  -0.32109  -0.31936  -0.31603  -0.31115
  Beta  occ. eigenvalues --   -0.31073  -0.29210  -0.28911  -0.25779  -0.24671
  Beta  occ. eigenvalues --   -0.23938  -0.23841  -0.21868  -0.20537  -0.12538
  Beta virt. eigenvalues --   -0.05020  -0.03862  -0.00813  -0.00502   0.00191
  Beta virt. eigenvalues --    0.01044   0.01700   0.02115   0.02278   0.03084
  Beta virt. eigenvalues --    0.03403   0.03638   0.04153   0.04512   0.05348

 Mulliken charges and spin densities:
               1          2
     1  C    0.040431   0.000000
     2  C   -0.888230  -0.000000
     3  C   -0.269242   0.000000
     4  C    0.347020   0.000000
     5  C    0.682114   0.000000
     6  C   -0.313930   0.000000
     7  C   -0.929284   0.000000
     8  C    0.336853   0.000000
     9  C    0.686745  -0.000000
    10  C   -0.251645   0.000000
    11  C    0.036219  -0.000000
    12  C   -0.310846  -0.000000
    13  C   -0.276768  -0.000000
    14  O   -0.566536   0.000000
    15  O   -0.645195   0.000000
    16  H    0.222359   0.000000
    17  H    0.234163  -0.000000
    18  H    0.153252  -0.000000
    19  H    0.221555   0.000000
    20  H    0.153883  -0.000000
    21  C   -0.848516   0.000000
    22  S    0.362248   0.000000
    23  S    0.352068  -0.000000
    24  O   -0.261139  -0.000000
    25  O   -0.313932  -0.000000
    26  N   -0.431606   0.000000
    27  H    0.300383   0.000000
    28  H    0.321971  -0.000000
    29  O   -0.259066  -0.000000
    30  O   -0.309811  -0.000000
    31  N   -0.432082  -0.000000
    32  H    0.234616  -0.000000
    33  H    0.321827   0.000000
    34  H    0.300122  -0.000000
 Sum of Mulliken charges =  -2.00000   0.00000

 Dipole moment (field-independent basis, Debye):
    X=            -21.8464    Y=             31.5570    Z=              2.8509  Tot=             38.4868
 Quadrupole moment (field-independent basis, Debye-Ang):
   XX=           -292.7434   YY=           -323.7914   ZZ=           -166.7506
   XY=             72.4280   XZ=             25.2619   YZ=             22.5413

  Exact polarizability: 753.465 115.654 414.225-139.519-138.110 324.981
 Approx polarizability: 812.570 102.680 480.320-134.373-158.965 368.751

                      1                      2                      3
                      A                      A                      A
 Frequencies --     13.2285                20.0080                36.6576
 Red. masses --      7.1919                 7.4191                 9.2540
 Frc consts  --      0.0007                 0.0017                 0.0073
 IR Inten    --      5.5116                 5.3750                 7.9298

                      4                      5                      6
                      A                      A                      A
 Frequencies --     55.4749                74.8684                89.3715
 Red. masses --      5.6156                10.4809                 6.7021
 Frc consts  --      0.0102                 0.0346                 0.0315
 IR Inten    --      8.2059                 0.8799                14.8905

                      7                      8                      9
                      A                      A                      A
 Frequencies --    130.6050               135.6768               150.0769
 Red. masses --      5.7746                 4.4644                 3.6612
 Frc consts  --      0.0580                 0.0484                 0.0486
 IR Inten    --     17.2839                 7.7334                 6.3460

                     10                     11                     12
                      A                      A                      A
 Frequencies --    168.2270               190.3540               195.4682
 Red. masses --      4.9046                13.2220                 1.7466
 Frc consts  --      0.0818                 0.2823                 0.0393
 IR Inten    --     23.8953                 1.3663                85.2630

                     13                     14                     15
                      A                      A                      A
 Frequencies --    219.8995               229.9604               248.6314
 Red. masses --      1.5719                 8.4944                 2.9955
 Frc consts  --      0.0448                 0.2647                 0.1091
 IR Inten    --     14.0685                13.5341                39.3064

                     16                     17                     18
                      A                      A                      A
 Frequencies --    251.4761               270.6952               320.6037
 Red. masses --      7.8757                12.0817                 3.9379
 Frc consts  --      0.2934                 0.5216                 0.2385
 IR Inten    --     12.5269                 0.1059                13.2193

                     19                     20                     21
                      A                      A                      A
 Frequencies --    329.2596               360.2961               367.1585
 Red. masses --      4.0804                 4.7221                 4.6868
 Frc consts  --      0.2606                 0.3612                 0.3723
 IR Inten    --     66.0102                17.7527                75.3783

                     22                     23                     24
                      A                      A                      A
 Frequencies --    377.1064               408.7690               426.4895
 Red. masses --      9.0361                 4.3611                 4.6451
 Frc consts  --      0.7571                 0.4293                 0.4978
 IR Inten    --      0.1267                14.5848                35.5423

                     25                     26                     27
                      A                      A                      A
 Frequencies --    428.4600               436.8990               452.6316
 Red. masses --      6.8061                 6.8506                 7.2518
 Frc consts  --      0.7362                 0.7704                 0.8754
 IR Inten    --     41.6109                 7.6745                17.9883

                     28                     29                     30
                      A                      A                      A
 Frequencies --    457.3595               472.0267               490.4581
 Red. masses --      5.2375                 3.6103                 7.5834
 Frc consts  --      0.6455                 0.4739                 1.0748
 IR Inten    --    295.9728                63.0359                33.5615

                     31                     32                     33
                      A                      A                      A
 Frequencies --    493.7048               501.2215               542.7723
 Red. masses --     10.3652                10.8041                 6.8803
 Frc consts  --      1.4886                 1.5992                 1.1942
 IR Inten    --     80.5941                 1.4764               458.6370

                     34                     35                     36
                      A                      A                      A
 Frequencies --    554.7677               556.4515               617.7553
 Red. masses --      7.5240                 6.8779                 4.5496
 Frc consts  --      1.3643                 1.2548                 1.0230
 IR Inten    --    390.1510                74.3788                21.4852

                     37                     38                     39
                      A                      A                      A
 Frequencies --    644.9035               665.2332               672.8536
 Red. masses --      7.4345                 6.2613                 4.5938
 Frc consts  --      1.8218                 1.6325                 1.2254
 IR Inten    --      4.1955               200.4084               381.9580

                     40                     41                     42
                      A                      A                      A
 Frequencies --    682.7246               696.4131               701.5975
 Red. masses --      4.3835                 6.6376                 4.5721
 Frc consts  --      1.2038                 1.8967                 1.3260
 IR Inten    --    467.4001                39.6754                 5.5507

                     43                     44                     45
                      A                      A                      A
 Frequencies --    713.8580               720.9140               778.3445
 Red. masses --      3.3792                 6.5046                 2.2200
 Frc consts  --      1.0146                 1.9918                 0.7924
 IR Inten    --     23.3348               156.7804                16.8752

                     46                     47                     48
                      A                      A                      A
 Frequencies --    791.1517               822.1513               842.0622
 Red. masses --      1.4731                 3.6975                 2.8014
 Frc consts  --      0.5433                 1.4725                 1.1704
 IR Inten    --      1.7305                30.9421               155.0010

                     49                     50                     51
                      A                      A                      A
 Frequencies --    857.7454               871.4923               923.6734
 Red. masses --      1.6396                 2.4886                 6.2036
 Frc consts  --      0.7107                 1.1136                 3.1184
 IR Inten    --    577.9483                83.5016                10.1588

                     52                     53                     54
                      A                      A                      A
 Frequencies --    943.8468               949.2674               977.9586
 Red. masses --      1.3514                 1.3974                 1.2937
 Frc consts  --      0.7093                 0.7419                 0.7290
 IR Inten    --      2.1188                14.3448                 0.6840

                     55                     56                     57
                      A                      A                      A
 Frequencies --    980.7056               984.5589              1037.9020
 Red. masses --      1.3537                 4.3314                 2.6781
 Frc consts  --      0.7671                 2.4738                 1.6997
 IR Inten    --      7.7394                12.7268               691.4188

                     58                     59                     60
                      A                      A                      A
 Frequencies --   1041.1119              1054.4810              1057.1629
 Red. masses --      2.9125                 6.3753                 3.8748
 Frc consts  --      1.8600                 4.1767                 2.5514
 IR Inten    --    157.2325              2360.1453               323.1308

                     61                     62                     63
                      A                      A                      A
 Frequencies --   1101.4941              1105.5669              1109.4713
 Red. masses --      1.3784                 2.7439                 1.6565
 Frc consts  --      0.9854                 1.9760                 1.2014
 IR Inten    --    545.6172               652.3185                26.2564

                     64                     65                     66
                      A                      A                      A
 Frequencies --   1130.3501              1163.2262              1175.1430
 Red. masses --      1.6713                 1.7240                 6.9055
 Frc consts  --      1.2581                 1.3744                 5.6186
 IR Inten    --     56.0073               171.0985               838.5637

                     67                     68                     69
                      A                      A                      A
 Frequencies --   1189.2762              1210.6536              1216.5870
 Red. masses --      2.8605                 1.5753                 7.4214
 Frc consts  --      2.3837                 1.3603                 6.4718
 IR Inten    --    167.9878               105.5091               714.5547

                     70                     71                     72
                      A                      A                      A
 Frequencies --   1219.0537              1239.8603              1325.1432
 Red. masses --      7.3902                 1.9877                 3.4745
 Frc consts  --      6.4707                 1.8003                 3.5948
 IR Inten    --    269.7567               214.9937               269.2346

                     73                     74                     75
                      A                      A                      A
 Frequencies --   1325.9831              1346.3090              1359.3578
 Red. masses --      2.7804                 4.3157                 6.4550
 Frc consts  --      2.8802                 4.6089                 7.0277
 IR Inten    --    205.3969              1741.2248               774.4481

                     76                     77                     78
                      A                      A                      A
 Frequencies --   1431.2675              1447.7222              1465.1085
 Red. masses --      7.8842                 2.7449                 2.4184
 Frc consts  --      9.5159                 3.3896                 3.0586
 IR Inten    --    871.7439               122.1645                 1.3759

                     79                     80                     81
                      A                      A                      A
 Frequencies --   1481.7768              1490.7062              1519.3269
 Red. masses --      7.9831                 7.0896                 6.7374
 Frc consts  --     10.3273                 9.2823                 9.1631
 IR Inten    --    185.3260               140.6936                45.8228

                     82                     83                     84
                      A                      A                      A
 Frequencies --   1556.5263              1578.9902              1582.3662
 Red. masses --      6.6229                 1.3212                 1.1767
 Frc consts  --      9.4540                 1.9408                 1.7359
 IR Inten    --      4.4057                98.1134               109.4227

                     85                     86                     87
                      A                      A                      A
 Frequencies --   1587.5979              1601.8741              3176.9747
 Red. masses --      2.7208                 6.9931                 1.0861
 Frc consts  --      4.0404                10.5724                 6.4586
 IR Inten    --    418.5507                 0.5600                10.2957

                     88                     89                     90
                      A                      A                      A
 Frequencies --   3179.8122              3193.3658              3195.1173
 Red. masses --      1.0858                 1.0945                 1.0945
 Frc consts  --      6.4686                 6.5763                 6.5831
 IR Inten    --      6.8142                23.5182                24.3650

                     91                     92                     93
                      A                      A                      A
 Frequencies --   3202.5596              3207.1486              3475.8506
 Red. masses --      1.0896                 1.0892                 1.0476
 Frc consts  --      6.5844                 6.6011                 7.4570
 IR Inten    --      7.1084                 6.8161                50.6348

                     94                     95                     96
                      A                      A                      A
 Frequencies --   3476.5289              3572.4453              3573.3292
 Red. masses --      1.0476                 1.0968                 1.0968
 Frc consts  --      7.4601                 8.2471                 8.2511
 IR Inten    --     51.3469                40.4056                41.4768

 - Thermochemistry -
 -------------------
 Temperature   298.150 Kelvin.  Pressure   1.00000 Atm.
 Atom     1 has atomic number  6 and mass  12.00000

 Molecular mass:   365.99803 amu.
 Principal axes and moments of inertia in atomic units:
                           1         2         3
     Eigenvalues --  3310.00784********************
           X            0.88334  -0.45837   0.09802
           Y            0.33754   0.76713   0.54550
           Z           -0.32523  -0.44878   0.83236
 This molecule is an asymmetric top.
 Rotational symmetry number  1.
 Warning -- assumption of classical behavior for rotation
           may cause significant error
 Rotational temperatures (Kelvin)      0.02617     0.00407     0.00364
 Rotational constants (GHZ):           0.54524     0.08481     0.07579
 Zero-point vibrational energy     596343.5 (Joules/Mol)
                                  142.52953 (Kcal/Mol)
 Warning -- explicit consideration of  36 degrees of freedom as
           vibrations may cause significant error
 Vibrational temperatures:     19.03    28.79    52.74    79.82   107.72
          (Kelvin)            128.59   187.91   195.21   215.93   242.04
                              273.88   281.24   316.39   330.86   357.73
                              361.82   389.47   461.28   473.73   518.39
                              528.26   542.57   588.13   613.62   616.46
                              628.60   651.24   658.04   679.14   705.66
                              710.33   721.15   780.93   798.19   800.61
                              888.81   927.87   957.12   968.09   982.29
                             1001.98  1009.44  1027.08  1037.23  1119.86
                             1138.29  1182.89  1211.54  1234.10  1253.88
                             1328.96  1357.99  1365.78  1407.06  1411.02
                             1416.56  1493.31  1497.93  1517.16  1521.02
                             1584.80  1590.66  1596.28  1626.32  1673.62
                             1690.77  1711.10  1741.86  1750.40  1753.95
                             1783.88  1906.59  1907.79  1937.04  1955.81
                             2059.27  2082.95  2107.96  2131.95  2144.79
                             2185.97  2239.49  2271.81  2276.67  2284.20
                             2304.74  4570.96  4575.04  4594.54  4597.06
                             4607.77  4614.37  5000.97  5001.95  5139.95
                             5141.22

 Zero-point correction=                           0.227135 (Hartree/Particle)
 Thermal correction to Energy=                    0.248400
 Thermal correction to Enthalpy=                  0.249344
 Thermal correction to Gibbs Free Energy=         0.174981
 Sum of electronic and zero-point Energies=          -1897.042261
 Sum of electronic and thermal Energies=             -1897.020997
 Sum of electronic and thermal Enthalpies=           -1897.020053
 Sum of electronic and thermal Free Energies=        -1897.094416

                     E (Thermal)             CV                S
                      KCal/Mol        Cal/Mol-Kelvin    Cal/Mol-Kelvin
 Total                  155.873             81.871            156.509
 Electronic               0.000              0.000              0.000
 Translational            0.889              2.981             43.585
 Rotational               0.889              2.981             35.771
 Vibrational            154.096             75.910             77.153
 Vibration     1          0.593              1.987              7.455
 Vibration     2          0.593              1.986              6.633
 Vibration     3          0.594              1.982              5.432
 Vibration     4          0.596              1.975              4.612
 Vibration     5          0.599              1.966              4.021
 Vibration     6          0.602              1.957              3.674
 Vibration     7          0.612              1.923              2.937
 Vibration     8          0.614              1.918              2.864
 Vibration     9          0.618              1.903              2.671
 Vibration    10          0.625              1.882              2.455
 Vibration    11          0.634              1.853              2.224
 Vibration    12          0.636              1.846              2.175
 Vibration    13          0.647              1.811              1.960
 Vibration    14          0.652              1.795              1.879
 Vibration    15          0.662              1.765              1.740
 Vibration    16          0.663              1.760              1.720
 Vibration    17          0.674              1.727              1.592
 Vibration    18          0.706              1.634              1.307
 Vibration    19          0.712              1.617              1.264
 Vibration    20          0.735              1.554              1.121
 Vibration    21          0.740              1.540              1.092
 Vibration    22          0.748              1.519              1.051
 Vibration    23          0.773              1.451              0.931
 Vibration    24          0.788              1.413              0.870
 Vibration    25          0.790              1.408              0.864
 Vibration    26          0.797              1.390              0.836
 Vibration    27          0.811              1.355              0.788
 Vibration    28          0.815              1.345              0.774
 Vibration    29          0.829              1.312              0.732
 Vibration    30          0.846              1.271              0.682
 Vibration    31          0.849              1.264              0.674
 Vibration    32          0.857              1.247              0.655
 Vibration    33          0.898              1.156              0.559
 Vibration    34          0.910              1.129              0.534
 Vibration    35          0.912              1.126              0.531
 Vibration    36          0.978              0.994              0.420

                           ! Non-Optimized Parameters !
 Normal termination of Gaussian 16 at Sun Feb 11 01:56:24 2024.
