 Gaussian 16, Revision A.03,
 Gaussian 16:  ES64L-G16RevA.03 25-Dec-2016

 --------------------------------------
 #P UB3LYP/6-311++G(d,p) nosym opt freq
 --------------------------------------

 -------
 Radical
 -------
 Symbolic Z-matrix:
 Charge = -1 Multiplicity = 2

 SCF Done:  E(UB3LYP) =  -3112.48226427     A.U. after   20 cycles
 SCF Done:  E(UB3LYP) =  -3112.48226441     A.U. after   11 cycles
 SCF Done:  E(UB3LYP) =  -3112.48226458     A.U. after   11 cycles
 SCF Done:  E(UB3LYP) =  -3112.48226463     A.U. after    9 cycles
 SCF Done:  E(UB3LYP) =  -3112.48226492     A.U. after   12 cycles
 SCF Done:  E(UB3LYP) =  -3112.44224937     A.U. after   20 cycles
 SCF Done:  E(UB3LYP) =  -3112.48232194     A.U. after   19 cycles
 SCF Done:  E(UB3LYP) =  -3112.48233682     A.U. after   17 cycles
 SCF Done:  E(UB3LYP) =  -3112.48357807     A.U. after   18 cycles
 SCF Done:  E(UB3LYP) =  -3112.48609190     A.U. after   17 cycles
 SCF Done:  E(UB3LYP) =  -3112.48452825     A.U. after   19 cycles
 SCF Done:  E(UB3LYP) =  -3112.48606046     A.U. after   17 cycles
 SCF Done:  E(UB3LYP) =  -3112.48785605     A.U. after   14 cycles
 SCF Done:  E(UB3LYP) =  -3112.48714487     A.U. after   19 cycles
 SCF Done:  E(UB3LYP) =  -3112.48930186     A.U. after   15 cycles
 SCF Done:  E(UB3LYP) =  -3112.48954500     A.U. after   15 cycles
 SCF Done:  E(UB3LYP) =  -3112.48957263     A.U. after   14 cycles
 SCF Done:  E(UB3LYP) =  -3112.48958872     A.U. after   13 cycles
 SCF Done:  E(UB3LYP) =  -3112.48958960     A.U. after   12 cycles
 Optimization completed.
    -- Stationary point found.
 Normal termination of Gaussian 16 at Sat Jan  6 06:56:49 2024.

 ----------------------------------------------------------------------
 #P Geom=AllCheck Guess=TCheck SCRF=Check GenChk UB3LYP/6-311++G(d,p) F
 req
 ----------------------------------------------------------------------

 Structure from the checkpoint file:  "004-rad.chk"
 -------
 Radical
 -------
 Charge = -1 Multiplicity = 2

                          Input orientation:
 ---------------------------------------------------------------------
 Center     Atomic      Atomic             Coordinates (Angstroms)
 Number     Number       Type             X           Y           Z
 ---------------------------------------------------------------------
      1          6           0       -1.090690    1.600873    1.033178
      2          6           0       -2.372087    0.923227    0.914227
      3          6           0       -2.688042   -0.050417    0.000171
      4          6           0       -1.663566   -0.472254   -0.963999
      5          6           0       -0.377081    0.187865   -0.867585
      6          6           0       -0.114441    1.151152    0.061669
      7         35           0        1.638755    1.976172    0.109470
      8          6           0       -4.077892   -0.710072   -0.045652
      9          6           0       -4.729073   -0.459824   -1.427805
     10          6           0       -5.029586   -0.153499    1.030157
     11          6           0       -3.940136   -2.234339    0.188779
     12          8           0       -0.883850    2.485081    1.900057
     13          8           0       -1.853659   -1.360270   -1.844363
     14          1           0       -3.097489    1.264640    1.642845
     15          1           0        0.373638   -0.128160   -1.581608
     16          1           0       -4.864640    0.613412   -1.597579
     17          1           0       -5.715647   -0.937737   -1.473819
     18          1           0       -4.101841   -0.862057   -2.222807
     19          1           0       -5.199265    0.920304    0.908576
     20          1           0       -4.647153   -0.323930    2.040778
     21          1           0       -5.999437   -0.656377    0.950430
     22          1           0       -3.295197   -2.679254   -0.568424
     23          1           0       -4.925763   -2.714637    0.146962
     24          1           0       -3.509099   -2.431549    1.175849
 ---------------------------------------------------------------------

 SCF Done:  E(UB3LYP) =  -3112.48958960     A.U. after    1 cycles

 Alpha  occ. eigenvalues -- -482.69621 -62.34900 -56.16913 -56.16568 -56.16543
 Alpha  occ. eigenvalues --  -18.94691 -18.94683 -10.09719 -10.09589 -10.08923
 Alpha  occ. eigenvalues --  -10.07699 -10.05413 -10.05148 -10.04364 -10.04291
 Alpha  occ. eigenvalues --  -10.04291 -10.03940  -8.55858  -6.38929  -6.37769
 Alpha  occ. eigenvalues --   -6.37695  -2.50036  -2.49715  -2.49659  -2.48735
 Alpha  occ. eigenvalues --   -2.48735  -0.87228  -0.86925  -0.72177  -0.70223
 Alpha  occ. eigenvalues --   -0.65502  -0.59976  -0.57947  -0.57218  -0.55360
 Alpha  occ. eigenvalues --   -0.48075  -0.45594  -0.40905  -0.36164  -0.35436
 Alpha  occ. eigenvalues --   -0.33001  -0.32072  -0.31714  -0.31056  -0.29524
 Alpha  occ. eigenvalues --   -0.27715  -0.27323  -0.26988  -0.25817  -0.25407
 Alpha  occ. eigenvalues --   -0.24166  -0.23926  -0.22256  -0.22083  -0.21424
 Alpha  occ. eigenvalues --   -0.19180  -0.15938  -0.14779  -0.12184  -0.11204
 Alpha  occ. eigenvalues --   -0.10744  -0.03401
 Alpha virt. eigenvalues --    0.07803   0.10005   0.10154   0.10194   0.10829
 Alpha virt. eigenvalues --    0.10978   0.11689   0.12985   0.12996   0.13423
 Alpha virt. eigenvalues --    0.14239   0.14805   0.15221   0.15557   0.15574

  Beta  occ. eigenvalues -- -482.69621 -62.34900 -56.16915 -56.16565 -56.16543
  Beta  occ. eigenvalues --  -18.93969 -18.93939 -10.09630 -10.09468 -10.08782
  Beta  occ. eigenvalues --  -10.07705 -10.05414 -10.05051 -10.04286 -10.04286
  Beta  occ. eigenvalues --  -10.04239 -10.03837  -8.55858  -6.38933  -6.37763
  Beta  occ. eigenvalues --   -6.37695  -2.50038  -2.49712  -2.49662  -2.48732
  Beta  occ. eigenvalues --   -2.48732  -0.85978  -0.85647  -0.71855  -0.69961
  Beta  occ. eigenvalues --   -0.65278  -0.59721  -0.57908  -0.57199  -0.54424
  Beta  occ. eigenvalues --   -0.47725  -0.45279  -0.40641  -0.35994  -0.35239
  Beta  occ. eigenvalues --   -0.32953  -0.31891  -0.31459  -0.30885  -0.28819
  Beta  occ. eigenvalues --   -0.27373  -0.26548  -0.26193  -0.25506  -0.25142
  Beta  occ. eigenvalues --   -0.23888  -0.22459  -0.21943  -0.21343  -0.21096
  Beta  occ. eigenvalues --   -0.18317  -0.15911  -0.11842  -0.11291  -0.10510
  Beta  occ. eigenvalues --   -0.10103
  Beta virt. eigenvalues --    0.03875   0.07804   0.10052   0.10179   0.10234
  Beta virt. eigenvalues --    0.10846   0.11703   0.11943   0.12990   0.13241
  Beta virt. eigenvalues --    0.13447   0.14405   0.14820   0.15605   0.15658

 Mulliken charges and spin densities:
               1          2
     1  C   -0.934220   0.069646
     2  C   -0.341475   0.050051
     3  C    1.130420   0.113234
     4  C   -0.764896   0.066739
     5  C   -0.417859   0.086501
     6  C    0.866535   0.111690
     7  Br  -0.238385   0.004428
     8  C    0.686602  -0.036359
     9  C   -0.684249   0.012344
    10  C   -0.524993  -0.000145
    11  C   -0.684434   0.012337
    12  O   -0.344843   0.269991
    13  O   -0.365855   0.260105
    14  H    0.179031  -0.008294
    15  H    0.205600  -0.010052
    16  H    0.115415   0.001011
    17  H    0.113872   0.000233
    18  H    0.194057  -0.001957
    19  H    0.122188  -0.000429
    20  H    0.122242  -0.000429
    21  H    0.141951   0.000060
    22  H    0.193978  -0.001951
    23  H    0.113895   0.000236
    24  H    0.115425   0.001008
 Sum of Mulliken charges =  -1.00000   1.00000

 Dipole moment (field-independent basis, Debye):
    X=              4.9168    Y=             -3.6491    Z=             -0.3640  Tot=              6.1338
 Quadrupole moment (field-independent basis, Debye-Ang):
   XX=           -114.3668   YY=           -118.0961   ZZ=           -111.8397
   XY=             -5.8211   XZ=             -4.0142   YZ=            -15.8715

  Exact polarizability: 200.198  43.420 160.465   2.414  36.763 146.792
 Approx polarizability: 257.768  51.039 262.794   8.634  86.920 251.994

                      1                      2                      3
                      A                      A                      A
 Frequencies --     51.3629                69.5469               149.6742
 Red. masses --      6.5644                 3.5415                 6.8838
 Frc consts  --      0.0102                 0.0101                 0.0909
 IR Inten    --      4.3020                 0.0376                 3.2357

                      4                      5                      6
                      A                      A                      A
 Frequencies --    159.4058               176.8297               209.6154
 Red. masses --      6.1463                 4.5651                 7.4881
 Frc consts  --      0.0920                 0.0841                 0.1938
 IR Inten    --      6.9730                 0.1513                 1.2755

                      7                      8                      9
                      A                      A                      A
 Frequencies --    227.2071               233.7836               269.8613
 Red. masses --      5.4932                 1.1095                 1.1145
 Frc consts  --      0.1671                 0.0357                 0.0478
 IR Inten    --      0.0068                 0.1476                 0.6317

                     10                     11                     12
                      A                      A                      A
 Frequencies --    289.3010               298.5666               325.4915
 Red. masses --      3.3858                 3.2591                 1.0429
 Frc consts  --      0.1670                 0.1712                 0.0651
 IR Inten    --      0.2387                 0.2878                 0.0336

                     13                     14                     15
                      A                      A                      A
 Frequencies --    333.3859               371.9709               403.9428
 Red. masses --      4.1406                 2.9884                 3.2330
 Frc consts  --      0.2711                 0.2436                 0.3108
 IR Inten    --      7.1578                 0.0090                 1.0027

                     16                     17                     18
                      A                      A                      A
 Frequencies --    412.9057               464.4506               478.3565
 Red. masses --      2.6787                 3.7417                12.0169
 Frc consts  --      0.2691                 0.4756                 1.6201
 IR Inten    --      0.9439                10.8318                 4.9252

                     19                     20                     21
                      A                      A                      A
 Frequencies --    499.7761               570.7654               625.3543
 Red. masses --      3.5997                 4.5777                 4.5045
 Frc consts  --      0.5297                 0.8786                 1.0379
 IR Inten    --      1.2486                10.2696                 0.4308

                     22                     23                     24
                      A                      A                      A
 Frequencies --    686.7488               692.8212               745.2821
 Red. masses --      6.5584                 5.9868                 3.0634
 Frc consts  --      1.8224                 1.6931                 1.0025
 IR Inten    --      7.0512                 1.7193                 0.3156

                     25                     26                     27
                      A                      A                      A
 Frequencies --    813.0950               830.1032               855.4759
 Red. masses --      3.3286                 5.0832                 1.6565
 Frc consts  --      1.2966                 2.0637                 0.7142
 IR Inten    --      5.7408                89.7956                 3.1314

                     28                     29                     30
                      A                      A                      A
 Frequencies --    892.0152               925.2034               933.0293
 Red. masses --      1.5380                 1.7689                 1.7612
 Frc consts  --      0.7210                 0.8921                 0.9033
 IR Inten    --     29.1600                 0.6979                 3.6490

                     31                     32                     33
                      A                      A                      A
 Frequencies --    941.3676               958.5474              1034.6403
 Red. masses --      4.0658                 1.2034                 1.7434
 Frc consts  --      2.1228                 0.6514                 1.0996
 IR Inten    --     25.2097                 0.2543                56.7781

                     34                     35                     36
                      A                      A                      A
 Frequencies --   1048.9008              1062.3831              1156.0951
 Red. masses --      1.3807                 1.9395                 8.6718
 Frc consts  --      0.8950                 1.2897                 6.8289
 IR Inten    --      0.0930                65.0126                 3.5230

                     37                     38                     39
                      A                      A                      A
 Frequencies --   1215.3924              1223.3872              1233.7415
 Red. masses --      2.6736                 2.5372                 1.4358
 Frc consts  --      2.3269                 2.2373                 1.2876
 IR Inten    --      4.5395                10.5279                 2.0615

                     40                     41                     42
                      A                      A                      A
 Frequencies --   1269.3635              1311.2838              1375.4737
 Red. masses --      2.3004                 2.0445                 1.2108
 Frc consts  --      2.1838                 2.0712                 1.3496
 IR Inten    --     17.6114                28.3583                11.8206

                     43                     44                     45
                      A                      A                      A
 Frequencies --   1379.9540              1393.0361              1411.2699
 Red. masses --      1.4218                 3.4610                 1.2547
 Frc consts  --      1.5952                 3.9571                 1.4723
 IR Inten    --     29.3822                 9.0135                25.1560

                     46                     47                     48
                      A                      A                      A
 Frequencies --   1471.8072              1484.3045              1494.6221
 Red. masses --      1.0466                 1.8259                 1.4311
 Frc consts  --      1.3358                 2.3702                 1.8836
 IR Inten    --      0.2046               119.3569                 1.4996

                     49                     50                     51
                      A                      A                      A
 Frequencies --   1495.4859              1498.3465              1510.9962
 Red. masses --      1.0465                 1.6247                 1.0515
 Frc consts  --      1.3789                 2.1490                 1.4145
 IR Inten    --      0.9118                 6.7347                 3.8676

                     52                     53                     54
                      A                      A                      A
 Frequencies --   1512.1302              1525.7543              1534.0784
 Red. masses --      3.7958                 1.9121                 1.7618
 Frc consts  --      5.1136                 2.6225                 2.4429
 IR Inten    --      1.7068               219.1139               158.5742

                     55                     56                     57
                      A                      A                      A
 Frequencies --   1623.8547              2994.7857              2999.4354
 Red. masses --      7.4701                 1.0422                 1.0411
 Frc consts  --     11.6057                 5.5075                 5.5184
 IR Inten    --     12.3727                47.6110                87.6485

                     58                     59                     60
                      A                      A                      A
 Frequencies --   3012.6956              3054.1121              3056.3201
 Red. masses --      1.0363                 1.0971                 1.0971
 Frc consts  --      5.5417                 6.0291                 6.0382
 IR Inten    --     97.5027                31.3010                24.3065

                     61                     62                     63
                      A                      A                      A
 Frequencies --   3068.4986              3081.4387              3120.9754
 Red. masses --      1.0994                 1.1016                 1.0974
 Frc consts  --      6.0992                 6.1627                 6.2979
 IR Inten    --     95.2965                42.9545                 0.0031

                     64                     65                     66
                      A                      A                      A
 Frequencies --   3123.5340              3180.9247              3186.1816
 Red. masses --      1.0967                 1.0875                 1.0907
 Frc consts  --      6.3042                 6.4830                 6.5238
 IR Inten    --     11.3039                13.7587                 2.0101

 - Thermochemistry -
 -------------------
 Temperature   298.150 Kelvin.  Pressure   1.00000 Atm.
 Atom     1 has atomic number  6 and mass  12.00000

 Molecular mass:   241.99424 amu.
 Principal axes and moments of inertia in atomic units:
                           1         2         3
     Eigenvalues --  1317.450386191.891347109.65269
           X            0.88207  -0.35249  -0.31256
           Y            0.46448   0.53977   0.70208
           Z            0.07877   0.76446  -0.63984
 This molecule is an asymmetric top.
 Rotational symmetry number  1.
 Warning -- assumption of classical behavior for rotation
           may cause significant error
 Rotational temperatures (Kelvin)      0.06574     0.01399     0.01218
 Rotational constants (GHZ):           1.36987     0.29147     0.25384
 Zero-point vibrational energy     484729.5 (Joules/Mol)
                                  115.85313 (Kcal/Mol)
 Warning -- explicit consideration of  20 degrees of freedom as
           vibrations may cause significant error
 Vibrational temperatures:     73.90   100.06   215.35   229.35   254.42
          (Kelvin)            301.59   326.90   336.36   388.27   416.24
                              429.57   468.31   479.67   535.18   581.18
                              594.08   668.24   688.25   719.07   821.20
                              899.75   988.08   996.82  1072.29  1169.86
                             1194.33  1230.84  1283.41  1331.16  1342.42
                             1354.42  1379.14  1488.62  1509.13  1528.53
                             1663.36  1748.68  1760.18  1775.08  1826.33
                             1886.64  1979.00  1985.45  2004.27  2030.50
                             2117.60  2135.58  2150.43  2151.67  2155.79
                             2173.99  2175.62  2195.22  2207.20  2336.36
                             4308.83  4315.52  4334.60  4394.19  4397.36
                             4414.89  4433.50  4490.39  4494.07  4576.64
                             4584.20

 Zero-point correction=                           0.184624 (Hartree/Particle)
 Thermal correction to Energy=                    0.197629
 Thermal correction to Enthalpy=                  0.198573
 Thermal correction to Gibbs Free Energy=         0.144323
 Sum of electronic and zero-point Energies=          -3112.304966
 Sum of electronic and thermal Energies=             -3112.291960
 Sum of electronic and thermal Enthalpies=           -3112.291016
 Sum of electronic and thermal Free Energies=        -3112.345267

                     E (Thermal)             CV                S
                      KCal/Mol        Cal/Mol-Kelvin    Cal/Mol-Kelvin
 Total                  124.014             49.496            114.180
 Electronic               0.000              0.000              1.377
 Translational            0.889              2.981             42.352
 Rotational               0.889              2.981             32.428
 Vibrational            122.237             43.534             38.022
 Vibration     1          0.596              1.977              4.764
 Vibration     2          0.598              1.969              4.166
 Vibration     3          0.618              1.903              2.676
 Vibration     4          0.621              1.892              2.557
 Vibration     5          0.628              1.871              2.362
 Vibration     6          0.642              1.826              2.047
 Vibration     7          0.651              1.800              1.901
 Vibration     8          0.654              1.789              1.850
 Vibration     9          0.674              1.729              1.597
 Vibration    10          0.686              1.694              1.478
 Vibration    11          0.692              1.676              1.425
 Vibration    12          0.710              1.625              1.282
 Vibration    13          0.715              1.609              1.244
 Vibration    14          0.744              1.530              1.072
 Vibration    15          0.769              1.462              0.948
 Vibration    16          0.777              1.442              0.916
 Vibration    17          0.822              1.329              0.753
 Vibration    18          0.835              1.298              0.715
 Vibration    19          0.855              1.251              0.659
 Vibration    20          0.927              1.094              0.503

                           ! Non-Optimized Parameters !
 Normal termination of Gaussian 16 at Sat Jan  6 07:32:16 2024.
