 Q-Chem 5.4, Q-Chem, Inc., Pleasanton, CA (2021)
 Q-Chem 5.4.0 for Intel X86 EM64T Linux

User input:
--------------------------------------------------------------
$molecule
-1 2
C                 -1.0906900000      1.6008730000      1.0331780000
C                 -2.3720870000      0.9232270000      0.9142270000
C                 -2.6880420000     -0.0504170000      0.0001710000
C                 -1.6635660000     -0.4722540000     -0.9639990000
C                 -0.3770810000      0.1878650000     -0.8675850000
C                 -0.1144410000      1.1511520000      0.0616690000
Br                 1.6387550000      1.9761720000      0.1094700000
C                 -4.0778920000     -0.7100720000     -0.0456520000
C                 -4.7290730000     -0.4598240000     -1.4278050000
C                 -5.0295860000     -0.1534990000      1.0301570000
C                 -3.9401360000     -2.2343390000      0.1887790000
O                 -0.8838500000      2.4850810000      1.9000570000
O                 -1.8536590000     -1.3602700000     -1.8443630000
H                 -3.0974890000      1.2646400000      1.6428450000
H                  0.3736380000     -0.1281600000     -1.5816080000
H                 -4.8646400000      0.6134120000     -1.5975790000
H                 -5.7156470000     -0.9377370000     -1.4738190000
H                 -4.1018410000     -0.8620570000     -2.2228070000
H                 -5.1992650000      0.9203040000      0.9085760000
H                 -4.6471530000     -0.3239300000      2.0407780000
H                 -5.9994370000     -0.6563770000      0.9504300000
H                 -3.2951970000     -2.6792540000     -0.5684240000
H                 -4.9257630000     -2.7146370000      0.1469620000
H                 -3.5090990000     -2.4315490000      1.1758490000
$end
$rem
MAX_SCF_CYCLES=200
BASIS  =  6-311++G(d,p)
GUI  =  2
JOB_TYPE  =  SP
METHOD  =  B3LYP
SOLVENT_METHOD = PCM
$end
$pcm
theory = CPCM
$end
$solvent
dielectric 37.219
opticaldielectric 1.43
$end

--------------------------------------------------------------

             Standard Nuclear Orientation (Angstroms)
    I     Atom           X                Y                Z
 ----------------------------------------------------------------
    1      C      -1.0906900000     1.6008730000     1.0331780000
    2      C      -2.3720870000     0.9232270000     0.9142270000
    3      C      -2.6880420000    -0.0504170000     0.0001710000
    4      C      -1.6635660000    -0.4722540000    -0.9639990000
    5      C      -0.3770810000     0.1878650000    -0.8675850000
    6      C      -0.1144410000     1.1511520000     0.0616690000
    7      Br      1.6387550000     1.9761720000     0.1094700000
    8      C      -4.0778920000    -0.7100720000    -0.0456520000
    9      C      -4.7290730000    -0.4598240000    -1.4278050000
   10      C      -5.0295860000    -0.1534990000     1.0301570000
   11      C      -3.9401360000    -2.2343390000     0.1887790000
   12      O      -0.8838500000     2.4850810000     1.9000570000
   13      O      -1.8536590000    -1.3602700000    -1.8443630000
   14      H      -3.0974890000     1.2646400000     1.6428450000
   15      H       0.3736380000    -0.1281600000    -1.5816080000
   16      H      -4.8646400000     0.6134120000    -1.5975790000
   17      H      -5.7156470000    -0.9377370000    -1.4738190000
   18      H      -4.1018410000    -0.8620570000    -2.2228070000
   19      H      -5.1992650000     0.9203040000     0.9085760000
   20      H      -4.6471530000    -0.3239300000     2.0407780000
   21      H      -5.9994370000    -0.6563770000     0.9504300000
   22      H      -3.2951970000    -2.6792540000    -0.5684240000
   23      H      -4.9257630000    -2.7146370000     0.1469620000
   24      H      -3.5090990000    -2.4315490000     1.1758490000
 ----------------------------------------------------------------

    9   -3112.5651932844      5.57e-06  Convergence criterion met
 Total energy in the final basis set =    -3112.5651932844

                    Orbital Energies (a.u.)
 --------------------------------------------------------------

 Alpha MOs
 -- Occupied --
******** -62.4774 -56.2977 -56.2942 -56.2939 -19.0858 -19.0821 -10.2326
-10.2276 -10.2193 -10.1826 -10.1768 -10.1728 -10.1640 -10.1484 -10.1451
-10.1451  -8.6861  -6.5169  -6.5051  -6.5045  -2.6280  -2.6246  -2.6242
 -2.6148  -2.6147  -1.0114  -1.0047  -0.8456  -0.8187  -0.7781  -0.7252
 -0.6859  -0.6754  -0.6747  -0.6048  -0.5770  -0.5264  -0.4884  -0.4707
 -0.4440  -0.4376  -0.4324  -0.4217  -0.4192  -0.4121  -0.3939  -0.3858
 -0.3693  -0.3687  -0.3656  -0.3542  -0.3343  -0.3268  -0.3222  -0.3196
 -0.2890  -0.2782  -0.2518  -0.2486  -0.2406  -0.1684

 Beta MOs
 -- Occupied --
******** -62.4774 -56.2977 -56.2941 -56.2939 -19.0792 -19.0751 -10.2311
-10.2262 -10.2180 -10.1827 -10.1757 -10.1714 -10.1634 -10.1484 -10.1450
-10.1450  -8.6861  -6.5169  -6.5050  -6.5045  -2.6280  -2.6245  -2.6242
 -2.6147  -2.6147  -0.9999  -0.9923  -0.8407  -0.8175  -0.7761  -0.7225
 -0.6800  -0.6745  -0.6711  -0.6010  -0.5735  -0.5238  -0.4863  -0.4679
 -0.4404  -0.4359  -0.4302  -0.4210  -0.4065  -0.4045  -0.3827  -0.3812
 -0.3685  -0.3639  -0.3592  -0.3445  -0.3328  -0.3249  -0.3191  -0.3131
 -0.2888  -0.2512  -0.2458  -0.2417  -0.2347

          Ground-State Mulliken Net Atomic Charges

     Atom                 Charge (a.u.)    Spin (a.u.)
  --------------------------------------------------------
      1 C                    -0.776590       0.116865
      2 C                    -0.451588       0.014335
      3 C                     1.041339       0.121602
      4 C                    -0.636789       0.083421
      5 C                    -0.487077       0.094132
      6 C                     0.889184       0.104991
      7 Br                   -0.218029       0.005855
      8 C                     0.629484      -0.032908
      9 C                    -0.695674       0.010665
     10 C                    -0.529596      -0.000561
     11 C                    -0.694940       0.010746
     12 O                    -0.464576       0.235343
     13 O                    -0.452415       0.253105
     14 H                     0.216269      -0.006069
     15 H                     0.234247      -0.010049
     16 H                     0.140366       0.000893
     17 H                     0.157222       0.000037
     18 H                     0.171635      -0.001519
     19 H                     0.139552      -0.000189
     20 H                     0.139650      -0.000187
     21 H                     0.179111       0.000051
     22 H                     0.171454      -0.001493
     23 H                     0.157237       0.000053
     24 H                     0.140524       0.000880
  --------------------------------------------------------
  Sum of atomic charges =    -1.000000

                    Cartesian Multipole Moments
 -----------------------------------------------------------------
    Charge (ESU x 10^10)
                -4.8032
    Dipole Moment (Debye)
         X       3.5337      Y      -4.4227      Z      -0.5406
       Tot       5.6868
    Quadrupole Moments (Debye-Ang)
        XX    -100.2122     XY      -3.1362     YY    -119.4321
        XZ      -5.7205     YZ     -18.8305     ZZ    -112.9781

 Total job time:  39.36s(wall), 272.82s(cpu)
        *  Thank you very much for using Q-Chem.  Have a nice day.  *
