 Gaussian 16, Revision A.03,
 Gaussian 16:  ES64L-G16RevA.03 25-Dec-2016

 ----------------------------------------------------------------------
 #P UB3LYP/6-311++G(d,p) nosym opt freq SCRF=(PCM,Solvent=n,n-DiMethylF
 ormamide)
 ----------------------------------------------------------------------

 -------
 Reduced
 -------
 Symbolic Z-matrix:
 Charge = -2 Multiplicity = 1

 SCF Done:  E(UB3LYP) =  -765.630646015     A.U. after   19 cycles
 SCF Done:  E(UB3LYP) =  -765.631606018     A.U. after   17 cycles
 SCF Done:  E(UB3LYP) =  -765.632247610     A.U. after   15 cycles
 SCF Done:  E(UB3LYP) =  -765.632151640     A.U. after   15 cycles
 SCF Done:  E(UB3LYP) =  -765.632836320     A.U. after   14 cycles
 SCF Done:  E(UB3LYP) =  -765.632920921     A.U. after   14 cycles
 SCF Done:  E(UB3LYP) =  -765.633000552     A.U. after   14 cycles
 SCF Done:  E(UB3LYP) =  -765.633037136     A.U. after   14 cycles
 SCF Done:  E(UB3LYP) =  -765.633048488     A.U. after   12 cycles
 SCF Done:  E(UB3LYP) =  -765.633051324     A.U. after   12 cycles
 SCF Done:  E(UB3LYP) =  -765.633051733     A.U. after   11 cycles
 SCF Done:  E(UB3LYP) =  -765.633052504     A.U. after   12 cycles
 SCF Done:  E(UB3LYP) =  -765.633052776     A.U. after   12 cycles
 SCF Done:  E(UB3LYP) =  -765.633052926     A.U. after   12 cycles
 SCF Done:  E(UB3LYP) =  -765.633052991     A.U. after   11 cycles
 Optimization completed.
    -- Stationary point found.
 Normal termination of Gaussian 16 at Sat Feb 10 12:46:06 2024.

 ----------------------------------------------------------------------
 #P Geom=AllCheck Guess=TCheck SCRF=Check GenChk UB3LYP/6-311++G(d,p) F
 req
 ----------------------------------------------------------------------

 Structure from the checkpoint file:  "079-an.chk"
 -------
 Reduced
 -------
 Charge = -2 Multiplicity = 1

                          Input orientation:
 ---------------------------------------------------------------------
 Center     Atomic      Atomic             Coordinates (Angstroms)
 Number     Number       Type             X           Y           Z
 ---------------------------------------------------------------------
      1          6           0        1.339669    1.158403   -2.855281
      2          6           0        0.048842    1.524537   -3.343022
      3          6           0       -1.079912    0.758878   -3.102378
      4          6           0       -1.064499   -0.461032   -2.357729
      5          6           0        0.213427   -0.877160   -1.889463
      6          8           0        2.365898    1.949058   -2.974038
      7          8           0       -2.167269   -1.149917   -2.154260
      8          1           0       -0.032566    2.459754   -3.893835
      9          6           0        1.387327   -0.104296   -2.156144
     10          6           0        2.696574   -0.537835   -1.639863
     11          6           0        3.885647   -0.577561   -2.566134
     12          6           0        5.179057   -0.455891   -2.040579
     13          6           0        3.737104   -0.848863   -3.932449
     14          6           0        6.296186   -0.570861   -2.864715
     15          6           0        6.136870   -0.838985   -4.226090
     16          6           0        4.853101   -0.984511   -4.755646
     17          8           0        2.868640   -0.937340   -0.476405
     18          6           0        0.276856   -2.214668   -1.186422
     19          1           0        5.298016   -0.260310   -0.981258
     20          1           0        2.739619   -0.953335   -4.342709
     21          1           0        7.290914   -0.455971   -2.447479
     22          1           0        7.005784   -0.937550   -4.867580
     23          1           0        4.723027   -1.202892   -5.810170
     24          1           0       -2.043288    1.088764   -3.489167
     25          1           0        0.048986   -2.133810   -0.114588
     26          1           0        1.258123   -2.684856   -1.263266
     27          1           0       -0.477721   -2.882548   -1.610211
 ---------------------------------------------------------------------

 SCF Done:  E(UB3LYP) =  -765.633052991     A.U. after    1 cycles

 Alpha  occ. eigenvalues --  -19.08646 -19.02008 -19.00993 -10.23532 -10.17854
 Alpha  occ. eigenvalues --  -10.17444 -10.17443 -10.17291 -10.17231 -10.17079
 Alpha  occ. eigenvalues --  -10.17052 -10.16426 -10.13389 -10.13363 -10.13112
 Alpha  occ. eigenvalues --  -10.13010 -10.12482  -1.01234  -0.93121  -0.91529
 Alpha  occ. eigenvalues --   -0.85470  -0.78640  -0.75555  -0.74514  -0.72905
 Alpha  occ. eigenvalues --   -0.68521  -0.63121  -0.62257  -0.60327  -0.57722
 Alpha  occ. eigenvalues --   -0.53320  -0.52431  -0.49163  -0.45614  -0.44797
 Alpha  occ. eigenvalues --   -0.44641  -0.43014  -0.42172  -0.41968  -0.41006
 Alpha  occ. eigenvalues --   -0.39003  -0.37831  -0.37466  -0.36358  -0.35599
 Alpha  occ. eigenvalues --   -0.35256  -0.35032  -0.34252  -0.33624  -0.32046
 Alpha  occ. eigenvalues --   -0.31447  -0.30449  -0.25659  -0.25467  -0.23776
 Alpha  occ. eigenvalues --   -0.22290  -0.21162  -0.19513  -0.19000  -0.12149
 Alpha virt. eigenvalues --   -0.04662  -0.01136  -0.00119   0.00398   0.00879
 Alpha virt. eigenvalues --    0.01483   0.01916   0.02717   0.03431   0.03872
 Alpha virt. eigenvalues --    0.04188   0.04472   0.05202   0.05378   0.05931

  Beta  occ. eigenvalues --  -19.08646 -19.02008 -19.00993 -10.23532 -10.17854
  Beta  occ. eigenvalues --  -10.17444 -10.17443 -10.17291 -10.17231 -10.17079
  Beta  occ. eigenvalues --  -10.17052 -10.16426 -10.13389 -10.13363 -10.13112
  Beta  occ. eigenvalues --  -10.13010 -10.12482  -1.01234  -0.93121  -0.91529
  Beta  occ. eigenvalues --   -0.85470  -0.78640  -0.75555  -0.74514  -0.72905
  Beta  occ. eigenvalues --   -0.68521  -0.63121  -0.62257  -0.60327  -0.57722
  Beta  occ. eigenvalues --   -0.53320  -0.52431  -0.49163  -0.45614  -0.44797
  Beta  occ. eigenvalues --   -0.44641  -0.43014  -0.42172  -0.41968  -0.41006
  Beta  occ. eigenvalues --   -0.39003  -0.37831  -0.37466  -0.36358  -0.35599
  Beta  occ. eigenvalues --   -0.35256  -0.35032  -0.34252  -0.33624  -0.32046
  Beta  occ. eigenvalues --   -0.31447  -0.30449  -0.25659  -0.25467  -0.23776
  Beta  occ. eigenvalues --   -0.22290  -0.21162  -0.19513  -0.19000  -0.12149
  Beta virt. eigenvalues --   -0.04662  -0.01136  -0.00119   0.00398   0.00879
  Beta virt. eigenvalues --    0.01483   0.01916   0.02717   0.03431   0.03872
  Beta virt. eigenvalues --    0.04188   0.04472   0.05202   0.05378   0.05931

 Mulliken charges and spin densities:
               1          2
     1  C   -0.842781   0.000000
     2  C   -0.148682  -0.000000
     3  C   -0.012128   0.000000
     4  C   -0.501182   0.000000
     5  C    0.780500  -0.000000
     6  O   -0.648493   0.000000
     7  O   -0.741960   0.000000
     8  H    0.146031   0.000000
     9  C    0.991036  -0.000000
    10  C   -1.422712   0.000000
    11  C    1.233330   0.000000
    12  C    0.733908   0.000000
    13  C   -0.944483  -0.000000
    14  C   -0.530477   0.000000
    15  C   -0.248362  -0.000000
    16  C   -0.544629   0.000000
    17  O   -0.329736   0.000000
    18  C   -0.494844   0.000000
    19  H    0.207384  -0.000000
    20  H    0.176345  -0.000000
    21  H    0.188526   0.000000
    22  H    0.175660  -0.000000
    23  H    0.195639   0.000000
    24  H    0.142979   0.000000
    25  H    0.149746  -0.000000
    26  H    0.148236   0.000000
    27  H    0.141151   0.000000
 Sum of Mulliken charges =  -2.00000  -0.00000

 Dipole moment (field-independent basis, Debye):
    X=             -3.9813    Y=             -0.8319    Z=             20.0796  Tot=             20.4874
 Quadrupole moment (field-independent basis, Debye-Ang):
   XX=           -154.7648   YY=           -132.1374   ZZ=           -155.4412
   XY=            -21.2361   XZ=              4.8708   YZ=             13.3197

  Exact polarizability: 408.880 -18.752 255.103   9.365 -43.810 257.477
 Approx polarizability: 423.502 -12.570 285.960  21.779 -54.800 306.441

                      1                      2                      3
                      A                      A                      A
 Frequencies --     24.2302                43.9893                58.0543
 Red. masses --      6.7370                 4.3962                 4.5174
 Frc consts  --      0.0023                 0.0050                 0.0090
 IR Inten    --      5.7565                 0.8683                 8.9021

                      4                      5                      6
                      A                      A                      A
 Frequencies --    109.1091               128.1987               141.6500
 Red. masses --      6.0607                 5.7057                 3.1540
 Frc consts  --      0.0425                 0.0552                 0.0373
 IR Inten    --      1.1025                31.0729                13.0496

                      7                      8                      9
                      A                      A                      A
 Frequencies --    159.9082               191.2875               246.1214
 Red. masses --      1.4943                 4.5504                 4.7638
 Frc consts  --      0.0225                 0.0981                 0.1700
 IR Inten    --      4.9448                 6.9138                 7.8054

                     10                     11                     12
                      A                      A                      A
 Frequencies --    256.8458               335.4821               351.5899
 Red. masses --      5.2622                 8.1257                 3.6000
 Frc consts  --      0.2045                 0.5388                 0.2622
 IR Inten    --      1.3939                11.9743                 3.2242

                     13                     14                     15
                      A                      A                      A
 Frequencies --    358.3543               391.2858               415.3326
 Red. masses --      5.0680                 6.7521                 2.8669
 Frc consts  --      0.3835                 0.6091                 0.2914
 IR Inten    --     15.4984                10.8449                 0.8350

                     16                     17                     18
                      A                      A                      A
 Frequencies --    424.2973               471.5621               475.8188
 Red. masses --      4.4870                 5.1795                10.1028
 Frc consts  --      0.4759                 0.6786                 1.3476
 IR Inten    --     16.4335                 6.5248                22.0555

                     19                     20                     21
                      A                      A                      A
 Frequencies --    524.1106               593.7471               601.3101
 Red. masses --      4.2802                 4.9288                 3.1515
 Frc consts  --      0.6927                 1.0238                 0.6714
 IR Inten    --     17.1167                39.7432                19.0796

                     22                     23                     24
                      A                      A                      A
 Frequencies --    630.5055               640.1966               679.9113
 Red. masses --      6.4067                 3.6190                 5.8616
 Frc consts  --      1.5006                 0.8739                 1.5965
 IR Inten    --      0.6121                 8.6795                45.0666

                     25                     26                     27
                      A                      A                      A
 Frequencies --    703.3093               716.3160               751.6415
 Red. masses --      2.0008                 2.7556                 5.9631
 Frc consts  --      0.5831                 0.8331                 1.9849
 IR Inten    --     36.2236               109.1612                29.6336

                     28                     29                     30
                      A                      A                      A
 Frequencies --    771.8318               798.4447               821.0196
 Red. masses --      3.6497                 3.4040                 2.1999
 Frc consts  --      1.2810                 1.2786                 0.8737
 IR Inten    --     95.7883                46.5255                85.5378

                     31                     32                     33
                      A                      A                      A
 Frequencies --    841.9341               855.6026               925.9213
 Red. masses --      4.2309                 1.2582                 1.3474
 Frc consts  --      1.7670                 0.5427                 0.6806
 IR Inten    --    149.8775                 1.7846                12.6376

                     34                     35                     36
                      A                      A                      A
 Frequencies --    936.8383               944.6225               990.5675
 Red. masses --      1.5370                 2.1311                 1.3798
 Frc consts  --      0.7948                 1.1204                 0.7977
 IR Inten    --      8.2166                44.8300                 1.7941

                     37                     38                     39
                      A                      A                      A
 Frequencies --   1005.0777              1012.0177              1023.0792
 Red. masses --      1.3008                 6.1265                 3.8844
 Frc consts  --      0.7742                 3.6969                 2.3955
 IR Inten    --      0.5081                 0.3699                40.4548

                     40                     41                     42
                      A                      A                      A
 Frequencies --   1039.5398              1041.2655              1073.1651
 Red. masses --      1.7360                 1.8872                 2.5687
 Frc consts  --      1.1053                 1.2056                 1.7430
 IR Inten    --     10.8736                16.6242               232.9390

                     43                     44                     45
                      A                      A                      A
 Frequencies --   1093.8706              1142.2655              1172.5769
 Red. masses --      1.6053                 1.5568                 1.1096
 Frc consts  --      1.1317                 1.1968                 0.8988
 IR Inten    --     21.9225               158.9125                 0.1566

                     46                     47                     48
                      A                      A                      A
 Frequencies --   1174.5375              1181.8688              1202.6090
 Red. masses --      2.0646                 1.3177                 3.7836
 Frc consts  --      1.6781                 1.0844                 3.2241
 IR Inten    --     70.5280                66.2972               326.4088

                     49                     50                     51
                      A                      A                      A
 Frequencies --   1249.1022              1302.5833              1325.3477
 Red. masses --      4.8305                 4.3626                 3.2276
 Frc consts  --      4.4405                 4.3612                 3.3404
 IR Inten    --    140.6700               790.1055                43.6972

                     52                     53                     54
                      A                      A                      A
 Frequencies --   1330.2361              1339.9319              1386.8046
 Red. masses --      5.6994                 1.9480                 1.7095
 Frc consts  --      5.9421                 2.0607                 1.9371
 IR Inten    --    408.5179                 0.6989               177.2373

                     55                     56                     57
                      A                      A                      A
 Frequencies --   1396.7878              1421.1631              1457.2459
 Red. masses --      2.3134                 4.6615                 1.0811
 Frc consts  --      2.6593                 5.5471                 1.3526
 IR Inten    --    142.1925               919.7814                55.4524

                     58                     59                     60
                      A                      A                      A
 Frequencies --   1468.6973              1490.5619              1501.7845
 Red. masses --      2.1829                 1.0889                 4.2363
 Frc consts  --      2.7743                 1.4255                 5.6292
 IR Inten    --      4.5550                40.0597               451.2154

                     61                     62                     63
                      A                      A                      A
 Frequencies --   1510.9075              1569.2600              1600.3360
 Red. masses --      2.2452                 7.8520                 6.5218
 Frc consts  --      3.0198                11.3926                 9.8410
 IR Inten    --      6.3036               901.1056                53.6348

                     64                     65                     66
                      A                      A                      A
 Frequencies --   1616.7753              1631.0853              2980.8902
 Red. masses --      6.3273                 5.9181                 1.0579
 Frc consts  --      9.7447                 9.2765                 5.5385
 IR Inten    --    111.8814                43.3581               151.5439

                     67                     68                     69
                      A                      A                      A
 Frequencies --   3045.2274              3100.2544              3101.5030
 Red. masses --      1.0769                 1.0985                 1.0844
 Frc consts  --      5.8841                 6.2207                 6.1458
 IR Inten    --     70.6126                27.9394                77.2485

                     70                     71                     72
                      A                      A                      A
 Frequencies --   3124.8676              3157.3147              3165.3907
 Red. masses --      1.0933                 1.0853                 1.0886
 Frc consts  --      6.2900                 6.3744                 6.4263
 IR Inten    --    138.5425                 1.7853                15.7952

                     73                     74                     75
                      A                      A                      A
 Frequencies --   3177.2278              3184.4684              3188.1250
 Red. masses --      1.0918                 1.0927                 1.0966
 Frc consts  --      6.4940                 6.5289                 6.5670
 IR Inten    --     30.8221                40.1362                18.7543

 - Thermochemistry -
 -------------------
 Temperature   298.150 Kelvin.  Pressure   1.00000 Atm.
 Atom     1 has atomic number  6 and mass  12.00000

 Molecular mass:   226.06299 amu.
 Principal axes and moments of inertia in atomic units:
                           1         2         3
     Eigenvalues --  1824.756055992.915626650.08266
           X            0.98601  -0.07197   0.15038
           Y           -0.04646   0.74763   0.66249
           Z           -0.16011  -0.66020   0.73382
 This molecule is an asymmetric top.
 Rotational symmetry number  1.
 Warning -- assumption of classical behavior for rotation
           may cause significant error
 Rotational temperatures (Kelvin)      0.04747     0.01445     0.01302
 Rotational constants (GHZ):           0.98903     0.30115     0.27139
 Zero-point vibrational energy     522150.2 (Joules/Mol)
                                  124.79690 (Kcal/Mol)
 Warning -- explicit consideration of  21 degrees of freedom as
           vibrations may cause significant error
 Vibrational temperatures:     34.86    63.29    83.53   156.98   184.45
          (Kelvin)            203.80   230.07   275.22   354.11   369.54
                              482.68   505.86   515.59   562.97   597.57
                              610.47   678.47   684.60   754.08   854.27
                              865.15   907.16   921.10   978.24  1011.91
                             1030.62  1081.44  1110.49  1148.78  1181.26
                             1211.36  1231.02  1332.19  1347.90  1359.10
                             1425.21  1446.08  1456.07  1471.98  1495.67
                             1498.15  1544.05  1573.84  1643.47  1687.08
                             1689.90  1700.45  1730.29  1797.18  1874.13
                             1906.88  1913.91  1927.86  1995.30  2009.67
                             2044.74  2096.65  2113.13  2144.59  2160.73
                             2173.86  2257.82  2302.53  2326.18  2346.77
                             4288.84  4381.40  4460.57  4462.37  4495.99
                             4542.67  4554.29  4571.32  4581.74  4587.00

 Zero-point correction=                           0.198877 (Hartree/Particle)
 Thermal correction to Energy=                    0.213192
 Thermal correction to Enthalpy=                  0.214136
 Thermal correction to Gibbs Free Energy=         0.156352
 Sum of electronic and zero-point Energies=           -765.434176
 Sum of electronic and thermal Energies=              -765.419861
 Sum of electronic and thermal Enthalpies=            -765.418917
 Sum of electronic and thermal Free Energies=         -765.476701

                     E (Thermal)             CV                S
                      KCal/Mol        Cal/Mol-Kelvin    Cal/Mol-Kelvin
 Total                  133.780             55.010            121.618
 Electronic               0.000              0.000              0.000
 Translational            0.889              2.981             42.149
 Rotational               0.889              2.981             32.653
 Vibrational            132.003             49.048             46.816
 Vibration     1          0.593              1.985              6.253
 Vibration     2          0.595              1.980              5.071
 Vibration     3          0.596              1.974              4.522
 Vibration     4          0.606              1.942              3.285
 Vibration     5          0.611              1.925              2.973
 Vibration     6          0.615              1.912              2.781
 Vibration     7          0.622              1.891              2.551
 Vibration     8          0.634              1.852              2.215
 Vibration     9          0.661              1.769              1.758
 Vibration    10          0.666              1.751              1.683
 Vibration    11          0.717              1.605              1.234
 Vibration    12          0.728              1.572              1.159
 Vibration    13          0.733              1.558              1.129
 Vibration    14          0.759              1.489              0.995
 Vibration    15          0.779              1.437              0.908
 Vibration    16          0.786              1.417              0.877
 Vibration    17          0.829              1.313              0.733
 Vibration    18          0.832              1.304              0.721
 Vibration    19          0.879              1.197              0.601
 Vibration    20          0.951              1.045              0.461
 Vibration    21          0.960              1.029              0.447

 Optimization completed.
    -- Stationary point found.
 Normal termination of Gaussian 16 at Sat Feb 10 13:19:16 2024.
