 Q-Chem 5.4, Q-Chem, Inc., Pleasanton, CA (2021)
 Q-Chem 5.4.0 for Intel X86 EM64T Linux

User input:
--------------------------------------------------------------
$molecule
-1 2
C                 -1.7699670000      1.8911020000     -5.1439780000
C                 -1.6794230000      0.5664390000     -5.5211640000
C                 -1.3015280000     -0.4142140000     -4.5778830000
C                 -1.4895250000      2.2966210000     -3.8193210000
C                 -1.1103870000      1.3079140000     -2.8739760000
C                 -1.0236280000     -0.0420890000     -3.2783660000
C                 -1.6058620000      3.7238530000     -3.4873120000
C                 -0.8101180000      1.6653510000     -1.4925240000
C                 -1.3030910000      4.0994920000     -2.0986020000
C                 -0.9234170000      3.0883560000     -1.1541780000
C                 -1.3614760000      5.4338750000     -1.6074810000
C                 -1.0840590000      5.7892100000     -0.2836690000
C                 -0.7099540000      4.7371190000      0.5904070000
C                 -0.6290030000      3.4374190000      0.1753150000
O                 -1.9500090000      4.5467560000     -4.3678540000
O                 -0.4729780000      0.8105520000     -0.6389510000
H                 -2.0580380000      2.6620470000     -5.8485260000
H                 -1.8991170000      0.2769100000     -6.5446050000
H                 -1.2308710000     -1.4561000000     -4.8755600000
H                 -0.7314120000     -0.7689170000     -2.5293820000
Br                -0.2700630000      5.1606140000      2.4328830000
H                 -0.3390680000      2.6377500000      0.8442190000
N                 -1.2148260000      7.0933360000      0.1820610000
Cl                -1.7866940000      6.8001180000     -2.6568440000
H                 -1.1924730000      7.7977170000     -0.5408210000
H                 -0.6588320000      7.3101610000      0.9961000000
$end
$rem
MAX_SCF_CYCLES=200
BASIS  =  6-311++G(d,p)
GUI  =  2
JOB_TYPE  =  SP
METHOD  =  B3LYP
SOLVENT_METHOD = PCM
$end
$pcm
theory = CPCM
$end
$solvent
dielectric 37.219
opticaldielectric 1.43
$end

--------------------------------------------------------------

             Standard Nuclear Orientation (Angstroms)
    I     Atom           X                Y                Z
 ----------------------------------------------------------------
    1      C      -1.7699670000     1.8911020000    -5.1439780000
    2      C      -1.6794230000     0.5664390000    -5.5211640000
    3      C      -1.3015280000    -0.4142140000    -4.5778830000
    4      C      -1.4895250000     2.2966210000    -3.8193210000
    5      C      -1.1103870000     1.3079140000    -2.8739760000
    6      C      -1.0236280000    -0.0420890000    -3.2783660000
    7      C      -1.6058620000     3.7238530000    -3.4873120000
    8      C      -0.8101180000     1.6653510000    -1.4925240000
    9      C      -1.3030910000     4.0994920000    -2.0986020000
   10      C      -0.9234170000     3.0883560000    -1.1541780000
   11      C      -1.3614760000     5.4338750000    -1.6074810000
   12      C      -1.0840590000     5.7892100000    -0.2836690000
   13      C      -0.7099540000     4.7371190000     0.5904070000
   14      C      -0.6290030000     3.4374190000     0.1753150000
   15      O      -1.9500090000     4.5467560000    -4.3678540000
   16      O      -0.4729780000     0.8105520000    -0.6389510000
   17      H      -2.0580380000     2.6620470000    -5.8485260000
   18      H      -1.8991170000     0.2769100000    -6.5446050000
   19      H      -1.2308710000    -1.4561000000    -4.8755600000
   20      H      -0.7314120000    -0.7689170000    -2.5293820000
   21      Br     -0.2700630000     5.1606140000     2.4328830000
   22      H      -0.3390680000     2.6377500000     0.8442190000
   23      N      -1.2148260000     7.0933360000     0.1820610000
   24      Cl     -1.7866940000     6.8001180000    -2.6568440000
   25      H      -1.1924730000     7.7977170000    -0.5408210000
   26      H      -0.6588320000     7.3101610000     0.9961000000
 ----------------------------------------------------------------

    8   -3777.6324962464      9.63e-06  Convergence criterion met
 Total energy in the final basis set =    -3777.6324962464

                    Orbital Energies (a.u.)
 --------------------------------------------------------------

 Alpha MOs
 -- Occupied --
********-101.5522 -62.4901 -56.3106 -56.3068 -56.3067 -19.0798 -19.0763
-14.3266 -10.2399 -10.2383 -10.2340 -10.2308 -10.2308 -10.1946 -10.1848
-10.1807 -10.1752 -10.1738 -10.1732 -10.1725 -10.1712 -10.1697  -9.4671
 -8.6988  -7.2316  -7.2224  -7.2213  -6.5299  -6.5174  -6.5172  -2.6409
 -2.6374  -2.6370  -2.6272  -2.6272  -1.0096  -1.0069  -0.9445  -0.8724
 -0.8591  -0.8516  -0.8102  -0.7730  -0.7521  -0.7408  -0.7326  -0.6688
 -0.6401  -0.6214  -0.5973  -0.5648  -0.5450  -0.5361  -0.5136  -0.4941
 -0.4708  -0.4596  -0.4547  -0.4396  -0.4370  -0.4281  -0.4228  -0.4182
 -0.4108  -0.4066  -0.3955  -0.3876  -0.3661  -0.3559  -0.3544  -0.3502
 -0.3392  -0.3229  -0.3209  -0.3091  -0.3011  -0.2653  -0.2580  -0.2522
 -0.2499  -0.2357  -0.2264  -0.1434

 Beta MOs
 -- Occupied --
********-101.5522 -62.4901 -56.3106 -56.3068 -56.3067 -19.0753 -19.0707
-14.3263 -10.2394 -10.2377 -10.2337 -10.2290 -10.2289 -10.1937 -10.1848
-10.1801 -10.1745 -10.1731 -10.1728 -10.1721 -10.1711 -10.1696  -9.4671
 -8.6987  -7.2316  -7.2222  -7.2213  -6.5299  -6.5174  -6.5171  -2.6409
 -2.6373  -2.6370  -2.6271  -2.6271  -1.0011  -0.9970  -0.9435  -0.8709
 -0.8575  -0.8508  -0.8084  -0.7703  -0.7498  -0.7389  -0.7309  -0.6619
 -0.6383  -0.6190  -0.5964  -0.5626  -0.5432  -0.5349  -0.5122  -0.4924
 -0.4682  -0.4589  -0.4535  -0.4390  -0.4304  -0.4259  -0.4214  -0.4145
 -0.4072  -0.3984  -0.3933  -0.3686  -0.3653  -0.3535  -0.3499  -0.3438
 -0.3382  -0.3221  -0.3170  -0.3015  -0.3010  -0.2537  -0.2490  -0.2456
 -0.2455  -0.2309  -0.2199

          Ground-State Mulliken Net Atomic Charges

     Atom                 Charge (a.u.)    Spin (a.u.)
  --------------------------------------------------------
      1 C                     0.108587       0.034298
      2 C                    -0.509636       0.029983
      3 C                    -0.450328       0.039212
      4 C                     0.021440       0.034145
      5 C                     0.056519       0.017466
      6 C                     0.057473       0.021975
      7 C                    -1.150504       0.109307
      8 C                    -0.521560       0.095990
      9 C                     0.735797       0.071750
     10 C                     0.266573       0.023558
     11 C                     0.259621       0.053882
     12 C                    -1.357769       0.034817
     13 C                     0.648273       0.023023
     14 C                     0.358595       0.014295
     15 O                    -0.370891       0.217966
     16 O                    -0.465654       0.175861
     17 H                     0.171351      -0.002252
     18 H                     0.199585      -0.002726
     19 H                     0.200895      -0.003117
     20 H                     0.169660      -0.001056
     21 Br                   -0.204918       0.001104
     22 H                     0.211144      -0.001390
     23 N                    -0.228772       0.010508
     24 Cl                    0.253466       0.001790
     25 H                     0.267015      -0.000427
     26 H                     0.274038       0.000039
  --------------------------------------------------------
  Sum of atomic charges =    -1.000000

                    Cartesian Multipole Moments
 -----------------------------------------------------------------
    Charge (ESU x 10^10)
                -4.8032
    Dipole Moment (Debye)
         X       6.9412      Y     -13.6550      Z      11.1408
       Tot      18.9409
    Quadrupole Moments (Debye-Ang)
        XX    -148.1962     XY      31.3505     YY    -179.2177
        XZ     -19.0714     YZ      51.3401     ZZ    -176.4097

 Total job time:  135.21s(wall), 442.48s(cpu)
        *  Thank you very much for using Q-Chem.  Have a nice day.  *
