 Q-Chem 5.4, Q-Chem, Inc., Pleasanton, CA (2021)
 Q-Chem 5.4.0 for Intel X86 EM64T Linux

User input:
--------------------------------------------------------------
$molecule
-1 2
C                  2.0319030000      3.8977990000      5.6069780000
C                  2.8432840000      3.3596440000      4.5178840000
C                  2.4070000000      2.4004270000      3.6567880000
C                  1.0766920000      1.8241500000      3.7546710000
C                  0.2660680000      2.3348010000      4.8289430000
C                  0.6986010000      3.2954400000      5.7325360000
O                  2.4665010000      4.8239020000      6.3261340000
O                  0.6656690000      0.9344170000      2.9542160000
H                  3.8360620000      3.7914310000      4.4258610000
H                  3.0416260000      2.0300330000      2.8556800000
H                 -0.7265130000      1.9117230000      4.9253830000
C                 -0.1823360000      3.6945420000      6.8471450000
O                  0.1367930000      4.1187070000      7.9354090000
O                 -1.5188070000      3.5046660000      6.5378290000
C                 -2.4307840000      3.7877130000      7.5949400000
H                 -3.4234780000      3.5856290000      7.1911210000
H                 -2.3568830000      4.8314050000      7.9114990000
H                 -2.2403760000      3.1514220000      8.4638230000
$end

$rem
BASIS  =  6-311++G(d,p)
GUI  =  2
JOB_TYPE  =  SP
METHOD  =  B3LYP
SCF_CONVERGENCE  = 8
SOLVENT_METHOD = sm12
$end

$smx
solvent dimethylformamide
charges CM5
$end

--------------------------------------------------------------

             Standard Nuclear Orientation (Angstroms)
    I     Atom           X                Y                Z
 ----------------------------------------------------------------
    1      C       2.0319030000     3.8977990000     5.6069780000
    2      C       2.8432840000     3.3596440000     4.5178840000
    3      C       2.4070000000     2.4004270000     3.6567880000
    4      C       1.0766920000     1.8241500000     3.7546710000
    5      C       0.2660680000     2.3348010000     4.8289430000
    6      C       0.6986010000     3.2954400000     5.7325360000
    7      O       2.4665010000     4.8239020000     6.3261340000
    8      O       0.6656690000     0.9344170000     2.9542160000
    9      H       3.8360620000     3.7914310000     4.4258610000
   10      H       3.0416260000     2.0300330000     2.8556800000
   11      H      -0.7265130000     1.9117230000     4.9253830000
   12      C      -0.1823360000     3.6945420000     6.8471450000
   13      O       0.1367930000     4.1187070000     7.9354090000
   14      O      -1.5188070000     3.5046660000     6.5378290000
   15      C      -2.4307840000     3.7877130000     7.5949400000
   16      H      -3.4234780000     3.5856290000     7.1911210000
   17      H      -2.3568830000     4.8314050000     7.9114990000
   18      H      -2.2403760000     3.1514220000     8.4638230000
 ----------------------------------------------------------------

   18    -609.5851154765      4.96e-09  Convergence criterion met
 Total energy in the final basis set =     -609.6700790738

                    Orbital Energies (a.u.)
 --------------------------------------------------------------

 Alpha MOs
 -- Occupied --
-19.1593 -19.1090 -19.0837 -19.0822 -10.2992 -10.2345 -10.2265 -10.2173
-10.1866 -10.1800 -10.1790 -10.1776  -1.0995  -1.0165  -1.0070  -1.0024
 -0.8370  -0.7761  -0.7180  -0.6927  -0.6315  -0.5933  -0.5526  -0.5107
 -0.4877  -0.4771  -0.4718  -0.4632  -0.4437  -0.4214  -0.4146  -0.4089
 -0.3935  -0.3876  -0.3781  -0.3714  -0.3559  -0.3043  -0.2900  -0.2873
 -0.2740  -0.2464  -0.2375  -0.1726

 Beta MOs
 -- Occupied --
-19.1592 -19.1085 -19.0756 -19.0756 -10.2991 -10.2340 -10.2257 -10.2173
-10.1855 -10.1786 -10.1777 -10.1765  -1.0991  -1.0151  -0.9965  -0.9882
 -0.8309  -0.7737  -0.7158  -0.6835  -0.6280  -0.5902  -0.5512  -0.5081
 -0.4857  -0.4760  -0.4683  -0.4623  -0.4414  -0.4174  -0.4055  -0.4014
 -0.3863  -0.3810  -0.3693  -0.3558  -0.3507  -0.3029  -0.2856  -0.2656
 -0.2544  -0.2390  -0.2316

          Ground-State Mulliken Net Atomic Charges

     Atom                 Charge (a.u.)    Spin (a.u.)
  --------------------------------------------------------
      1 C                    -1.696963       0.003284
      2 C                     0.241617       0.089429
      3 C                     0.306867       0.036228
      4 C                    -0.924992       0.092831
      5 C                    -0.401603       0.148422
      6 C                     0.246703       0.075515
      7 O                    -0.343119       0.242128
      8 O                    -0.377950       0.290291
      9 H                     0.241822      -0.007452
     10 H                     0.254284      -0.003403
     11 H                     0.150740      -0.012720
     12 C                     0.850663       0.027703
     13 O                    -0.267756       0.017705
     14 O                    -0.087667      -0.000230
     15 C                     0.136181       0.000012
     16 H                     0.269256       0.000095
     17 H                     0.194735       0.000232
     18 H                     0.207181      -0.000071
  --------------------------------------------------------
  Sum of atomic charges =    -1.000000

                    Cartesian Multipole Moments
 -----------------------------------------------------------------
    Charge (ESU x 10^10)
                -4.8032
    Dipole Moment (Debye)
         X      -7.3403      Y     -14.5787      Z     -24.4639
       Tot      29.4092
    Quadrupole Moments (Debye-Ang)
        XX     -80.4776     XY     -30.5468     YY    -135.8588
        XZ     -47.7388     YZ     -93.7369     ZZ    -219.0653

 Total job time:  218.60s(wall), 1643.86s(cpu)
        *  Thank you very much for using Q-Chem.  Have a nice day.  *
