 Gaussian 16, Revision A.03,
 Gaussian 16:  ES64L-G16RevA.03 25-Dec-2016

 ----------------------------------------------------------------
 #P UB3LYP/6-311++G(d,p) SCRF=(PCM,Solvent=n,n-DiMethylFormamide)
 ----------------------------------------------------------------

 ------------------
 Quinone PCM in DMF
 ------------------
 Symbolic Z-matrix:
 Charge =  0 Multiplicity = 1

                         Standard orientation:
 ---------------------------------------------------------------------
 Center     Atomic      Atomic             Coordinates (Angstroms)
 Number     Number       Type             X           Y           Z
 ---------------------------------------------------------------------
      1          7           0        3.751990    1.573086    0.000274
      2          6           0        3.131820    0.366011    0.000198
      3          6           0        3.906688   -0.817568    0.000429
      4          6           0        3.308385   -2.060149    0.000488
      5          6           0        1.914778   -2.186170    0.000257
      6          6           0        1.125175   -1.046023   -0.000050
      7          6           0       -0.362267   -1.248774   -0.000618
      8          8           0       -0.817168   -2.377970   -0.001435
      9          6           0       -1.236504   -0.035189   -0.000206
     10          6           0       -2.645536   -0.091552    0.000187
     11         17           0       -3.557800   -1.585253    0.000442
     12          6           0       -3.409985    1.074484    0.000472
     13          6           0       -2.792856    2.319221    0.000278
     14          6           0       -1.407607    2.404697   -0.000126
     15          6           0       -0.633935    1.244305   -0.000315
     16          6           0        0.855018    1.427976   -0.000379
     17          8           0        1.310257    2.577033   -0.000569
     18          6           0        1.708309    0.245008   -0.000094
     19          1           0        4.755953    1.624607    0.000828
     20          1           0        3.183323    2.410190    0.000133
     21          1           0        4.988473   -0.731384    0.000556
     22          1           0        3.928563   -2.949668    0.000681
     23          1           0        1.434987   -3.155209    0.000217
     24          1           0       -4.489181    0.991239    0.000804
     25          1           0       -3.398115    3.218363    0.000473
     26          1           0       -0.898938    3.359395   -0.000217
 ---------------------------------------------------------------------

 SCF Done:  E(UB3LYP) =  -1203.96027829     A.U. after   16 cycles

 The electronic state is 1-A.
 Alpha  occ. eigenvalues -- -101.56523 -19.12847 -19.12691 -14.33698 -10.28588
 Alpha  occ. eigenvalues --  -10.28058 -10.26454 -10.24999 -10.22256 -10.21577
 Alpha  occ. eigenvalues --  -10.20748 -10.20628 -10.20460 -10.20211 -10.19867
 Alpha  occ. eigenvalues --  -10.19828 -10.19294 -10.18684  -9.48014  -7.24485
 Alpha  occ. eigenvalues --   -7.23529  -7.23408  -1.06773  -1.06106  -0.94690
 Alpha  occ. eigenvalues --   -0.91528  -0.87478  -0.85879  -0.81412  -0.77566
 Alpha  occ. eigenvalues --   -0.76535  -0.75681  -0.69003  -0.66993  -0.65509
 Alpha  occ. eigenvalues --   -0.61438  -0.58631  -0.57976  -0.56220  -0.52963
 Alpha  occ. eigenvalues --   -0.51144  -0.50896  -0.49311  -0.48141  -0.47383
 Alpha  occ. eigenvalues --   -0.46013  -0.45962  -0.45547  -0.44791  -0.43433
 Alpha  occ. eigenvalues --   -0.42503  -0.41053  -0.40115  -0.39132  -0.38850
 Alpha  occ. eigenvalues --   -0.38487  -0.37580  -0.35062  -0.33560  -0.33454
 Alpha  occ. eigenvalues --   -0.29347  -0.28548  -0.27971  -0.26980  -0.26857
 Alpha  occ. eigenvalues --   -0.22875
 Alpha virt. eigenvalues --   -0.11753  -0.07139  -0.04045  -0.02022  -0.00651
 Alpha virt. eigenvalues --    0.00004   0.00259   0.00943   0.01837   0.02423
 Alpha virt. eigenvalues --    0.03033   0.03501   0.03918   0.04067   0.04119

  Beta  occ. eigenvalues -- -101.56523 -19.12847 -19.12691 -14.33698 -10.28588
  Beta  occ. eigenvalues --  -10.28058 -10.26454 -10.24999 -10.22256 -10.21577
  Beta  occ. eigenvalues --  -10.20748 -10.20628 -10.20460 -10.20211 -10.19867
  Beta  occ. eigenvalues --  -10.19828 -10.19294 -10.18684  -9.48014  -7.24485
  Beta  occ. eigenvalues --   -7.23529  -7.23408  -1.06773  -1.06106  -0.94690
  Beta  occ. eigenvalues --   -0.91528  -0.87478  -0.85879  -0.81412  -0.77566
  Beta  occ. eigenvalues --   -0.76535  -0.75681  -0.69003  -0.66993  -0.65509
  Beta  occ. eigenvalues --   -0.61438  -0.58631  -0.57976  -0.56220  -0.52963
  Beta  occ. eigenvalues --   -0.51144  -0.50896  -0.49311  -0.48141  -0.47383
  Beta  occ. eigenvalues --   -0.46013  -0.45962  -0.45547  -0.44791  -0.43433
  Beta  occ. eigenvalues --   -0.42503  -0.41053  -0.40115  -0.39132  -0.38850
  Beta  occ. eigenvalues --   -0.38487  -0.37580  -0.35062  -0.33560  -0.33454
  Beta  occ. eigenvalues --   -0.29347  -0.28548  -0.27971  -0.26980  -0.26857
  Beta  occ. eigenvalues --   -0.22875
  Beta virt. eigenvalues --   -0.11753  -0.07139  -0.04045  -0.02022  -0.00651
  Beta virt. eigenvalues --    0.00004   0.00259   0.00943   0.01837   0.02423
  Beta virt. eigenvalues --    0.03033   0.03501   0.03918   0.04067   0.04119

 Mulliken charges and spin densities:
               1          2
     1  N   -0.433257  -0.000000
     2  C    0.282018   0.000000
     3  C   -0.177436  -0.000000
     4  C   -0.486873  -0.000000
     5  C    0.213565   0.000000
     6  C    0.234240  -0.000000
     7  C   -1.595525   0.000000
     8  O   -0.171658   0.000000
     9  C   -0.201716  -0.000000
    10  C    1.036173   0.000000
    11  Cl   0.402247   0.000000
    12  C    0.036677  -0.000000
    13  C   -0.645633  -0.000000
    14  C    0.636212   0.000000
    15  C    0.321311  -0.000000
    16  C   -1.015850  -0.000000
    17  O   -0.297015   0.000000
    18  C   -0.006348  -0.000000
    19  H    0.314556  -0.000000
    20  H    0.338124  -0.000000
    21  H    0.187851   0.000000
    22  H    0.211578  -0.000000
    23  H    0.178362   0.000000
    24  H    0.225785   0.000000
    25  H    0.210189  -0.000000
    26  H    0.202422   0.000000
 Sum of Mulliken charges =  -0.00000  -0.00000

 Dipole moment (field-independent basis, Debye):
    X=              3.7484    Y=              3.1473    Z=              0.0044  Tot=              4.8945
 Quadrupole moment (field-independent basis, Debye-Ang):
   XX=            -77.9213   YY=           -112.7250   ZZ=           -113.6269
   XY=            -13.7298   XZ=              0.0044   YZ=             -0.0020

 Normal termination of Gaussian 16 at Sun Jan 14 01:04:57 2024.
