 Gaussian 16, Revision A.03,
 Gaussian 16:  ES64L-G16RevA.03 25-Dec-2016

 --------------------------------------
 #P UB3LYP/6-311++G(d,p) nosym opt freq
 --------------------------------------

 --------
 Oxidized
 --------
 Symbolic Z-matrix:
 Charge =  0 Multiplicity = 1

 SCF Done:  E(UB3LYP) =  -1203.94900412     A.U. after   17 cycles
 Optimization completed.
    -- Stationary point found.
 Normal termination of Gaussian 16 at Wed Dec 27 19:49:11 2023.

 ----------------------------------------------------------------------
 #P Geom=AllCheck Guess=TCheck SCRF=Check GenChk UB3LYP/6-311++G(d,p) F
 req
 ----------------------------------------------------------------------

 Structure from the checkpoint file:  "152.chk"
 --------
 Oxidized
 --------
 Charge =  0 Multiplicity = 1

                          Input orientation:
 ---------------------------------------------------------------------
 Center     Atomic      Atomic             Coordinates (Angstroms)
 Number     Number       Type             X           Y           Z
 ---------------------------------------------------------------------
      1          7           0       -2.951999   -1.795831   -0.467552
      2          6           0       -2.547222   -0.528308   -0.200753
      3          6           0       -3.512080    0.492759   -0.034169
      4          6           0       -3.134896    1.791109    0.237848
      5          6           0       -1.784160    2.136533    0.357076
      6          6           0       -0.812198    1.159872    0.199498
      7          6           0        0.617859    1.594657    0.339110
      8          8           0        0.873213    2.760465    0.579331
      9          6           0        1.685655    0.560360    0.174434
     10          6           0        3.063438    0.840728    0.282403
     11         17           0        3.706927    2.432383    0.622880
     12          6           0        4.015026   -0.165134    0.118864
     13          6           0        3.619677   -1.468562   -0.154983
     14          6           0        2.270278   -1.773288   -0.266729
     15          6           0        1.310568   -0.774385   -0.104780
     16          6           0       -0.124207   -1.190826   -0.241573
     17          8           0       -0.376470   -2.375711   -0.486492
     18          6           0       -1.166183   -0.182934   -0.080455
     19          1           0       -3.931789   -2.006756   -0.545774
     20          1           0       -2.249276   -2.514694   -0.583927
     21          1           0       -4.562570    0.235898   -0.124610
     22          1           0       -3.897281    2.552424    0.360456
     23          1           0       -1.477010    3.151197    0.570037
     24          1           0        5.063450    0.088379    0.209031
     25          1           0        4.368999   -2.241657   -0.280026
     26          1           0        1.932252   -2.778678   -0.479145
 ---------------------------------------------------------------------

 SCF Done:  E(UB3LYP) =  -1203.94900412     A.U. after    1 cycles

 Alpha  occ. eigenvalues -- -101.55589 -19.12428 -19.12076 -14.34162 -10.27837
 Alpha  occ. eigenvalues --  -10.27831 -10.26137 -10.25194 -10.21973 -10.21420
 Alpha  occ. eigenvalues --  -10.20669 -10.20638 -10.20606 -10.20244 -10.20129
 Alpha  occ. eigenvalues --  -10.19829 -10.19650 -10.18559  -9.47064  -7.23550
 Alpha  occ. eigenvalues --   -7.22573  -7.22449  -1.05939  -1.05729  -0.95084
 Alpha  occ. eigenvalues --   -0.91149  -0.87386  -0.85502  -0.81417  -0.77633
 Alpha  occ. eigenvalues --   -0.76320  -0.75634  -0.68898  -0.67045  -0.65545
 Alpha  occ. eigenvalues --   -0.61555  -0.58508  -0.58112  -0.56190  -0.53249
 Alpha  occ. eigenvalues --   -0.51261  -0.50618  -0.49434  -0.48264  -0.47373
 Alpha  occ. eigenvalues --   -0.45700  -0.45397  -0.45125  -0.44490  -0.43354
 Alpha  occ. eigenvalues --   -0.42116  -0.40733  -0.40351  -0.39160  -0.38598
 Alpha  occ. eigenvalues --   -0.38442  -0.37573  -0.34476  -0.33545  -0.32443
 Alpha  occ. eigenvalues --   -0.29128  -0.28148  -0.28026  -0.26537  -0.26105
 Alpha  occ. eigenvalues --   -0.22981
 Alpha virt. eigenvalues --   -0.11416  -0.06962  -0.04100  -0.01993  -0.01559
 Alpha virt. eigenvalues --   -0.00680   0.00258   0.00943   0.01538   0.02264
 Alpha virt. eigenvalues --    0.02964   0.03206   0.03884   0.04205   0.04287

  Beta  occ. eigenvalues -- -101.55589 -19.12428 -19.12076 -14.34162 -10.27837
  Beta  occ. eigenvalues --  -10.27831 -10.26137 -10.25194 -10.21973 -10.21420
  Beta  occ. eigenvalues --  -10.20669 -10.20638 -10.20606 -10.20244 -10.20129
  Beta  occ. eigenvalues --  -10.19829 -10.19650 -10.18559  -9.47064  -7.23550
  Beta  occ. eigenvalues --   -7.22573  -7.22449  -1.05939  -1.05729  -0.95084
  Beta  occ. eigenvalues --   -0.91149  -0.87386  -0.85502  -0.81417  -0.77633
  Beta  occ. eigenvalues --   -0.76320  -0.75634  -0.68898  -0.67045  -0.65545
  Beta  occ. eigenvalues --   -0.61555  -0.58508  -0.58112  -0.56190  -0.53249
  Beta  occ. eigenvalues --   -0.51261  -0.50618  -0.49434  -0.48264  -0.47373
  Beta  occ. eigenvalues --   -0.45700  -0.45397  -0.45125  -0.44490  -0.43354
  Beta  occ. eigenvalues --   -0.42116  -0.40733  -0.40351  -0.39160  -0.38598
  Beta  occ. eigenvalues --   -0.38442  -0.37573  -0.34476  -0.33545  -0.32443
  Beta  occ. eigenvalues --   -0.29128  -0.28148  -0.28026  -0.26537  -0.26105
  Beta  occ. eigenvalues --   -0.22981
  Beta virt. eigenvalues --   -0.11416  -0.06962  -0.04100  -0.01993  -0.01559
  Beta virt. eigenvalues --   -0.00680   0.00258   0.00943   0.01538   0.02264
  Beta virt. eigenvalues --    0.02964   0.03206   0.03884   0.04205   0.04287

 Mulliken charges and spin densities:
               1          2
     1  N   -0.406328  -0.000000
     2  C    0.272161   0.000000
     3  C   -0.128248   0.000000
     4  C   -0.448982  -0.000000
     5  C    0.185104   0.000000
     6  C    0.283142   0.000000
     7  C   -1.660494  -0.000000
     8  O   -0.099452   0.000000
     9  C   -0.215797  -0.000000
    10  C    1.004184   0.000000
    11  Cl   0.446250  -0.000000
    12  C    0.037435  -0.000000
    13  C   -0.606190  -0.000000
    14  C    0.627613   0.000000
    15  C    0.349278  -0.000000
    16  C   -1.077116  -0.000000
    17  O   -0.248880   0.000000
    18  C    0.003329  -0.000000
    19  H    0.274641  -0.000000
    20  H    0.330975   0.000000
    21  H    0.140967  -0.000000
    22  H    0.181056  -0.000000
    23  H    0.180150   0.000000
    24  H    0.200776   0.000000
    25  H    0.176044  -0.000000
    26  H    0.198382   0.000000
 Sum of Mulliken charges =   0.00000  -0.00000

 Dipole moment (field-independent basis, Debye):
    X=             -2.3413    Y=             -2.5747    Z=             -0.5960  Tot=              3.5307
 Quadrupole moment (field-independent basis, Debye-Ang):
   XX=            -84.5852   YY=           -115.9346   ZZ=           -113.7024
   XY=             -7.4680   XZ=             -0.3936   YZ=             -0.7547

  Exact polarizability: 285.814   0.681 219.059   7.476  25.481  96.183
 Approx polarizability: 423.102   7.277 415.570  11.831  53.552 158.269

                      1                      2                      3
                      A                      A                      A
 Frequencies --     14.5737                43.6736                71.2860
 Red. masses --     10.5613                 7.5920                 8.5533
 Frc consts  --      0.0013                 0.0085                 0.0256
 IR Inten    --      3.3936                 7.4609                14.7003

                      4                      5                      6
                      A                      A                      A
 Frequencies --    131.1840               176.8748               183.8937
 Red. masses --      2.5812                 9.9014                 4.5605
 Frc consts  --      0.0262                 0.1825                 0.0909
 IR Inten    --     40.3180                 1.1482                 6.8273

                      7                      8                      9
                      A                      A                      A
 Frequencies --    206.4555               224.1719               256.5646
 Red. masses --      3.5184                 1.6930                 7.1479
 Frc consts  --      0.0884                 0.0501                 0.2772
 IR Inten    --     33.8150                68.5286                 0.1724

                     10                     11                     12
                      A                      A                      A
 Frequencies --    259.6649               352.5269               358.6927
 Red. masses --      6.7203                 6.9936                11.5696
 Frc consts  --      0.2670                 0.5121                 0.8770
 IR Inten    --      0.6057                 0.0185                 2.2189

                     13                     14                     15
                      A                      A                      A
 Frequencies --    389.8239               418.8211               432.2347
 Red. masses --      6.1202                 6.3355                11.4900
 Frc consts  --      0.5480                 0.6548                 1.2648
 IR Inten    --      1.1923                 0.8770                22.5792

                     16                     17                     18
                      A                      A                      A
 Frequencies --    432.3079               468.9814               483.6985
 Red. masses --      5.1889                 5.6156                 3.7944
 Frc consts  --      0.5714                 0.7277                 0.5230
 IR Inten    --      0.1841                10.1824                 5.6108

                     19                     20                     21
                      A                      A                      A
 Frequencies --    485.7621               518.2387               560.0732
 Red. masses --      7.9224                 5.1641                 4.1033
 Frc consts  --      1.1014                 0.8171                 0.7584
 IR Inten    --      0.6444                 0.9842                 5.7089

                     22                     23                     24
                      A                      A                      A
 Frequencies --    570.4400               622.2713               650.3725
 Red. masses --      6.4117                 6.3543                 1.0773
 Frc consts  --      1.2292                 1.4497                 0.2685
 IR Inten    --      0.5127                 2.5346                29.1410

                     25                     26                     27
                      A                      A                      A
 Frequencies --    670.0772               706.9513               722.7208
 Red. masses --      4.4258                 7.0604                 2.7675
 Frc consts  --      1.1708                 2.0790                 0.8517
 IR Inten    --      0.5225                 1.7106                25.9691

                     28                     29                     30
                      A                      A                      A
 Frequencies --    750.0850               772.6364               781.9246
 Red. masses --      7.7822                 4.6195                 1.9552
 Frc consts  --      2.5797                 1.6248                 0.7043
 IR Inten    --     51.5117                34.9227                 0.5785

                     31                     32                     33
                      A                      A                      A
 Frequencies --    820.3754               824.8229               828.3764
 Red. masses --      7.3648                 1.7618                 2.8844
 Frc consts  --      2.9203                 0.7062                 1.1662
 IR Inten    --     26.9900                36.7318                 4.3552

                     34                     35                     36
                      A                      A                      A
 Frequencies --    898.5989               915.8556               932.6979
 Red. masses --      7.0526                 1.4144                 6.3527
 Frc consts  --      3.3553                 0.6990                 3.2560
 IR Inten    --     18.5522                 0.5375                 6.7067

                     37                     38                     39
                      A                      A                      A
 Frequencies --    948.5610               998.2809              1012.6734
 Red. masses --      1.3695                 1.3271                 1.3352
 Frc consts  --      0.7260                 0.7792                 0.8067
 IR Inten    --      0.0773                 0.4093                 0.8262

                     40                     41                     42
                      A                      A                      A
 Frequencies --   1026.3333              1066.9852              1094.6828
 Red. masses --      2.6088                 2.6000                 2.2200
 Frc consts  --      1.6191                 1.7440                 1.5674
 IR Inten    --     51.4666                 9.4537                 0.4307

                     43                     44                     45
                      A                      A                      A
 Frequencies --   1130.3007              1147.8043              1189.4528
 Red. masses --      1.7010                 3.8312                 1.4135
 Frc consts  --      1.2804                 2.9739                 1.1782
 IR Inten    --      8.2533                43.7003                10.7364

                     46                     47                     48
                      A                      A                      A
 Frequencies --   1194.0749              1206.1530              1227.5201
 Red. masses --      1.3175                 1.7415                 1.9978
 Frc consts  --      1.1068                 1.4927                 1.7737
 IR Inten    --     16.2716                 6.3347                59.1296

                     49                     50                     51
                      A                      A                      A
 Frequencies --   1277.2764              1311.8430              1334.8328
 Red. masses --      3.8163                 2.7887                 9.0305
 Frc consts  --      3.6683                 2.8276                 9.4801
 IR Inten    --    550.4585               146.8259                82.1282

                     52                     53                     54
                      A                      A                      A
 Frequencies --   1363.0446              1394.1564              1448.1809
 Red. masses --      3.8347                 5.8353                 3.4065
 Frc consts  --      4.1976                 6.6825                 4.2092
 IR Inten    --      2.5901                39.6095                28.6450

                     55                     56                     57
                      A                      A                      A
 Frequencies --   1470.2138              1479.0493              1489.4606
 Red. masses --      2.3936                 2.5506                 3.1301
 Frc consts  --      3.0483                 3.2874                 4.0914
 IR Inten    --      4.1618                46.3845                10.3564

                     58                     59                     60
                      A                      A                      A
 Frequencies --   1577.6074              1597.6822              1606.3221
 Red. masses --      3.1629                 6.4094                 2.9483
 Frc consts  --      4.6381                 9.6393                 4.4821
 IR Inten    --    180.7724                38.1961                86.3310

                     61                     62                     63
                      A                      A                      A
 Frequencies --   1613.4660              1642.7485              1676.2062
 Red. masses --      4.0311                 3.2732                 7.7691
 Frc consts  --      6.1829                 5.2044                12.8610
 IR Inten    --     60.0311               245.9067               174.5424

                     64                     65                     66
                      A                      A                      A
 Frequencies --   1727.0173              3159.0715              3178.8725
 Red. masses --     12.4125                 1.0877                 1.0887
 Frc consts  --     21.8124                 6.3955                 6.4820
 IR Inten    --    158.6932                 9.2124                 7.2021

                     67                     68                     69
                      A                      A                      A
 Frequencies --   3179.6644              3202.0095              3212.6843
 Red. masses --      1.0936                 1.0935                 1.0933
 Frc consts  --      6.5146                 6.6058                 6.6483
 IR Inten    --     17.5461                 1.9966                 4.6777

                     70                     71                     72
                      A                      A                      A
 Frequencies --   3214.8581              3519.3877              3703.6445
 Red. masses --      1.0923                 1.0523                 1.0986
 Frc consts  --      6.6516                 7.6796                 8.8784
 IR Inten    --      2.4539                68.8820                85.5587

 - Thermochemistry -
 -------------------
 Temperature   298.150 Kelvin.  Pressure   1.00000 Atm.
 Atom     1 has atomic number  7 and mass  14.00307

 Molecular mass:   257.02436 amu.
 Principal axes and moments of inertia in atomic units:
                           1         2         3
     Eigenvalues --  2536.698986025.606888562.30538
           X            0.97941  -0.19846  -0.03693
           Y            0.18774   0.96275  -0.19459
           Z            0.07417   0.18365   0.98019
 This molecule is an asymmetric top.
 Rotational symmetry number  1.
 Warning -- assumption of classical behavior for rotation
           may cause significant error
 Rotational temperatures (Kelvin)      0.03414     0.01437     0.01012
 Rotational constants (GHZ):           0.71145     0.29951     0.21078
 Zero-point vibrational energy     487836.1 (Joules/Mol)
                                  116.59563 (Kcal/Mol)
 Warning -- explicit consideration of  22 degrees of freedom as
           vibrations may cause significant error
 Vibrational temperatures:     20.97    62.84   102.56   188.74   254.48
          (Kelvin)            264.58   297.04   322.53   369.14   373.60
                              507.21   516.08   560.87   602.59   621.89
                              621.99   674.76   695.93   698.90   745.63
                              805.82   820.74   895.31   935.74   964.09
                             1017.15  1039.83  1079.20  1111.65  1125.02
                             1180.34  1186.74  1191.85  1292.88  1317.71
                             1341.94  1364.77  1436.30  1457.01  1476.66
                             1535.15  1575.00  1626.25  1651.43  1711.36
                             1718.01  1735.39  1766.13  1837.72  1887.45
                             1920.53  1961.12  2005.88  2083.61  2115.31
                             2128.02  2143.00  2269.83  2298.71  2311.14
                             2321.42  2363.55  2411.69  2484.79  4545.20
                             4573.69  4574.83  4606.98  4622.34  4625.46
                             5063.61  5328.72

 Zero-point correction=                           0.185807 (Hartree/Particle)
 Thermal correction to Energy=                    0.199904
 Thermal correction to Enthalpy=                  0.200848
 Thermal correction to Gibbs Free Energy=         0.143264
 Sum of electronic and zero-point Energies=          -1203.763197
 Sum of electronic and thermal Energies=             -1203.749100
 Sum of electronic and thermal Enthalpies=           -1203.748156
 Sum of electronic and thermal Free Energies=        -1203.805740

                     E (Thermal)             CV                S
                      KCal/Mol        Cal/Mol-Kelvin    Cal/Mol-Kelvin
 Total                  125.442             55.380            121.195
 Electronic               0.000              0.000              0.000
 Translational            0.889              2.981             42.532
 Rotational               0.889              2.981             33.237
 Vibrational            123.664             49.419             45.426
 Vibration     1          0.593              1.986              7.263
 Vibration     2          0.595              1.980              5.085
 Vibration     3          0.598              1.968              4.118
 Vibration     4          0.612              1.922              2.929
 Vibration     5          0.628              1.871              2.361
 Vibration     6          0.631              1.862              2.289
 Vibration     7          0.641              1.831              2.075
 Vibration     8          0.649              1.804              1.925
 Vibration     9          0.666              1.752              1.685
 Vibration    10          0.668              1.746              1.664
 Vibration    11          0.729              1.570              1.155
 Vibration    12          0.734              1.557              1.128
 Vibration    13          0.758              1.492              1.001
 Vibration    14          0.782              1.429              0.896
 Vibration    15          0.793              1.400              0.851
 Vibration    16          0.793              1.400              0.851
 Vibration    17          0.826              1.319              0.740
 Vibration    18          0.840              1.286              0.700
 Vibration    19          0.842              1.282              0.695
 Vibration    20          0.873              1.210              0.614
 Vibration    21          0.916              1.118              0.524
 Vibration    22          0.927              1.095              0.503

 Optimization completed.
    -- Stationary point found.
 Normal termination of Gaussian 16 at Wed Dec 27 20:21:45 2023.
