 Gaussian 16, Revision A.03,
 Gaussian 16:  ES64L-G16RevA.03 25-Dec-2016

 --------------------------------------
 #P UB3LYP/6-311++G(d,p) nosym opt freq
 --------------------------------------

 -------
 Radical
 -------
 Symbolic Z-matrix:
 Charge = -2 Multiplicity = 2

 SCF Done:  E(UB3LYP) =  -3941.21828614     A.U. after   25 cycles
 SCF Done:  E(UB3LYP) =  -3941.23028597     A.U. after   22 cycles
 SCF Done:  E(UB3LYP) =  -3941.23772485     A.U. after   19 cycles
 SCF Done:  E(UB3LYP) =  -3941.23988337     A.U. after   20 cycles
 SCF Done:  E(UB3LYP) =  -3941.24136718     A.U. after   20 cycles
 SCF Done:  E(UB3LYP) =  -3941.24204819     A.U. after   19 cycles
 SCF Done:  E(UB3LYP) =  -3941.24253344     A.U. after   18 cycles
 SCF Done:  E(UB3LYP) =  -3941.24258321     A.U. after   17 cycles
 SCF Done:  E(UB3LYP) =  -3941.24281822     A.U. after   17 cycles
 SCF Done:  E(UB3LYP) =  -3941.24287002     A.U. after   16 cycles
 SCF Done:  E(UB3LYP) =  -3941.24294179     A.U. after   15 cycles
 SCF Done:  E(UB3LYP) =  -3941.24295915     A.U. after   15 cycles
 SCF Done:  E(UB3LYP) =  -3941.24297817     A.U. after   16 cycles
 SCF Done:  E(UB3LYP) =  -3941.24299308     A.U. after   16 cycles
 SCF Done:  E(UB3LYP) =  -3941.24300175     A.U. after   16 cycles
 SCF Done:  E(UB3LYP) =  -3941.24300255     A.U. after   13 cycles
 SCF Done:  E(UB3LYP) =  -3941.24300263     A.U. after   11 cycles
 SCF Done:  E(UB3LYP) =  -3941.24300261     A.U. after   11 cycles
 SCF Done:  E(UB3LYP) =  -3941.24300263     A.U. after   11 cycles
 Optimization completed.
    -- Stationary point found.
 Normal termination of Gaussian 16 at Sat Dec 23 02:19:16 2023.

 ----------------------------------------------------------------------
 #P Geom=AllCheck Guess=TCheck SCRF=Check GenChk UB3LYP/6-311++G(d,p) F
 req
 ----------------------------------------------------------------------

 Structure from the checkpoint file:  "163-rad.chk"
 -------
 Radical
 -------
 Charge = -2 Multiplicity = 2

                          Input orientation:
 ---------------------------------------------------------------------
 Center     Atomic      Atomic             Coordinates (Angstroms)
 Number     Number       Type             X           Y           Z
 ---------------------------------------------------------------------
      1          6           0       -1.781392    1.970476   -5.142666
      2          6           0       -1.767840    0.643017   -5.524411
      3          6           0       -1.473460   -0.358202   -4.568831
      4          6           0       -1.502327    2.353903   -3.811890
      5          6           0       -1.205143    1.351702   -2.854602
      6          6           0       -1.202334   -0.002392   -3.262954
      7          6           0       -1.539256    3.767219   -3.448581
      8          6           0       -0.910414    1.676415   -1.461385
      9          6           0       -1.219367    4.125232   -2.068280
     10          6           0       -0.857975    3.105021   -1.101849
     11          6           0       -1.239539    5.521454   -1.679755
     12          6           0       -0.865374    5.873061   -0.362820
     13          6           0       -0.469864    4.889489    0.534059
     14          6           0       -0.469914    3.551227    0.183619
     15          8           0       -1.837798    4.615571   -4.347566
     16          8           0       -0.719078    0.750247   -0.635074
     17          1           0       -2.007785    2.761475   -5.848224
     18          1           0       -1.984134    0.367621   -6.553469
     19          1           0       -1.461752   -1.404663   -4.863404
     20          1           0       -0.976813   -0.745165   -2.506258
     21         35           0        0.182591    2.387485    1.609048
     22          7           0       -1.615370    6.484575   -2.559673
     23         16           0       -0.950781    7.592504    0.262389
     24          8           0       -0.511402    8.447721   -0.889147
     25          8           0       -2.372173    7.821354    0.633516
     26          8           0       -0.016979    7.633597    1.417645
     27          1           0       -0.151512    5.199586    1.520113
     28          1           0       -1.754743    6.168408   -3.515674
     29          1           0       -1.375961    7.439679   -2.310496
 ---------------------------------------------------------------------

 SCF Done:  E(UB3LYP) =  -3941.24300263     A.U. after    2 cycles

 Alpha  occ. eigenvalues -- -482.61104 -88.81125 -62.26379 -56.08404 -56.08049
 Alpha  occ. eigenvalues --  -56.08008 -18.87200 -18.86478 -18.85524 -18.85390
 Alpha  occ. eigenvalues --  -18.85112 -14.08917 -10.02457 -10.01949 -10.01551
 Alpha  occ. eigenvalues --  -10.00885  -9.98974  -9.98904  -9.98223  -9.98123
 Alpha  occ. eigenvalues --   -9.98051  -9.97437  -9.97413  -9.97373  -9.97035
 Alpha  occ. eigenvalues --   -9.96800  -8.47339  -7.86961  -6.30442  -6.29256
 Alpha  occ. eigenvalues --   -6.29136  -5.83236  -5.83209  -5.83162  -2.41541
 Alpha  occ. eigenvalues --   -2.41226  -2.41136  -2.40189  -2.40188  -0.87080
 Alpha  occ. eigenvalues --   -0.79869  -0.79355  -0.73673  -0.73229  -0.70558
 Alpha  occ. eigenvalues --   -0.66518  -0.64445  -0.59271  -0.57104  -0.55882
 Alpha  occ. eigenvalues --   -0.54519  -0.50478  -0.46461  -0.44468  -0.42937
 Alpha  occ. eigenvalues --   -0.39297  -0.36517  -0.35422  -0.34165  -0.31776
 Alpha  occ. eigenvalues --   -0.29849  -0.27572  -0.27035  -0.26745  -0.24367
 Alpha  occ. eigenvalues --   -0.23894  -0.23283  -0.22344  -0.22130  -0.21283
 Alpha  occ. eigenvalues --   -0.21070  -0.20295  -0.19853  -0.18532  -0.17976
 Alpha  occ. eigenvalues --   -0.17513  -0.16432  -0.15628  -0.14729  -0.14210
 Alpha  occ. eigenvalues --   -0.12395  -0.09596  -0.09438  -0.08151  -0.07682
 Alpha  occ. eigenvalues --   -0.07158  -0.06463  -0.06272  -0.06129  -0.05789
 Alpha  occ. eigenvalues --   -0.03761  -0.03707  -0.02052  -0.01652   0.00303
 Alpha  occ. eigenvalues --    0.06595
 Alpha virt. eigenvalues --    0.13248   0.14836   0.15218   0.16988   0.17277
 Alpha virt. eigenvalues --    0.17600   0.18914   0.19951   0.20109   0.20590
 Alpha virt. eigenvalues --    0.21552   0.21914   0.22447   0.23029   0.23567

  Beta  occ. eigenvalues -- -482.61102 -88.81127 -62.26377 -56.08404 -56.08043
  Beta  occ. eigenvalues --  -56.08007 -18.86721 -18.85861 -18.85519 -18.85390
  Beta  occ. eigenvalues --  -18.85098 -14.08897 -10.02306 -10.01814 -10.01560
  Beta  occ. eigenvalues --  -10.00802  -9.98920  -9.98834  -9.98160  -9.98151
  Beta  occ. eigenvalues --   -9.98066  -9.97422  -9.97319  -9.97257  -9.96908
  Beta  occ. eigenvalues --   -9.96784  -8.47336  -7.86963  -6.30443  -6.29245
  Beta  occ. eigenvalues --   -6.29135  -5.83237  -5.83211  -5.83167  -2.41539
  Beta  occ. eigenvalues --   -2.41220  -2.41136  -2.40183  -2.40182  -0.87070
  Beta  occ. eigenvalues --   -0.79043  -0.78301  -0.73667  -0.73206  -0.70479
  Beta  occ. eigenvalues --   -0.66294  -0.64282  -0.58932  -0.56952  -0.55700
  Beta  occ. eigenvalues --   -0.54335  -0.50231  -0.45864  -0.44301  -0.42709
  Beta  occ. eigenvalues --   -0.39214  -0.36351  -0.35232  -0.34039  -0.31669
  Beta  occ. eigenvalues --   -0.29736  -0.27323  -0.26898  -0.26655  -0.24269
  Beta  occ. eigenvalues --   -0.23789  -0.23242  -0.22143  -0.21538  -0.21077
  Beta  occ. eigenvalues --   -0.20822  -0.20011  -0.19425  -0.18355  -0.17606
  Beta  occ. eigenvalues --   -0.16340  -0.15652  -0.15522  -0.14020  -0.13628
  Beta  occ. eigenvalues --   -0.11742  -0.09571  -0.09420  -0.08028  -0.07307
  Beta  occ. eigenvalues --   -0.06591  -0.06107  -0.05820  -0.05674  -0.04774
  Beta  occ. eigenvalues --   -0.03363  -0.03130  -0.01701  -0.01504   0.01155
  Beta virt. eigenvalues --    0.12174   0.13233   0.15208   0.15587   0.17090
  Beta virt. eigenvalues --    0.17583   0.18272   0.18909   0.19975   0.20459
  Beta virt. eigenvalues --    0.20602   0.21586   0.21929   0.22583   0.23063

 Mulliken charges and spin densities:
               1          2
     1  C    0.094413   0.005513
     2  C   -0.515233   0.057421
     3  C   -0.369163   0.043556
     4  C   -0.019494   0.053397
     5  C    0.210107   0.074491
     6  C    0.086914   0.022504
     7  C   -0.542576   0.078421
     8  C   -1.311981   0.062064
     9  C    0.361520  -0.015429
    10  C    0.912250   0.039801
    11  C    0.328640   0.005063
    12  C   -1.013344   0.080849
    13  C   -0.260347   0.008124
    14  C    0.418137   0.075578
    15  O   -0.383243   0.176110
    16  O   -0.276220   0.228444
    17  H    0.147035   0.000335
    18  H    0.103623  -0.004867
    19  H    0.102635  -0.003597
    20  H    0.152124  -0.001694
    21  Br  -0.292348   0.004600
    22  N   -0.410161   0.010582
    23  S    0.600885  -0.004636
    24  O   -0.390853   0.002932
    25  O   -0.284363   0.004333
    26  O   -0.302839   0.000643
    27  H    0.257563  -0.001111
    28  H    0.337945  -0.002571
    29  H    0.258372  -0.000856
 Sum of Mulliken charges =  -2.00000   1.00000

 Dipole moment (field-independent basis, Debye):
    X=              9.9560    Y=            -46.7418    Z=              8.2751  Tot=             48.5015
 Quadrupole moment (field-independent basis, Debye-Ang):
   XX=           -177.8611   YY=           -485.4853   ZZ=           -215.7209
   XY=             50.1825   XZ=            -18.6398   YZ=             11.4798

  Exact polarizability: 155.058  -5.180 379.683  52.330  66.765 349.929
 Approx polarizability: 256.687 -23.733 588.639  88.359  31.301 564.628

                      1                      2                      3
                      A                      A                      A
 Frequencies --     23.9998                28.2837                43.7273
 Red. masses --     11.4261                 9.4159                12.8529
 Frc consts  --      0.0039                 0.0044                 0.0145
 IR Inten    --      2.4141                 0.3689                 0.1479

                      4                      5                      6
                      A                      A                      A
 Frequencies --     80.6574               110.4372               125.2984
 Red. masses --      9.9100                 7.4289                 6.3931
 Frc consts  --      0.0380                 0.0534                 0.0591
 IR Inten    --      3.4409                 0.8112                 1.6993

                      7                      8                      9
                      A                      A                      A
 Frequencies --    132.1254               138.2016               171.4019
 Red. masses --     10.3284                10.8432                 7.8625
 Frc consts  --      0.1062                 0.1220                 0.1361
 IR Inten    --      0.6489                 2.0553                 0.3461

                     10                     11                     12
                      A                      A                      A
 Frequencies --    213.4343               226.1726               241.6516
 Red. masses --     11.5252                11.5411                11.2905
 Frc consts  --      0.3093                 0.3478                 0.3885
 IR Inten    --      1.6944                 1.1043                 0.9662

                     13                     14                     15
                      A                      A                      A
 Frequencies --    261.3809               287.4302               316.7371
 Red. masses --     10.9339                 5.6802                 9.0026
 Frc consts  --      0.4401                 0.2765                 0.5321
 IR Inten    --      3.3084                 0.4601                 5.0573

                     16                     17                     18
                      A                      A                      A
 Frequencies --    358.5027               373.9325               397.3523
 Red. masses --      6.4716                 9.5271                 7.5799
 Frc consts  --      0.4901                 0.7849                 0.7051
 IR Inten    --      2.0933                 1.3622                 7.1493

                     19                     20                     21
                      A                      A                      A
 Frequencies --    419.8080               428.5175               439.4719
 Red. masses --      8.4099                 7.0109                 3.6080
 Frc consts  --      0.8733                 0.7585                 0.4106
 IR Inten    --      5.3638                 2.4806                 2.1897

                     22                     23                     24
                      A                      A                      A
 Frequencies --    446.9824               480.7461               488.7189
 Red. masses --      8.9347                 7.5918                 6.8162
 Frc consts  --      1.0517                 1.0338                 0.9592
 IR Inten    --     13.3466                 0.6668                 3.2084

                     25                     26                     27
                      A                      A                      A
 Frequencies --    506.7832               526.1587               537.5724
 Red. masses --      8.1015                 7.5528                 7.3529
 Frc consts  --      1.2259                 1.2319                 1.2519
 IR Inten    --     18.8824                 3.9900                26.2140

                     28                     29                     30
                      A                      A                      A
 Frequencies --    574.9878               597.2131               606.6950
 Red. masses --      4.9311                 1.5121                 6.7891
 Frc consts  --      0.9605                 0.3178                 1.4723
 IR Inten    --     18.4449               110.4572               313.7872

                     31                     32                     33
                      A                      A                      A
 Frequencies --    627.5543               662.3609               673.0025
 Red. masses --      5.4519                 5.0581                 5.9681
 Frc consts  --      1.2650                 1.3075                 1.5927
 IR Inten    --      3.0592                 1.4177                48.0781

                     34                     35                     36
                      A                      A                      A
 Frequencies --    704.9389               708.4411               720.7554
 Red. masses --      8.1124                 2.5053                 7.1785
 Frc consts  --      2.3752                 0.7408                 2.1972
 IR Inten    --     92.8092                39.2642                 1.5420

                     37                     38                     39
                      A                      A                      A
 Frequencies --    741.1000               767.7865               777.8961
 Red. masses --      4.2781                 1.3294                 1.9730
 Frc consts  --      1.3844                 0.4617                 0.7034
 IR Inten    --     30.8221                22.2866                 2.2984

                     40                     41                     42
                      A                      A                      A
 Frequencies --    793.9056               811.6166               846.3465
 Red. masses --      4.1929                 7.2049                 1.5307
 Frc consts  --      1.5571                 2.7963                 0.6460
 IR Inten    --      2.1125                19.7401                 0.1154

                     43                     44                     45
                      A                      A                      A
 Frequencies --    900.1927               918.1413               942.3745
 Red. masses --      7.8451                 1.3188                 8.4447
 Frc consts  --      3.7456                 0.6550                 4.4186
 IR Inten    --     16.9954                 8.9039                19.3135

                     46                     47                     48
                      A                      A                      A
 Frequencies --    970.4378               970.7324               974.8734
 Red. masses --      1.2633                 9.9038                 1.3521
 Frc consts  --      0.7010                 5.4986                 0.7571
 IR Inten    --      4.5657               381.6690                 4.0484

                     49                     50                     51
                      A                      A                      A
 Frequencies --   1022.3773              1036.2616              1107.5529
 Red. masses --      3.8685                 2.2000                 2.1728
 Frc consts  --      2.3824                 1.3919                 1.5703
 IR Inten    --      2.7049                48.0776                 5.9770

                     52                     53                     54
                      A                      A                      A
 Frequencies --   1113.1265              1141.0432              1142.5176
 Red. masses --      5.1481                 1.4917                 3.5602
 Frc consts  --      3.7582                 1.1443                 2.7381
 IR Inten    --    204.9689                36.9118                71.7954

                     55                     56                     57
                      A                      A                      A
 Frequencies --   1158.5238              1173.0839              1203.4391
 Red. masses --      9.5301                 3.3188                 2.1706
 Frc consts  --      7.5363                 2.6908                 1.8521
 IR Inten    --    220.4161                78.1851                 9.9462

                     58                     59                     60
                      A                      A                      A
 Frequencies --   1220.2164              1240.4283              1289.7166
 Red. masses --      3.0031                 1.9867                 4.0392
 Frc consts  --      2.6344                 1.8010                 3.9585
 IR Inten    --     34.2853               117.2423                22.8663

                     61                     62                     63
                      A                      A                      A
 Frequencies --   1314.3945              1361.9817              1372.2508
 Red. masses --      2.5959                 5.2871                 5.3409
 Frc consts  --      2.6424                 5.7785                 5.9256
 IR Inten    --     52.8679                 9.2717                24.9450

                     64                     65                     66
                      A                      A                      A
 Frequencies --   1377.8271              1403.0428              1456.9215
 Red. masses --      5.0958                 2.6758                 3.7471
 Frc consts  --      5.6997                 3.1034                 4.6862
 IR Inten    --    150.7291                 1.6090               226.5047

                     67                     68                     69
                      A                      A                      A
 Frequencies --   1477.3634              1497.6114              1523.8673
 Red. masses --      2.6177                 5.6859                 5.9391
 Frc consts  --      3.3662                 7.5136                 8.1258
 IR Inten    --     17.8334                34.4097               647.8524

                     70                     71                     72
                      A                      A                      A
 Frequencies --   1546.0368              1562.0822              1608.2794
 Red. masses --      5.4847                 5.1495                 5.8116
 Frc consts  --      7.7240                 7.4033                 8.8566
 IR Inten    --    112.0133               119.8154                31.0342

                     73                     74                     75
                      A                      A                      A
 Frequencies --   1612.0537              1616.8541              3117.7129
 Red. masses --      4.7040                 1.6380                 1.0839
 Frc consts  --      7.2024                 2.5229                 6.2076
 IR Inten    --     87.1408                91.7919                27.0294

                     76                     77                     78
                      A                      A                      A
 Frequencies --   3139.2112              3179.7191              3182.7569
 Red. masses --      1.0914                 1.0909                 1.0917
 Frc consts  --      6.3369                 6.4984                 6.5156
 IR Inten    --     86.5156                16.0356                35.6473

                     79                     80                     81
                      A                      A                      A
 Frequencies --   3206.5548              3400.6329              3529.3754
 Red. masses --      1.0900                 1.0457                 1.1089
 Frc consts  --      6.6031                 7.1247                 8.1385
 IR Inten    --      5.9311                59.5638               364.9190

 - Thermochemistry -
 -------------------
 Temperature   298.150 Kelvin.  Pressure   1.00000 Atm.
 Atom     1 has atomic number  6 and mass  12.00000

 Molecular mass:   379.92283 amu.
 Principal axes and moments of inertia in atomic units:
                           1         2         3
     Eigenvalues --  6028.28169********************
           X            0.07685   0.29549   0.95225
           Y            0.82119  -0.56041   0.10763
           Z            0.56545   0.77371  -0.28572
 This molecule is an asymmetric top.
 Rotational symmetry number  1.
 Warning -- assumption of classical behavior for rotation
           may cause significant error
 Rotational temperatures (Kelvin)      0.01437     0.00772     0.00513
 Rotational constants (GHZ):           0.29938     0.16081     0.10695
 Zero-point vibrational energy     487069.5 (Joules/Mol)
                                  116.41240 (Kcal/Mol)
 Warning -- explicit consideration of  30 degrees of freedom as
           vibrations may cause significant error
 Vibrational temperatures:     34.53    40.69    62.91   116.05   158.89
          (Kelvin)            180.28   190.10   198.84   246.61   307.08
                              325.41   347.68   376.07   413.55   455.71
                              515.81   538.01   571.70   604.01   616.54
                              632.30   643.11   691.69   703.16   729.15
                              757.02   773.45   827.28   859.26   872.90
                              902.91   952.99   968.30  1014.25  1019.29
                             1037.01  1066.28  1104.67  1119.22  1142.25
                             1167.74  1217.70  1295.18  1321.00  1355.87
                             1396.24  1396.67  1402.63  1470.97  1490.95
                             1593.52  1601.54  1641.71  1643.83  1666.86
                             1687.81  1731.48  1755.62  1784.70  1855.61
                             1891.12  1959.59  1974.36  1982.39  2018.67
                             2096.19  2125.60  2154.73  2192.51  2224.40
                             2247.49  2313.96  2319.39  2326.29  4485.69
                             4516.62  4574.91  4579.28  4613.52  4892.75
                             5077.98

 Zero-point correction=                           0.185515 (Hartree/Particle)
 Thermal correction to Energy=                    0.203472
 Thermal correction to Enthalpy=                  0.204416
 Thermal correction to Gibbs Free Energy=         0.136846
 Sum of electronic and zero-point Energies=          -3941.057488
 Sum of electronic and thermal Energies=             -3941.039530
 Sum of electronic and thermal Enthalpies=           -3941.038586
 Sum of electronic and thermal Free Energies=        -3941.106157

                     E (Thermal)             CV                S
                      KCal/Mol        Cal/Mol-Kelvin    Cal/Mol-Kelvin
 Total                  127.681             69.325            142.214
 Electronic               0.000              0.000              1.377
 Translational            0.889              2.981             43.697
 Rotational               0.889              2.981             35.389
 Vibrational            125.903             63.363             61.751
 Vibration     1          0.593              1.985              6.272
 Vibration     2          0.593              1.984              5.946
 Vibration     3          0.595              1.980              5.083
 Vibration     4          0.600              1.962              3.875
 Vibration     5          0.606              1.941              3.261
 Vibration     6          0.610              1.928              3.017
 Vibration     7          0.612              1.921              2.915
 Vibration     8          0.614              1.915              2.829
 Vibration     9          0.626              1.878              2.420
 Vibration    10          0.644              1.820              2.014
 Vibration    11          0.650              1.801              1.909
 Vibration    12          0.658              1.777              1.791
 Vibration    13          0.669              1.743              1.653
 Vibration    14          0.685              1.697              1.489
 Vibration    15          0.704              1.642              1.327
 Vibration    16          0.733              1.558              1.129
 Vibration    17          0.745              1.526              1.064
 Vibration    18          0.764              1.476              0.972
 Vibration    19          0.782              1.427              0.893
 Vibration    20          0.790              1.408              0.864
 Vibration    21          0.800              1.384              0.828
 Vibration    22          0.806              1.368              0.805
 Vibration    23          0.837              1.293              0.708
 Vibration    24          0.845              1.275              0.687
 Vibration    25          0.862              1.235              0.641
 Vibration    26          0.881              1.192              0.596
 Vibration    27          0.893              1.167              0.571
 Vibration    28          0.931              1.085              0.495
 Vibration    29          0.955              1.038              0.454
 Vibration    30          0.965              1.018              0.438

 Optimization completed.
    -- Stationary point found.
 Normal termination of Gaussian 16 at Sat Dec 23 04:27:07 2023.
