 Q-Chem 5.4, Q-Chem, Inc., Pleasanton, CA (2021)
 Q-Chem 5.4.0 for Intel X86 EM64T Linux

User input:
--------------------------------------------------------------
$molecule
-2 1
O                 -4.9048290000      1.1586620000      0.2507000000
C                 -3.6765580000      0.4980440000      0.1544930000
C                 -3.6413680000     -0.9176560000      0.0646620000
C                 -2.4172900000     -1.5517130000     -0.0377330000
C                 -1.1982630000     -0.8430180000     -0.0193800000
C                  0.0534320000     -1.5816800000     -0.1080620000
O                  0.0962970000     -2.8509690000     -0.1948960000
C                  1.2522670000     -0.7554700000     -0.0897160000
C                  2.5162200000     -1.3765690000     -0.1623720000
C                  3.6944430000     -0.6536890000     -0.1720610000
C                  3.6340270000      0.7602370000     -0.0685110000
O                  4.8146510000      1.5088400000     -0.0687460000
C                  2.4265080000      1.4039140000      0.0320880000
C                  1.1998350000      0.6836350000      0.0065110000
C                 -0.0478480000      1.4165450000      0.0970760000
O                 -0.0909320000      2.6926920000      0.1843890000
C                 -1.2430890000      0.5960460000      0.0812920000
C                 -2.5154760000      1.2290740000      0.1480940000
H                 -5.5809410000      0.5846770000     -0.1368360000
H                 -4.5685330000     -1.4871670000      0.0927560000
H                 -2.3539570000     -2.6324250000     -0.1142790000
H                  2.5260200000     -2.4594490000     -0.2337390000
H                  4.6576270000     -1.1504980000     -0.2731960000
H                  5.5297700000      0.9341780000      0.2396770000
H                  2.3757910000      2.4821300000      0.1305970000
H                 -2.5378030000      2.3116270000      0.1971920000
$end

$rem
BASIS  =  6-311++G(d,p)
GUI  =  2
JOB_TYPE  =  SP
METHOD  =  B3LYP
SCF_CONVERGENCE  = 8
SOLVENT_METHOD = sm12
$end

$smx
solvent dimethylformamide
charges CM5
$end

--------------------------------------------------------------

             Standard Nuclear Orientation (Angstroms)
    I     Atom           X                Y                Z
 ----------------------------------------------------------------
    1      O      -4.9048290000     1.1586620000     0.2507000000
    2      C      -3.6765580000     0.4980440000     0.1544930000
    3      C      -3.6413680000    -0.9176560000     0.0646620000
    4      C      -2.4172900000    -1.5517130000    -0.0377330000
    5      C      -1.1982630000    -0.8430180000    -0.0193800000
    6      C       0.0534320000    -1.5816800000    -0.1080620000
    7      O       0.0962970000    -2.8509690000    -0.1948960000
    8      C       1.2522670000    -0.7554700000    -0.0897160000
    9      C       2.5162200000    -1.3765690000    -0.1623720000
   10      C       3.6944430000    -0.6536890000    -0.1720610000
   11      C       3.6340270000     0.7602370000    -0.0685110000
   12      O       4.8146510000     1.5088400000    -0.0687460000
   13      C       2.4265080000     1.4039140000     0.0320880000
   14      C       1.1998350000     0.6836350000     0.0065110000
   15      C      -0.0478480000     1.4165450000     0.0970760000
   16      O      -0.0909320000     2.6926920000     0.1843890000
   17      C      -1.2430890000     0.5960460000     0.0812920000
   18      C      -2.5154760000     1.2290740000     0.1480940000
   19      H      -5.5809410000     0.5846770000    -0.1368360000
   20      H      -4.5685330000    -1.4871670000     0.0927560000
   21      H      -2.3539570000    -2.6324250000    -0.1142790000
   22      H       2.5260200000    -2.4594490000    -0.2337390000
   23      H       4.6576270000    -1.1504980000    -0.2731960000
   24      H       5.5297700000     0.9341780000     0.2396770000
   25      H       2.3757910000     2.4821300000     0.1305970000
   26      H      -2.5378030000     2.3116270000     0.1971920000
 ----------------------------------------------------------------

   18    -839.4040988341      4.35e-09  Convergence criterion met
 Total energy in the final basis set =     -839.6969113848

                    Orbital Energies (a.u.)
 --------------------------------------------------------------

 Alpha MOs
 -- Occupied --
-19.1514 -19.1514 -19.0349 -19.0168 -10.2234 -10.2234 -10.1919 -10.1757
-10.1717 -10.1717 -10.1706 -10.1706 -10.1549 -10.1549 -10.1496 -10.1496
-10.1487 -10.1487  -1.0518  -1.0517  -0.9564  -0.9376  -0.8407  -0.8366
 -0.7629  -0.7417  -0.7406  -0.7175  -0.6513  -0.6265  -0.6172  -0.5823
 -0.5656  -0.5395  -0.5322  -0.4992  -0.4800  -0.4686  -0.4554  -0.4300
 -0.4246  -0.4169  -0.4146  -0.4022  -0.4017  -0.3914  -0.3854  -0.3662
 -0.3648  -0.3600  -0.3455  -0.3352  -0.3309  -0.3258  -0.3139  -0.2939
 -0.2486  -0.2344  -0.2242  -0.2177  -0.2099  -0.1958  -0.1097

          Ground-State Mulliken Net Atomic Charges

     Atom                 Charge (a.u.)
  ----------------------------------------
      1 O                    -0.045193
      2 C                     2.337300
      3 C                     2.604521
      4 C                     0.134680
      5 C                    -1.397290
      6 C                    -2.752323
      7 O                    -0.277839
      8 C                    -1.397941
      9 C                     0.134416
     10 C                     2.604431
     11 C                     2.336671
     12 O                    -0.044847
     13 C                    -0.504752
     14 C                    -2.056677
     15 C                    -2.811255
     16 O                    -0.382255
     17 C                    -2.053016
     18 C                    -0.503072
     19 H                     0.393718
     20 H                     0.436228
     21 H                     0.134379
     22 H                     0.134438
     23 H                     0.436041
     24 H                     0.393692
     25 H                     0.072900
     26 H                     0.073046
  ----------------------------------------
  Sum of atomic charges =    -2.000000

                    Cartesian Multipole Moments
 -----------------------------------------------------------------
    Charge (ESU x 10^10)
                -9.6064
    Dipole Moment (Debye)
         X       0.1008      Y      -3.0365      Z      -0.2110
       Tot       3.0454
    Quadrupole Moments (Debye-Ang)
        XX    -134.5772     XY       0.7313     YY    -170.6660
        XZ       7.2436     YZ      -3.3597     ZZ    -117.9621

 Total job time:  598.93s(wall), 4688.12s(cpu)
        *  Thank you very much for using Q-Chem.  Have a nice day.  *
