 Q-Chem 5.4, Q-Chem, Inc., Pleasanton, CA (2021)
 Q-Chem 5.4.0 for Intel X86 EM64T Linux

User input:
--------------------------------------------------------------
$molecule
0 1
N                  3.5795880000     -1.2794230000     -0.0276780000
C                  2.8899850000     -0.1152570000     -0.1432880000
C                  3.5939200000      1.0962910000     -0.3383910000
C                  2.9258600000      2.2975520000     -0.4550120000
C                  1.5298250000      2.3513540000     -0.3833820000
C                  0.8092980000      1.1808940000     -0.1937110000
C                 -0.6817410000      1.2911750000     -0.1251760000
O                 -1.2099400000      2.4039200000     -0.2354340000
C                 -1.4645420000      0.0698850000      0.0711240000
C                 -2.8899630000      0.1153330000      0.1438670000
N                 -3.5794580000      1.2796740000      0.0293770000
C                 -3.5939340000     -1.0963230000      0.3382020000
C                 -2.9259040000     -2.2976310000      0.4544350000
C                 -1.5298470000     -2.3514000000      0.3831150000
C                 -0.8093000000     -1.1808720000      0.1939560000
C                  0.6817670000     -1.2911470000      0.1256460000
O                  1.2099500000     -2.4038900000      0.2358560000
C                  1.4645750000     -0.0698170000     -0.0705430000
H                  3.0577910000     -2.1378340000      0.0983540000
H                  4.5819220000     -1.2816990000     -0.1025850000
H                  4.6773510000      1.0652420000     -0.3945670000
H                  3.4929260000      3.2099200000     -0.6038620000
H                  0.9942520000      3.2863960000     -0.4728690000
H                 -4.5820060000      1.2815790000      0.1013770000
H                 -3.0577210000      2.1378990000     -0.0981690000
H                 -4.6773740000     -1.0653000000      0.3942000000
H                 -3.4930090000     -3.2100630000      0.6027350000
H                 -0.9942720000     -3.2864580000      0.4724240000
$end
$rem
MAX_SCF_CYCLES=200
BASIS  =  6-311++G(d,p)
GUI  =  2
JOB_TYPE  =  SP
METHOD  =  B3LYP
SOLVENT_METHOD = PCM
$end
$pcm
theory = CPCM
$end
$solvent
dielectric 37.219
opticaldielectric 1.43
$end

--------------------------------------------------------------

             Standard Nuclear Orientation (Angstroms)
    I     Atom           X                Y                Z
 ----------------------------------------------------------------
    1      N       3.5795880000    -1.2794230000    -0.0276780000
    2      C       2.8899850000    -0.1152570000    -0.1432880000
    3      C       3.5939200000     1.0962910000    -0.3383910000
    4      C       2.9258600000     2.2975520000    -0.4550120000
    5      C       1.5298250000     2.3513540000    -0.3833820000
    6      C       0.8092980000     1.1808940000    -0.1937110000
    7      C      -0.6817410000     1.2911750000    -0.1251760000
    8      O      -1.2099400000     2.4039200000    -0.2354340000
    9      C      -1.4645420000     0.0698850000     0.0711240000
   10      C      -2.8899630000     0.1153330000     0.1438670000
   11      N      -3.5794580000     1.2796740000     0.0293770000
   12      C      -3.5939340000    -1.0963230000     0.3382020000
   13      C      -2.9259040000    -2.2976310000     0.4544350000
   14      C      -1.5298470000    -2.3514000000     0.3831150000
   15      C      -0.8093000000    -1.1808720000     0.1939560000
   16      C       0.6817670000    -1.2911470000     0.1256460000
   17      O       1.2099500000    -2.4038900000     0.2358560000
   18      C       1.4645750000    -0.0698170000    -0.0705430000
   19      H       3.0577910000    -2.1378340000     0.0983540000
   20      H       4.5819220000    -1.2816990000    -0.1025850000
   21      H       4.6773510000     1.0652420000    -0.3945670000
   22      H       3.4929260000     3.2099200000    -0.6038620000
   23      H       0.9942520000     3.2863960000    -0.4728690000
   24      H      -4.5820060000     1.2815790000     0.1013770000
   25      H      -3.0577210000     2.1378990000    -0.0981690000
   26      H      -4.6773740000    -1.0653000000     0.3942000000
   27      H      -3.4930090000    -3.2100630000     0.6027350000
   28      H      -0.9942720000    -3.2864580000     0.4724240000
 ----------------------------------------------------------------

    9    -799.7401390085      2.46e-06  Convergence criterion met
 Total energy in the final basis set =     -799.7401390085

                    Orbital Energies (a.u.)
 --------------------------------------------------------------

 Alpha MOs
 -- Occupied --
-19.1191 -19.1191 -14.3291 -14.3291 -10.2724 -10.2724 -10.2430 -10.2430
-10.2004 -10.2004 -10.1949 -10.1949 -10.1918 -10.1918 -10.1855 -10.1855
-10.1800 -10.1800  -1.0544  -1.0524  -0.9397  -0.9391  -0.8723  -0.8560
 -0.8036  -0.7644  -0.7561  -0.7474  -0.6810  -0.6604  -0.6478  -0.6090
 -0.5852  -0.5794  -0.5523  -0.5318  -0.5224  -0.5081  -0.4943  -0.4840
 -0.4703  -0.4615  -0.4613  -0.4514  -0.4472  -0.4302  -0.4230  -0.4173
 -0.4004  -0.3860  -0.3841  -0.3796  -0.3788  -0.3650  -0.3330  -0.3262
 -0.2841  -0.2803  -0.2705  -0.2675  -0.2263  -0.2193

          Ground-State Mulliken Net Atomic Charges

     Atom                 Charge (a.u.)
  ----------------------------------------
      1 N                    -0.467767
      2 C                     0.245017
      3 C                    -0.225407
      4 C                    -0.451448
      5 C                    -0.096803
      6 C                     0.569050
      7 C                    -0.716975
      8 O                    -0.344203
      9 C                     0.193915
     10 C                     0.245494
     11 N                    -0.468127
     12 C                    -0.226653
     13 C                    -0.450807
     14 C                    -0.097203
     15 C                     0.569026
     16 C                    -0.716445
     17 O                    -0.344203
     18 C                     0.193062
     19 H                     0.346540
     20 H                     0.332607
     21 H                     0.204807
     22 H                     0.223330
     23 H                     0.187857
     24 H                     0.332715
     25 H                     0.346638
     26 H                     0.204752
     27 H                     0.223389
     28 H                     0.187839
  ----------------------------------------
  Sum of atomic charges =     0.000000

                    Cartesian Multipole Moments
 -----------------------------------------------------------------
    Charge (ESU x 10^10)
                -0.0000
    Dipole Moment (Debye)
         X      -0.0010      Y      -0.0010      Z      -0.0089
       Tot       0.0090
    Quadrupole Moments (Debye-Ang)
        XX     -56.9158     XY       5.4705     YY    -106.8658
        XZ      -4.0525     YZ      -0.5178     ZZ    -109.3619

 Total job time:  65.36s(wall), 348.77s(cpu)
        *  Thank you very much for using Q-Chem.  Have a nice day.  *
