 Q-Chem 5.4, Q-Chem, Inc., Pleasanton, CA (2021)
 Q-Chem 5.4.0 for Intel X86 EM64T Linux

User input:
--------------------------------------------------------------
$molecule
0 1
C                 -6.7650100000      5.7615670000      0.9787980000
C                 -7.8785580000      5.0108890000      0.6145770000
C                 -7.7595820000      4.0097360000     -0.3511340000
C                 -6.5298560000      3.7555430000     -0.9557820000
C                 -5.4084700000      4.5016300000     -0.5974920000
C                 -5.5313120000      5.5080180000      0.3745280000
C                 -4.3421890000      6.2946560000      0.7491070000
C                 -3.0484180000      5.9802270000      0.0774420000
C                 -2.9070470000      5.0210850000     -0.8703700000
C                 -4.0872320000      4.2193110000     -1.2560970000
O                 -4.3489670000      7.1947690000      1.5814730000
O                 -3.9997140000      3.3389200000     -2.1007740000
C                 -1.5871780000      4.7191340000     -1.5223920000
C                 -0.8045570000      3.6019900000     -0.7990550000
C                  0.5363500000      3.2937600000     -1.4729460000
C                  1.3306960000      2.1892480000     -0.7667400000
C                  2.6742500000      1.8780530000     -1.4359500000
C                  3.4691990000      0.7733700000     -0.7306000000
C                  4.8125020000      0.4615760000     -1.3997810000
C                  5.6060220000     -0.6432560000     -0.6924760000
C                  6.9497690000     -0.9503240000     -1.3673270000
C                  7.7253870000     -2.0517420000     -0.6462310000
S                  9.3298120000     -2.3698720000     -1.5109220000
C                 10.0144160000     -3.6689860000     -0.4749290000
C                  9.7585830000     -5.0136650000     -0.7589650000
C                 10.8388610000     -3.3529120000      0.6088890000
C                 11.3848560000     -4.3636170000      1.3966770000
C                 11.1316150000     -5.7121330000      1.1233960000
C                 10.3084790000     -6.0179780000      0.0342470000
C                 11.7536460000     -6.8046880000      1.9586670000
H                 -6.8323680000      6.5437500000      1.7250090000
H                 -8.8375600000      5.2040970000      1.0811400000
H                 -8.6283440000      3.4259150000     -0.6334980000
H                 -6.4201930000      2.9830270000     -1.7067070000
O                 -2.0218570000      6.7417710000      0.4897460000
H                 -0.9815380000      5.6287810000     -1.5428350000
H                 -1.7732000000      4.4098090000     -2.5538670000
H                 -1.4189990000      2.6958350000     -0.7732560000
H                 -0.6326430000      3.9000610000      0.2414410000
H                  1.1420290000      4.2084210000     -1.5102050000
H                  0.3577150000      3.0020940000     -2.5156380000
H                  0.7242700000      1.2751670000     -0.7302460000
H                  1.5054320000      2.4803050000      0.2771440000
H                  3.2804000000      2.7924690000     -1.4729520000
H                  2.4994200000      1.5874680000     -2.4798840000
H                  2.8627210000     -0.1408330000     -0.6934810000
H                  3.6439800000      1.0640770000      0.3134260000
H                  5.4194680000      1.3752250000     -1.4369170000
H                  4.6382690000      0.1699360000     -2.4433690000
H                  5.0002220000     -1.5575240000     -0.6563940000
H                  5.7816720000     -0.3514050000      0.3506870000
H                  7.5582110000     -0.0394030000     -1.4012180000
H                  6.7764720000     -1.2484870000     -2.4076100000
H                  7.1545140000     -2.9830060000     -0.6306820000
H                  7.9437350000     -1.7625660000      0.3843440000
H                  9.1302310000     -5.2699550000     -1.6040890000
H                 11.0526940000     -2.3137980000      0.8308260000
H                 12.0204510000     -4.0982080000      2.2357930000
H                 10.0958570000     -7.0563630000     -0.2004400000
H                 11.9156410000     -6.4765750000      2.9880200000
H                 12.7270470000     -7.1014410000      1.5527340000
H                 11.1237830000     -7.6969920000      1.9813910000
H                 -2.3900960000      7.3542630000      1.1547020000
$end
$rem
MAX_SCF_CYCLES=200
BASIS  =  6-311++G(d,p)
GUI  =  2
JOB_TYPE  =  SP
METHOD  =  B3LYP
SCF_ALGORITHM = RCA_DIIS
THRESH = 14
SOLVENT_METHOD = PCM
$end
$pcm
theory = CPCM
$end
$solvent
dielectric 37.219
opticaldielectric 1.43
$end

--------------------------------------------------------------

             Standard Nuclear Orientation (Angstroms)
    I     Atom           X                Y                Z
 ----------------------------------------------------------------
    1      C      -6.7650100000     5.7615670000     0.9787980000
    2      C      -7.8785580000     5.0108890000     0.6145770000
    3      C      -7.7595820000     4.0097360000    -0.3511340000
    4      C      -6.5298560000     3.7555430000    -0.9557820000
    5      C      -5.4084700000     4.5016300000    -0.5974920000
    6      C      -5.5313120000     5.5080180000     0.3745280000
    7      C      -4.3421890000     6.2946560000     0.7491070000
    8      C      -3.0484180000     5.9802270000     0.0774420000
    9      C      -2.9070470000     5.0210850000    -0.8703700000
   10      C      -4.0872320000     4.2193110000    -1.2560970000
   11      O      -4.3489670000     7.1947690000     1.5814730000
   12      O      -3.9997140000     3.3389200000    -2.1007740000
   13      C      -1.5871780000     4.7191340000    -1.5223920000
   14      C      -0.8045570000     3.6019900000    -0.7990550000
   15      C       0.5363500000     3.2937600000    -1.4729460000
   16      C       1.3306960000     2.1892480000    -0.7667400000
   17      C       2.6742500000     1.8780530000    -1.4359500000
   18      C       3.4691990000     0.7733700000    -0.7306000000
   19      C       4.8125020000     0.4615760000    -1.3997810000
   20      C       5.6060220000    -0.6432560000    -0.6924760000
   21      C       6.9497690000    -0.9503240000    -1.3673270000
   22      C       7.7253870000    -2.0517420000    -0.6462310000
   23      S       9.3298120000    -2.3698720000    -1.5109220000
   24      C      10.0144160000    -3.6689860000    -0.4749290000
   25      C       9.7585830000    -5.0136650000    -0.7589650000
   26      C      10.8388610000    -3.3529120000     0.6088890000
   27      C      11.3848560000    -4.3636170000     1.3966770000
   28      C      11.1316150000    -5.7121330000     1.1233960000
   29      C      10.3084790000    -6.0179780000     0.0342470000
   30      C      11.7536460000    -6.8046880000     1.9586670000
   31      H      -6.8323680000     6.5437500000     1.7250090000
   32      H      -8.8375600000     5.2040970000     1.0811400000
   33      H      -8.6283440000     3.4259150000    -0.6334980000
   34      H      -6.4201930000     2.9830270000    -1.7067070000
   35      O      -2.0218570000     6.7417710000     0.4897460000
   36      H      -0.9815380000     5.6287810000    -1.5428350000
   37      H      -1.7732000000     4.4098090000    -2.5538670000
   38      H      -1.4189990000     2.6958350000    -0.7732560000
   39      H      -0.6326430000     3.9000610000     0.2414410000
   40      H       1.1420290000     4.2084210000    -1.5102050000
   41      H       0.3577150000     3.0020940000    -2.5156380000
   42      H       0.7242700000     1.2751670000    -0.7302460000
   43      H       1.5054320000     2.4803050000     0.2771440000
   44      H       3.2804000000     2.7924690000    -1.4729520000
   45      H       2.4994200000     1.5874680000    -2.4798840000
   46      H       2.8627210000    -0.1408330000    -0.6934810000
   47      H       3.6439800000     1.0640770000     0.3134260000
   48      H       5.4194680000     1.3752250000    -1.4369170000
   49      H       4.6382690000     0.1699360000    -2.4433690000
   50      H       5.0002220000    -1.5575240000    -0.6563940000
   51      H       5.7816720000    -0.3514050000     0.3506870000
   52      H       7.5582110000    -0.0394030000    -1.4012180000
   53      H       6.7764720000    -1.2484870000    -2.4076100000
   54      H       7.1545140000    -2.9830060000    -0.6306820000
   55      H       7.9437350000    -1.7625660000     0.3843440000
   56      H       9.1302310000    -5.2699550000    -1.6040890000
   57      H      11.0526940000    -2.3137980000     0.8308260000
   58      H      12.0204510000    -4.0982080000     2.2357930000
   59      H      10.0958570000    -7.0563630000    -0.2004400000
   60      H      11.9156410000    -6.4765750000     2.9880200000
   61      H      12.7270470000    -7.1014410000     1.5527340000
   62      H      11.1237830000    -7.6969920000     1.9813910000
   63      H      -2.3900960000     7.3542630000     1.1547020000
 ----------------------------------------------------------------

   19   -1672.4323960509      6.61E-06 Convergence criterion met
 Total energy in the final basis set = -1672.43239605

                    Orbital Energies (a.u.)
 --------------------------------------------------------------

 Alpha MOs
 -- Occupied --
-88.8432 -19.1778 -19.1495 -19.1299 -10.2933 -10.2808 -10.2668 -10.2105
-10.2091 -10.2055 -10.2027 -10.2004 -10.1981 -10.1966 -10.1965 -10.1946
-10.1903 -10.1822 -10.1822 -10.1771 -10.1771 -10.1746 -10.1681 -10.1654
-10.1650 -10.1617 -10.1591 -10.1582 -10.1574 -10.1570 -10.1566  -7.9294
 -5.8935  -5.8899  -5.8830  -1.1081  -1.0671  -1.0635  -0.8922  -0.8717
 -0.8433  -0.8183  -0.8082  -0.7971  -0.7854  -0.7796  -0.7693  -0.7542
 -0.7478  -0.7247  -0.7036  -0.6876  -0.6691  -0.6545  -0.6424  -0.6206
 -0.6158  -0.6049  -0.5975  -0.5823  -0.5774  -0.5737  -0.5724  -0.5709
 -0.5421  -0.5182  -0.4974  -0.4973  -0.4858  -0.4790  -0.4757  -0.4724
 -0.4705  -0.4678  -0.4565  -0.4563  -0.4520  -0.4448  -0.4365  -0.4298
 -0.4265  -0.4263  -0.4241  -0.4220  -0.4214  -0.4117  -0.4085  -0.3982
 -0.3965  -0.3937  -0.3875  -0.3817  -0.3790  -0.3768  -0.3708  -0.3665
 -0.3641  -0.3631  -0.3471  -0.3470  -0.3417  -0.3407  -0.3310  -0.3277
 -0.3219  -0.3205  -0.3201  -0.3175  -0.3059  -0.3012  -0.2894  -0.2799
 -0.2794  -0.2643  -0.2559  -0.2496  -0.2353

          Ground-State Mulliken Net Atomic Charges

     Atom                 Charge (a.u.)
  ----------------------------------------
      1 C                     0.176863
      2 C                    -0.409030
      3 C                    -0.394646
      4 C                     0.184594
      5 C                     0.015566
      6 C                     0.302123
      7 C                    -0.682906
      8 C                    -0.486293
      9 C                     1.738947
     10 C                    -0.760728
     11 O                    -0.324222
     12 O                    -0.292051
     13 C                    -0.313887
     14 C                    -0.627933
     15 C                    -0.159216
     16 C                    -0.196671
     17 C                    -0.299093
     18 C                    -0.397036
     19 C                    -0.223399
     20 C                    -0.321364
     21 C                    -0.054209
     22 C                    -0.909865
     23 S                    -0.170053
     24 C                     1.381516
     25 C                    -0.487291
     26 C                    -0.499042
     27 C                    -0.493456
     28 C                     0.465869
     29 C                    -0.498460
     30 C                    -0.721019
     31 H                     0.204392
     32 H                     0.226500
     33 H                     0.223382
     34 H                     0.199817
     35 O                    -0.234539
     36 H                     0.236367
     37 H                     0.221912
     38 H                     0.183056
     39 H                     0.182637
     40 H                     0.121763
     41 H                     0.125138
     42 H                     0.133067
     43 H                     0.132130
     44 H                     0.138655
     45 H                     0.138869
     46 H                     0.137273
     47 H                     0.137267
     48 H                     0.135418
     49 H                     0.135337
     50 H                     0.138076
     51 H                     0.138062
     52 H                     0.137494
     53 H                     0.137792
     54 H                     0.223406
     55 H                     0.224077
     56 H                     0.215401
     57 H                     0.215863
     58 H                     0.211131
     59 H                     0.211089
     60 H                     0.159707
     61 H                     0.183842
     62 H                     0.159846
     63 H                     0.322167
  ----------------------------------------
  Sum of atomic charges =     0.000000

                    Cartesian Multipole Moments
 -----------------------------------------------------------------
    Charge (ESU x 10^10)
                 0.0000
    Dipole Moment (Debye)
         X      -3.7309      Y      -1.0410      Z       3.7667
       Tot       5.4029
    Quadrupole Moments (Debye-Ang)
        XX    -168.4101     XY     -26.3845     YY    -180.0209
        XZ      22.8904     YZ      -4.9405     ZZ    -203.8845

 Total job time:  820.02s(wall), 4830.85s(cpu)
        *  Thank you very much for using Q-Chem.  Have a nice day.  *
