 Q-Chem 5.4, Q-Chem, Inc., Pleasanton, CA (2021)
 Q-Chem 5.4.0 for Intel X86 EM64T Linux

User input:
--------------------------------------------------------------
$molecule
-2 1
C                 -2.7024080000     -1.6159030000      0.0475670000
O                 -2.2359320000     -0.6563240000     -0.8897830000
C                 -1.1587850000      0.0991530000     -0.4332550000
C                 -1.2993390000      1.4889730000     -0.3337010000
Br                -3.0374600000      2.2759240000     -0.7681610000
C                 -0.2786960000      2.4229010000      0.0611090000
O                 -0.4240030000      3.6862880000      0.1364510000
C                  0.9319660000      1.7043940000      0.3575190000
C                  1.1109970000      0.3170150000      0.2909370000
O                  2.3370400000     -0.2233440000      0.6707730000
C                  2.9960200000     -0.9368820000     -0.3653730000
C                  0.0658090000     -0.5716010000     -0.1177450000
O                  0.2145340000     -1.8651130000     -0.1949770000
Br                 2.4526550000      2.8076630000      0.9046850000
H                 -3.1368180000     -1.1174750000      0.9289130000
H                 -3.4902660000     -2.1879410000     -0.4575660000
H                 -1.8832410000     -2.2765980000      0.3484950000
H                  3.8990120000     -1.3713580000      0.0806650000
H                  2.3434120000     -1.7257170000     -0.7526020000
H                  3.2955030000     -0.2540560000     -1.1765330000
$end

$rem
BASIS  =  6-311++G(d,p)
GUI  =  2
JOB_TYPE  =  SP
METHOD  =  B3LYP
SCF_CONVERGENCE  = 8
SOLVENT_METHOD = sm12
$end

$smx
solvent dimethylformamide
charges CM5
$end

--------------------------------------------------------------

             Standard Nuclear Orientation (Angstroms)
    I     Atom           X                Y                Z
 ----------------------------------------------------------------
    1      C      -2.7024080000    -1.6159030000     0.0475670000
    2      O      -2.2359320000    -0.6563240000    -0.8897830000
    3      C      -1.1587850000     0.0991530000    -0.4332550000
    4      C      -1.2993390000     1.4889730000    -0.3337010000
    5      Br     -3.0374600000     2.2759240000    -0.7681610000
    6      C      -0.2786960000     2.4229010000     0.0611090000
    7      O      -0.4240030000     3.6862880000     0.1364510000
    8      C       0.9319660000     1.7043940000     0.3575190000
    9      C       1.1109970000     0.3170150000     0.2909370000
   10      O       2.3370400000    -0.2233440000     0.6707730000
   11      C       2.9960200000    -0.9368820000    -0.3653730000
   12      C       0.0658090000    -0.5716010000    -0.1177450000
   13      O       0.2145340000    -1.8651130000    -0.1949770000
   14      Br      2.4526550000     2.8076630000     0.9046850000
   15      H      -3.1368180000    -1.1174750000     0.9289130000
   16      H      -3.4902660000    -2.1879410000    -0.4575660000
   17      H      -1.8832410000    -2.2765980000     0.3484950000
   18      H       3.8990120000    -1.3713580000     0.0806650000
   19      H       2.3434120000    -1.7257170000    -0.7526020000
   20      H       3.2955030000    -0.2540560000    -1.1765330000
 ----------------------------------------------------------------

   17   -5757.7560275025      2.23e-09  Convergence criterion met
 Total energy in the final basis set =    -5758.0095399822

                    Orbital Energies (a.u.)
 --------------------------------------------------------------

 Alpha MOs
 -- Occupied --
********-482.7949 -62.4472 -62.4472 -56.2676 -56.2675 -56.2642 -56.2641
-56.2638 -56.2638 -19.1184 -19.1184 -19.0113 -19.0107 -10.2017 -10.2017
-10.1881 -10.1881 -10.1868 -10.1752 -10.1751 -10.1733  -8.6555  -8.6555
 -6.4860  -6.4860  -6.4747  -6.4747  -6.4738  -6.4737  -2.5970  -2.5969
 -2.5940  -2.5939  -2.5933  -2.5932  -2.5842  -2.5842  -2.5842  -2.5841
 -1.0314  -1.0290  -0.9350  -0.9187  -0.8047  -0.7762  -0.7385  -0.7072
 -0.6863  -0.6387  -0.6370  -0.5487  -0.5411  -0.4838  -0.4830  -0.4499
 -0.4450  -0.4395  -0.4272  -0.4082  -0.3981  -0.3670  -0.3563  -0.3434
 -0.3384  -0.3327  -0.3278  -0.3116  -0.2919  -0.2735  -0.2648  -0.2625
 -0.2521  -0.2465  -0.2156  -0.1936  -0.1918  -0.1876  -0.1178

          Ground-State Mulliken Net Atomic Charges

     Atom                 Charge (a.u.)
  ----------------------------------------
      1 C                     0.091049
      2 O                     0.032616
      3 C                    -2.546744
      4 C                     3.358161
      5 Br                    0.234265
      6 C                    -3.799780
      7 O                    -0.262525
      8 C                     3.327090
      9 C                    -2.525451
     10 O                     0.030757
     11 C                     0.090671
     12 C                    -0.559021
     13 O                    -0.454494
     14 Br                    0.236051
     15 H                     0.036950
     16 H                     0.241136
     17 H                     0.095334
     18 H                     0.240921
     19 H                     0.095646
     20 H                     0.037367
  ----------------------------------------
  Sum of atomic charges =    -2.000000

                    Cartesian Multipole Moments
 -----------------------------------------------------------------
    Charge (ESU x 10^10)
                -9.6064
    Dipole Moment (Debye)
         X       1.3358      Y     -11.5926      Z       0.1131
       Tot      11.6699
    Quadrupole Moments (Debye-Ang)
        XX    -145.5689     XY       5.2852     YY    -184.4076
        XZ     -11.8508     YZ      -4.1658     ZZ    -121.7554

 Total job time:  353.44s(wall), 2673.16s(cpu)
        *  Thank you very much for using Q-Chem.  Have a nice day.  *
