 Gaussian 16, Revision A.03,
 Gaussian 16:  ES64L-G16RevA.03 25-Dec-2016

 --------------------------------------
 #P UB3LYP/6-311++G(d,p) nosym opt freq
 --------------------------------------

 -------
 Reduced
 -------
 Symbolic Z-matrix:
 Charge = -2 Multiplicity = 1

 SCF Done:  E(UB3LYP) =  -1357.56219034     A.U. after   39 cycles
 SCF Done:  E(UB3LYP) =  -1357.58204058     A.U. after   31 cycles
 SCF Done:  E(UB3LYP) =  -1357.58833839     A.U. after   47 cycles
 SCF Done:  E(UB3LYP) =  -1357.58921034     A.U. after   34 cycles
 SCF Done:  E(UB3LYP) =  -1357.58984793     A.U. after   35 cycles
 SCF Done:  E(UB3LYP) =  -1357.58995874     A.U. after   36 cycles
 SCF Done:  E(UB3LYP) =  -1357.59029082     A.U. after   28 cycles
 SCF Done:  E(UB3LYP) =  -1357.59035212     A.U. after   28 cycles
 SCF Done:  E(UB3LYP) =  -1357.59038376     A.U. after   28 cycles
 SCF Done:  E(UB3LYP) =  -1357.59038821     A.U. after   27 cycles
 SCF Done:  E(UB3LYP) =  -1357.59082139     A.U. after   35 cycles
 SCF Done:  E(UB3LYP) =  -1357.59091231     A.U. after   31 cycles
 SCF Done:  E(UB3LYP) =  -1357.59093067     A.U. after   29 cycles
 SCF Done:  E(UB3LYP) =  -1357.59103449     A.U. after   26 cycles
 SCF Done:  E(UB3LYP) =  -1357.59106502     A.U. after   19 cycles
 SCF Done:  E(UB3LYP) =  -1357.59106822     A.U. after   25 cycles
 SCF Done:  E(UB3LYP) =  -1357.59106863     A.U. after   24 cycles
 SCF Done:  E(UB3LYP) =  -1357.59106888     A.U. after   21 cycles
 SCF Done:  E(UB3LYP) =  -1357.59106889     A.U. after   19 cycles
 Optimization completed.
    -- Stationary point found.
 Normal termination of Gaussian 16 at Fri Dec 29 08:25:13 2023.

 ----------------------------------------------------------------------
 #P Geom=AllCheck Guess=TCheck SCRF=Check GenChk UB3LYP/6-311++G(d,p) F
 req
 ----------------------------------------------------------------------

 Structure from the checkpoint file:  "314-an.chk"
 -------
 Reduced
 -------
 Charge = -2 Multiplicity = 1

                          Input orientation:
 ---------------------------------------------------------------------
 Center     Atomic      Atomic             Coordinates (Angstroms)
 Number     Number       Type             X           Y           Z
 ---------------------------------------------------------------------
      1          6           0       -4.436479   -0.531968   -3.551922
      2          6           0       -3.550221   -0.947924   -4.528531
      3          6           0       -2.158210   -0.807284   -4.320759
      4          6           0       -3.991989    0.034882   -2.334725
      5          6           0       -2.583058    0.174093   -2.125980
      6          6           0       -1.698034   -0.256270   -3.137435
      7          6           0       -4.977033    0.456550   -1.338032
      8          6           0       -4.438661    1.010019   -0.137538
      9          6           0       -3.031556    1.158887    0.049759
     10          6           0       -2.034286    0.763436   -0.899058
     11          8           0       -6.238248    0.319026   -1.557000
     12          8           0       -0.778376    0.878080   -0.716756
     13          1           0       -5.510225   -0.624147   -3.679001
     14          1           0       -3.921361   -1.381724   -5.455251
     15          1           0       -1.455179   -1.132618   -5.084801
     16          1           0       -0.637599   -0.133131   -2.942167
     17          6           0       -5.431661    1.426187    0.917948
     18         16           0       -2.445248    2.058962    1.489724
     19          6           0       -1.656041    0.883521    2.562734
     20          6           0       -1.326849    1.272380    3.852014
     21          6           0       -0.692196    0.389244    4.757894
     22          6           0       -0.379767   -0.943986    4.329214
     23          6           0       -0.720900   -1.313770    3.000527
     24          6           0       -1.334980   -0.437921    2.139337
     25          6           0       -0.354413    0.765246    6.087957
     26          6           0        0.264195   -0.115272    6.947874
     27          6           0        0.570817   -1.429725    6.522527
     28          6           0        0.250805   -1.827274    5.241750
     29          1           0       -5.499047    2.519475    1.024591
     30          1           0       -5.168354    1.036073    1.908084
     31          1           0       -6.414492    1.054832    0.620233
     32          1           0       -1.568407    2.277434    4.188233
     33          1           0       -0.475899   -2.316677    2.660327
     34          1           0       -1.573558   -0.723226    1.123819
     35          1           0       -0.590500    1.773823    6.417280
     36          1           0        0.521810    0.195879    7.957587
     37          1           0        1.058996   -2.117967    7.207588
     38          1           0        0.483214   -2.835986    4.909585
 ---------------------------------------------------------------------

 SCF Done:  E(UB3LYP) =  -1357.59106889     A.U. after    2 cycles

 Alpha  occ. eigenvalues --  -88.63390 -18.81408 -18.80288 -10.01349 -10.00879
 Alpha  occ. eigenvalues --  -10.00863 -10.00834 -10.00667 -10.00653 -10.00555
 Alpha  occ. eigenvalues --   -9.99282  -9.98710  -9.98430  -9.97550  -9.96305
 Alpha  occ. eigenvalues --   -9.95852  -9.95728  -9.95011  -9.94878  -9.94661
 Alpha  occ. eigenvalues --   -9.93834  -9.93697  -9.93317  -9.92966  -7.71945
 Alpha  occ. eigenvalues --   -5.68339  -5.67908  -5.67406  -0.73603  -0.71973
 Alpha  occ. eigenvalues --   -0.70020  -0.65063  -0.62766  -0.60213  -0.59128
 Alpha  occ. eigenvalues --   -0.56732  -0.54816  -0.52807  -0.52330  -0.50614
 Alpha  occ. eigenvalues --   -0.46069  -0.44574  -0.42895  -0.42256  -0.41649
 Alpha  occ. eigenvalues --   -0.37479  -0.36317  -0.34188  -0.33001  -0.32118
 Alpha  occ. eigenvalues --   -0.30392  -0.27898  -0.27502  -0.26856  -0.25601
 Alpha  occ. eigenvalues --   -0.24455  -0.24135  -0.23127  -0.22208  -0.21860
 Alpha  occ. eigenvalues --   -0.21021  -0.20026  -0.19760  -0.18877  -0.17464
 Alpha  occ. eigenvalues --   -0.16853  -0.16229  -0.16020  -0.15655  -0.15601
 Alpha  occ. eigenvalues --   -0.14481  -0.13681  -0.12974  -0.11766  -0.11333
 Alpha  occ. eigenvalues --   -0.10452  -0.10240  -0.09557  -0.08199  -0.05049
 Alpha  occ. eigenvalues --   -0.02741  -0.01717  -0.01218   0.00075   0.01041
 Alpha  occ. eigenvalues --    0.02187   0.10075
 Alpha virt. eigenvalues --    0.11101   0.12934   0.12972   0.14721   0.14803
 Alpha virt. eigenvalues --    0.15752   0.15913   0.16634   0.17219   0.17863
 Alpha virt. eigenvalues --    0.18482   0.19000   0.19298   0.19590   0.19934

  Beta  occ. eigenvalues --  -88.63390 -18.81408 -18.80288 -10.01349 -10.00879
  Beta  occ. eigenvalues --  -10.00863 -10.00834 -10.00667 -10.00653 -10.00555
  Beta  occ. eigenvalues --   -9.99282  -9.98710  -9.98430  -9.97550  -9.96305
  Beta  occ. eigenvalues --   -9.95852  -9.95728  -9.95011  -9.94878  -9.94661
  Beta  occ. eigenvalues --   -9.93834  -9.93697  -9.93317  -9.92966  -7.71945
  Beta  occ. eigenvalues --   -5.68339  -5.67908  -5.67406  -0.73603  -0.71973
  Beta  occ. eigenvalues --   -0.70020  -0.65063  -0.62766  -0.60213  -0.59128
  Beta  occ. eigenvalues --   -0.56732  -0.54816  -0.52807  -0.52330  -0.50614
  Beta  occ. eigenvalues --   -0.46069  -0.44574  -0.42895  -0.42256  -0.41649
  Beta  occ. eigenvalues --   -0.37479  -0.36317  -0.34188  -0.33001  -0.32118
  Beta  occ. eigenvalues --   -0.30392  -0.27898  -0.27502  -0.26856  -0.25601
  Beta  occ. eigenvalues --   -0.24455  -0.24135  -0.23127  -0.22208  -0.21860
  Beta  occ. eigenvalues --   -0.21021  -0.20026  -0.19760  -0.18877  -0.17464
  Beta  occ. eigenvalues --   -0.16853  -0.16229  -0.16020  -0.15655  -0.15601
  Beta  occ. eigenvalues --   -0.14481  -0.13681  -0.12974  -0.11766  -0.11333
  Beta  occ. eigenvalues --   -0.10452  -0.10240  -0.09557  -0.08199  -0.05049
  Beta  occ. eigenvalues --   -0.02741  -0.01717  -0.01218   0.00075   0.01041
  Beta  occ. eigenvalues --    0.02187   0.10075
  Beta virt. eigenvalues --    0.11101   0.12934   0.12972   0.14721   0.14803
  Beta virt. eigenvalues --    0.15752   0.15913   0.16634   0.17219   0.17863
  Beta virt. eigenvalues --    0.18482   0.19000   0.19298   0.19590   0.19934

 Mulliken charges and spin densities:
               1          2
     1  C    0.018547  -0.000000
     2  C   -0.485067   0.000000
     3  C   -0.429814  -0.000000
     4  C    0.546774  -0.000000
     5  C    0.058116   0.000000
     6  C   -0.066128  -0.000000
     7  C   -0.784648  -0.000000
     8  C    0.840765   0.000000
     9  C    0.812062   0.000000
    10  C   -0.848165  -0.000000
    11  O   -0.504075   0.000000
    12  O   -0.411465  -0.000000
    13  H    0.156081   0.000000
    14  H    0.082056   0.000000
    15  H    0.088980  -0.000000
    16  H    0.165401  -0.000000
    17  C   -0.398019  -0.000000
    18  S   -0.637565  -0.000000
    19  C    0.236256   0.000000
    20  C   -0.204366   0.000000
    21  C    0.032866  -0.000000
    22  C    0.264994   0.000000
    23  C   -0.239638  -0.000000
    24  C   -0.236182  -0.000000
    25  C   -0.522812   0.000000
    26  C    0.495896  -0.000000
    27  C    0.456919   0.000000
    28  C   -0.487183  -0.000000
    29  H    0.104691   0.000000
    30  H    0.087834  -0.000000
    31  H    0.180592   0.000000
    32  H    0.071221  -0.000000
    33  H    0.124951  -0.000000
    34  H    0.221144   0.000000
    35  H    0.111866   0.000000
    36  H   -0.530967  -0.000000
    37  H   -0.478776   0.000000
    38  H    0.106856  -0.000000
 Sum of Mulliken charges =  -2.00000   0.00000

 Dipole moment (field-independent basis, Debye):
    X=             24.7243    Y=             -3.0176    Z=             -6.3039  Tot=             25.6931
 Quadrupole moment (field-independent basis, Debye-Ang):
   XX=           -301.8667   YY=           -172.5477   ZZ=           -313.5453
   XY=             11.9849   XZ=            -48.8913   YZ=             10.0019

  Exact polarizability: 917.987-364.226 978.4831190.409-191.1633001.805
 Approx polarizability:4257.033********1188.6197311.912****************

                      1                      2                      3
                      A                      A                      A
 Frequencies --     15.2320                29.1731                30.2274
 Red. masses --      6.3845                 5.9905                 4.8700
 Frc consts  --      0.0009                 0.0030                 0.0026
 IR Inten    --      0.4580                 0.8517                 2.4885

                      4                      5                      6
                      A                      A                      A
 Frequencies --     82.4101                89.1757               100.5550
 Red. masses --      3.6383                 5.8179                 2.9737
 Frc consts  --      0.0146                 0.0273                 0.0177
 IR Inten    --      3.2924                 7.8838                 0.4459

                      7                      8                      9
                      A                      A                      A
 Frequencies --    108.7630               145.8177               158.7908
 Red. masses --      1.3432                 4.4708                 6.0302
 Frc consts  --      0.0094                 0.0560                 0.0896
 IR Inten    --      3.0878                 3.2147                 2.2381

                     10                     11                     12
                      A                      A                      A
 Frequencies --    183.2308               185.0394               209.4941
 Red. masses --      5.3890                 4.3857                 8.9257
 Frc consts  --      0.1066                 0.0885                 0.2308
 IR Inten    --      4.9528                 1.9499                 7.6332

                     13                     14                     15
                      A                      A                      A
 Frequencies --    259.8837               270.0475               281.9150
 Red. masses --      4.9497                 5.0664                 6.0495
 Frc consts  --      0.1970                 0.2177                 0.2833
 IR Inten    --      8.6703                 2.4110                 4.1798

                     16                     17                     18
                      A                      A                      A
 Frequencies --    331.4025               347.2897               372.5752
 Red. masses --      4.2243                 5.4784                 9.2456
 Frc consts  --      0.2733                 0.3893                 0.7562
 IR Inten    --     11.4073                20.5841                72.2533

                     19                     20                     21
                      A                      A                      A
 Frequencies --    380.8419               392.3316               399.6541
 Red. masses --     10.9085                 6.4208                 3.2733
 Frc consts  --      0.9322                 0.5823                 0.3080
 IR Inten    --     28.5003                 2.7720                 2.6090

                     22                     23                     24
                      A                      A                      A
 Frequencies --    422.5369               442.1047               465.7408
 Red. masses --      6.5354                 4.1187                 3.6707
 Frc consts  --      0.6875                 0.4743                 0.4691
 IR Inten    --    321.8730                53.0970               115.2859

                     25                     26                     27
                      A                      A                      A
 Frequencies --    471.6894               494.6581               517.5020
 Red. masses --      2.8191                 8.9295                 3.8352
 Frc consts  --      0.3696                 1.2873                 0.6052
 IR Inten    --     30.4781               714.1979                13.1918

                     28                     29                     30
                      A                      A                      A
 Frequencies --    521.6415               530.4449               570.6239
 Red. masses --      6.7874                 5.3869                 6.5765
 Frc consts  --      1.0882                 0.8930                 1.2617
 IR Inten    --     12.5839                18.1868                 8.0853

                     31                     32                     33
                      A                      A                      A
 Frequencies --    604.9048               628.8816               650.4465
 Red. masses --      7.4457                 3.4019                 6.9579
 Frc consts  --      1.6052                 0.7927                 1.7344
 IR Inten    --     25.8355                 3.4567                 9.2845

                     34                     35                     36
                      A                      A                      A
 Frequencies --    656.8588               671.9289               688.8436
 Red. masses --      6.2719                 5.1475                 5.4360
 Frc consts  --      1.5944                 1.3693                 1.5197
 IR Inten    --     16.8634                 2.5761                 8.6041

                     37                     38                     39
                      A                      A                      A
 Frequencies --    693.8829               756.7550               762.0801
 Red. masses --      2.2408                 3.3315                 1.4380
 Frc consts  --      0.6357                 1.1241                 0.4921
 IR Inten    --     46.2460                 1.8205                15.5577

                     40                     41                     42
                      A                      A                      A
 Frequencies --    762.6214               773.7934               784.0476
 Red. masses --      1.8983                 4.7556                 3.0160
 Frc consts  --      0.6505                 1.6777                 1.0924
 IR Inten    --     30.2486                12.5662                 3.2943

                     43                     44                     45
                      A                      A                      A
 Frequencies --    798.3303               813.8957               838.9877
 Red. masses --      6.0118                 1.4122                 1.4878
 Frc consts  --      2.2575                 0.5512                 0.6170
 IR Inten    --     40.2047                15.6939                 9.2005

                     46                     47                     48
                      A                      A                      A
 Frequencies --    841.9019               851.1835               855.0372
 Red. masses --      1.8109                 3.9975                 5.8923
 Frc consts  --      0.7563                 1.7064                 2.5381
 IR Inten    --      0.6975                 0.9798                 6.6305

                     49                     50                     51
                      A                      A                      A
 Frequencies --    869.9065               948.2770               949.6896
 Red. masses --      1.5715                 1.6635                 2.6740
 Frc consts  --      0.7007                 0.8813                 1.4210
 IR Inten    --      2.9586                52.8939                19.8168

                     52                     53                     54
                      A                      A                      A
 Frequencies --    960.3626               965.0092               965.1523
 Red. masses --      1.3438                 1.2767                 1.2394
 Frc consts  --      0.7302                 0.7005                 0.6802
 IR Inten    --     45.2240                28.4463                 1.4894

                     55                     56                     57
                      A                      A                      A
 Frequencies --    967.9413               969.7836              1018.8756
 Red. masses --      1.3647                 6.2751                 1.9739
 Frc consts  --      0.7533                 3.4771                 1.2073
 IR Inten    --      2.6291               146.4282                42.2253

                     58                     59                     60
                      A                      A                      A
 Frequencies --   1025.2208              1033.9898              1042.8978
 Red. masses --      2.0532                 2.3065                 1.4393
 Frc consts  --      1.2715                 1.4529                 0.9223
 IR Inten    --    398.9209                30.3881                 3.6644

                     61                     62                     63
                      A                      A                      A
 Frequencies --   1070.6552              1097.3718              1123.3228
 Red. masses --      2.5881                 2.0058                 1.7461
 Frc consts  --      1.7479                 1.4231                 1.2981
 IR Inten    --     73.8925                51.5309               144.2960

                     64                     65                     66
                      A                      A                      A
 Frequencies --   1143.7692              1148.1821              1164.3899
 Red. masses --      1.7235                 2.1225                 1.1399
 Frc consts  --      1.3284                 1.6486                 0.9105
 IR Inten    --    156.4359               233.8681                29.0886

                     67                     68                     69
                      A                      A                      A
 Frequencies --   1175.0028              1198.4996              1212.1367
 Red. masses --      1.2743                 2.1780                 2.8407
 Frc consts  --      1.0366                 1.8433                 2.4591
 IR Inten    --    119.6139                20.6072                85.1701

                     70                     71                     72
                      A                      A                      A
 Frequencies --   1221.4126              1255.1875              1260.5898
 Red. masses --      2.2928                 2.1821                 1.5896
 Frc consts  --      2.0153                 2.0255                 1.4883
 IR Inten    --     81.7220               137.4091                15.3714

                     73                     74                     75
                      A                      A                      A
 Frequencies --   1280.5467              1338.9564              1353.0875
 Red. masses --      1.8429                 5.5073                 4.1585
 Frc consts  --      1.7805                 5.8173                 4.4858
 IR Inten    --      1.4267               735.2061               365.2415

                     76                     77                     78
                      A                      A                      A
 Frequencies --   1357.8502              1373.4382              1383.7588
 Red. masses --      2.4443                 1.6395                 6.7775
 Frc consts  --      2.6552                 1.8221                 7.6461
 IR Inten    --     22.0203               309.7829               379.5506

                     79                     80                     81
                      A                      A                      A
 Frequencies --   1395.8361              1404.9213              1432.7239
 Red. masses --      3.1777                 3.6384                 4.0063
 Frc consts  --      3.6478                 4.2312                 4.8452
 IR Inten    --     21.2129               260.1439              1313.8698

                     82                     83                     84
                      A                      A                      A
 Frequencies --   1450.7914              1453.7513              1470.4435
 Red. masses --      3.4819                 2.7344                 1.2177
 Frc consts  --      4.3179                 3.4048                 1.5513
 IR Inten    --   1672.0653               221.6118                30.1610

                     85                     86                     87
                      A                      A                      A
 Frequencies --   1477.4174              1484.0916              1496.8131
 Red. masses --      2.0061                 2.0660                 1.3533
 Frc consts  --      2.5799                 2.6810                 1.7864
 IR Inten    --    586.7991              2276.2187              1218.2932

                     88                     89                     90
                      A                      A                      A
 Frequencies --   1503.1215              1526.7312              1573.1599
 Red. masses --      3.5609                 3.1543                 6.9784
 Frc consts  --      4.7402                 4.3319                10.1754
 IR Inten    --    273.3076                33.4042              4075.0252

                     91                     92                     93
                      A                      A                      A
 Frequencies --   1583.1009              1602.2201              1605.8696
 Red. masses --      6.4895                 5.6588                 5.4184
 Frc consts  --      9.5824                 8.5589                 8.2326
 IR Inten    --     29.1636               109.8793               166.5293

                     94                     95                     96
                      A                      A                      A
 Frequencies --   1625.9658              2955.2575              3010.3766
 Red. masses --      5.4338                 1.0568                 1.0787
 Frc consts  --      8.4641                 5.4381                 5.7598
 IR Inten    --    121.2408               616.5072                62.1072

                     97                     98                     99
                      A                      A                      A
 Frequencies --   3087.3373              3100.2756              3116.0911
 Red. masses --      1.0958                 1.0832                 1.0841
 Frc consts  --      6.1537                 6.1343                 6.2021
 IR Inten    --     12.5245                45.3254               344.3698

                    100                    101                    102
                      A                      A                      A
 Frequencies --   3123.6160              3128.9295              3134.2024
 Red. masses --      1.0911                 1.0869                 1.0888
 Frc consts  --      6.2723                 6.2693                 6.3019
 IR Inten    --    364.9157               153.7837                 5.9961

                    103                    104                    105
                      A                      A                      A
 Frequencies --   3137.4592              3140.8902              3147.1261
 Red. masses --      1.0891                 1.0922                 1.0959
 Frc consts  --      6.3164                 6.3481                 6.3952
 IR Inten    --     62.9585               331.8608               330.4254

                    106                    107                    108
                      A                      A                      A
 Frequencies --   3164.4978              3166.9270              3212.3239
 Red. masses --      1.0905                 1.0915                 1.0914
 Frc consts  --      6.4338                 6.4496                 6.6356
 IR Inten    --     18.2947               239.2421                 6.9062

 - Thermochemistry -
 -------------------
 Temperature   298.150 Kelvin.  Pressure   1.00000 Atm.
 Atom     1 has atomic number  6 and mass  12.00000

 Molecular mass:   330.07145 amu.
 Principal axes and moments of inertia in atomic units:
                           1         2         3
     Eigenvalues --  3395.17145********************
           X            0.40369   0.76398   0.50337
           Y           -0.03453  -0.53708   0.84283
           Z            0.91425  -0.35762  -0.19043
 This molecule is an asymmetric top.
 Rotational symmetry number  1.
 Warning -- assumption of classical behavior for rotation
           may cause significant error
 Rotational temperatures (Kelvin)      0.02551     0.00519     0.00476
 Rotational constants (GHZ):           0.53156     0.10822     0.09927
 Zero-point vibrational energy     740684.1 (Joules/Mol)
                                  177.02774 (Kcal/Mol)
 Warning -- explicit consideration of  31 degrees of freedom as
           vibrations may cause significant error
 Vibrational temperatures:     21.92    41.97    43.49   118.57   128.30
          (Kelvin)            144.68   156.49   209.80   228.46   263.63
                              266.23   301.42   373.91   388.54   405.61
                              476.81   499.67   536.05   547.95   564.48
                              575.01   607.94   636.09   670.10   678.66
                              711.70   744.57   750.53   763.19   821.00
                              870.32   904.82   935.85   945.07   966.76
                              991.09   998.34  1088.80  1096.46  1097.24
                             1113.32  1128.07  1148.62  1171.01  1207.12
                             1211.31  1224.66  1230.21  1251.60  1364.36
                             1366.39  1381.75  1388.43  1388.64  1392.65
                             1395.30  1465.93  1475.06  1487.68  1500.50
                             1540.43  1578.87  1616.21  1645.63  1651.98
                             1675.30  1690.57  1724.37  1743.99  1757.34
                             1805.93  1813.71  1842.42  1926.46  1946.79
                             1953.64  1976.07  1990.92  2008.30  2021.37
                             2061.37  2087.37  2091.62  2115.64  2125.67
                             2135.28  2153.58  2162.66  2196.63  2263.43
                             2277.73  2305.24  2310.49  2339.40  4251.96
                             4331.26  4441.99  4460.61  4483.36  4494.19
                             4501.83  4509.42  4514.10  4519.04  4528.01
                             4553.01  4556.50  4621.82

 Zero-point correction=                           0.282112 (Hartree/Particle)
 Thermal correction to Energy=                    0.301720
 Thermal correction to Enthalpy=                  0.302664
 Thermal correction to Gibbs Free Energy=         0.232340
 Sum of electronic and zero-point Energies=          -1357.308957
 Sum of electronic and thermal Energies=             -1357.289349
 Sum of electronic and thermal Enthalpies=           -1357.288405
 Sum of electronic and thermal Free Energies=        -1357.358729

                     E (Thermal)             CV                S
                      KCal/Mol        Cal/Mol-Kelvin    Cal/Mol-Kelvin
 Total                  189.332             77.933            148.010
 Electronic               0.000              0.000              0.000
 Translational            0.889              2.981             43.278
 Rotational               0.889              2.981             35.286
 Vibrational            187.555             71.971             69.446
 Vibration     1          0.593              1.986              7.175
 Vibration     2          0.593              1.984              5.885
 Vibration     3          0.594              1.984              5.814
 Vibration     4          0.600              1.961              3.833
 Vibration     5          0.602              1.957              3.678
 Vibration     6          0.604              1.949              3.444
 Vibration     7          0.606              1.942              3.291
 Vibration     8          0.617              1.907              2.726
 Vibration     9          0.621              1.893              2.564
 Vibration    10          0.631              1.863              2.295
 Vibration    11          0.631              1.860              2.277
 Vibration    12          0.642              1.826              2.048
 Vibration    13          0.668              1.746              1.663
 Vibration    14          0.674              1.728              1.596
 Vibration    15          0.681              1.707              1.522
 Vibration    16          0.714              1.613              1.253
 Vibration    17          0.725              1.581              1.178
 Vibration    18          0.744              1.528              1.069
 Vibration    19          0.751              1.511              1.036
 Vibration    20          0.760              1.487              0.991
 Vibration    21          0.766              1.471              0.964
 Vibration    22          0.785              1.421              0.883
 Vibration    23          0.802              1.378              0.820
 Vibration    24          0.823              1.326              0.750
 Vibration    25          0.829              1.313              0.733
 Vibration    26          0.850              1.262              0.672
 Vibration    27          0.873              1.211              0.616
 Vibration    28          0.877              1.202              0.606
 Vibration    29          0.885              1.183              0.586
 Vibration    30          0.927              1.095              0.503
 Vibration    31          0.963              1.021              0.441

 Optimization completed.
    -- Stationary point found.
 Normal termination of Gaussian 16 at Fri Dec 29 11:15:22 2023.
