 Q-Chem 5.4, Q-Chem, Inc., Pleasanton, CA (2021)
 Q-Chem 5.4.0 for Intel X86 EM64T Linux

User input:
--------------------------------------------------------------
$molecule
0 1
C                 -4.0427660000      0.2807080000      0.2637460000
C                 -2.5787520000     -0.0055200000      0.0435480000
C                 -2.1748590000     -1.0668420000     -0.7822030000
C                 -0.8310850000     -1.3319330000     -1.0085550000
C                  0.1519990000     -0.5385260000     -0.4098450000
C                  1.5906240000     -0.8298730000     -0.6558540000
O                  1.9478360000     -1.7499410000     -1.3746080000
C                  2.6119670000      0.0450850000      0.0083070000
C                  2.2137590000      1.0580900000      0.8001100000
C                  0.7971770000      1.3795660000      1.0708740000
O                  0.5010800000      2.3130560000      1.8016450000
C                 -0.2374440000      0.5240520000      0.4198490000
C                 -1.5915100000      0.7806370000      0.6395790000
C                  4.0498210000     -0.2767510000     -0.2619990000
H                 -4.4932320000      0.7142950000     -0.6353220000
H                 -4.1922810000      0.9850690000      1.0835250000
H                 -4.5948390000     -0.6345450000      0.4935620000
H                 -2.9280990000     -1.6921440000     -1.2509430000
H                 -0.5217980000     -2.1517200000     -1.6454690000
H                  2.9312660000      1.7066490000      1.2930970000
H                 -1.8572010000      1.6077620000      1.2879600000
H                  4.2581810000     -0.2294890000     -1.3344210000
H                  4.2781640000     -1.3004150000      0.0473800000
H                  4.7119930000      0.4127310000      0.2627620000
$end
$rem
MAX_SCF_CYCLES=200
BASIS  =  6-311++G(d,p)
GUI  =  2
JOB_TYPE  =  SP
METHOD  =  B3LYP
SOLVENT_METHOD = COSMO
$end
$solvent
dielectric 37.219
opticaldielectric 1.43
$end

--------------------------------------------------------------

             Standard Nuclear Orientation (Angstroms)
    I     Atom           X                Y                Z
 ----------------------------------------------------------------
    1      C       4.2257015517    -0.1503934646    -0.0107783011
    2      C       2.7479329817     0.1490994659     0.0051796921
    3      C       2.2880710061     1.4757199478     0.0071077996
    4      C       0.9307957393     1.7673216664     0.0040554076
    5      C      -0.0098798858     0.7331454109     0.0006903186
    6      C      -1.4632862693     1.0535402738    -0.0008618651
    7      O      -1.8691089675     2.2050785849    -0.0014149357
    8      C      -2.4377890041    -0.0866990575    -0.0021054747
    9      C      -1.9860496664    -1.3546231360    -0.0011922088
   10      C      -0.5530223511    -1.7148855570     0.0016759933
   11      O      -0.2074927090    -2.8869378712     0.0041064726
   12      C       0.4357115529    -0.5974852458     0.0012517005
   13      C       1.8028175814    -0.8778856522     0.0041819737
   14      C      -3.8920629794     0.2726764724    -0.0041798199
   15      H       4.6573324616     0.0762517248    -0.9913736754
   16      H       4.4215783732    -1.2020979766     0.2038531331
   17      H       4.7602404066     0.4549205988     0.7262095838
   18      H       3.0080124368     2.2879675785     0.0124368754
   19      H       0.5783052572     2.7915844778     0.0062395081
   20      H      -2.6688503767    -2.1985803859    -0.0019694400
   21      H       2.1123349874    -1.9167872147     0.0069949971
   22      H      -4.1348930295     0.8829232598    -0.8784617868
   23      H      -4.1374789821     0.8822332478     0.8698656019
   24      H      -4.5174096649    -0.6207277640    -0.0054783864
 ----------------------------------------------------------------

    9    -613.9194375528      3.46e-06  Convergence criterion met
 Total energy in the final basis set =     -613.9194375528
    5    -613.9333781335      2.54e-06  Convergence criterion met
 Total energy in the final basis set =     -613.9333781335

                    Orbital Energies (a.u.)
 --------------------------------------------------------------

 Alpha MOs
 -- Occupied --
-19.1366 -19.1350 -10.2839 -10.2829 -10.2192 -10.2059 -10.2053 -10.2034
-10.2010 -10.1952 -10.1923 -10.1917 -10.1741 -10.1701  -1.0700  -1.0670
 -0.8901  -0.8471  -0.7979  -0.7774  -0.7307  -0.7143  -0.6670  -0.6461
 -0.6090  -0.5843  -0.5429  -0.5194  -0.5029  -0.4670  -0.4622  -0.4601
 -0.4594  -0.4476  -0.4308  -0.4270  -0.4225  -0.4097  -0.4076  -0.3991
 -0.3884  -0.3732  -0.3659  -0.3614  -0.2973  -0.2900  -0.2771  -0.2770
 -0.2669

          Ground-State Mulliken Net Atomic Charges

     Atom                 Charge (a.u.)
  ----------------------------------------
      1 C                    -0.414614
      2 C                     0.471629
      3 C                    -0.484604
      4 C                     0.088310
      5 C                    -0.216191
      6 C                    -0.415764
      7 O                    -0.296599
      8 C                     0.736165
      9 C                    -0.453674
     10 C                    -0.821066
     11 O                    -0.319404
     12 C                     0.605589
     13 C                    -0.153356
     14 C                    -0.256448
     15 H                     0.193100
     16 H                     0.182166
     17 H                     0.168746
     18 H                     0.220837
     19 H                     0.200159
     20 H                     0.217399
     21 H                     0.165541
     22 H                     0.198137
     23 H                     0.198683
     24 H                     0.185259
  ----------------------------------------
  Sum of atomic charges =     0.000000

                    Cartesian Multipole Moments
 -----------------------------------------------------------------
    Charge (ESU x 10^10)
                 0.0000
    Dipole Moment (Debye)
         X       1.8507      Y       1.1746      Z      -0.0459
       Tot       2.1924
    Quadrupole Moments (Debye-Ang)
        XX     -60.1583     XY       9.1337     YY     -97.8720
        XZ      -0.1430     YZ       0.0505     ZZ     -82.5791

 Total job time:  32.77s(wall), 237.63s(cpu)
        *  Thank you very much for using Q-Chem.  Have a nice day.  *
