 Gaussian 16, Revision A.03,
 Gaussian 16:  ES64L-G16RevA.03 25-Dec-2016

 ----------------------------------------------------------------------
 #P UB3LYP/6-311++G(d,p) nosym opt freq SCRF=(PCM,Solvent=n,n-DiMethylF
 ormamide)
 ----------------------------------------------------------------------

 --------
 Oxidized
 --------
 Symbolic Z-matrix:
 Charge =  0 Multiplicity = 1

 SCF Done:  E(UB3LYP) =  -728.291905635     A.U. after   14 cycles
 SCF Done:  E(UB3LYP) =  -728.292000983     A.U. after   11 cycles
 SCF Done:  E(UB3LYP) =  -728.292012936     A.U. after   10 cycles
 Optimization completed.
    -- Stationary point found.
 Normal termination of Gaussian 16 at Sat Feb 10 16:03:40 2024.

 ----------------------------------------------------------------------
 #P Geom=AllCheck Guess=TCheck SCRF=Check GenChk UB3LYP/6-311++G(d,p) F
 req
 ----------------------------------------------------------------------

 Structure from the checkpoint file:  "124.chk"
 --------
 Oxidized
 --------
 Charge =  0 Multiplicity = 1

                          Input orientation:
 ---------------------------------------------------------------------
 Center     Atomic      Atomic             Coordinates (Angstroms)
 Number     Number       Type             X           Y           Z
 ---------------------------------------------------------------------
      1          6           0       -4.582208    0.227450    0.018249
      2          6           0       -3.137571   -0.199493    0.020660
      3          6           0       -2.795918   -1.562080   -0.012453
      4          6           0       -1.469684   -1.968809   -0.012380
      5          6           0       -0.436803   -1.024897    0.021177
      6          6           0        0.975956   -1.484658    0.021070
      7          8           0        1.259001   -2.676699   -0.010007
      8          6           0        2.041111   -0.441828    0.058513
      9          6           0        3.382805   -0.835591    0.059254
     10          6           0        4.394674    0.117973    0.093194
     11          6           0        4.073998    1.477684    0.126662
     12          6           0        2.742581    1.879194    0.126534
     13          6           0        1.718059    0.927904    0.092785
     14          6           0        0.299828    1.386199    0.092932
     15          8           0        0.019945    2.578118    0.124620
     16          6           0       -0.762966    0.342602    0.055318
     17          6           0       -2.104178    0.737254    0.054566
     18          1           0       -5.089673   -0.126032   -0.884150
     19          1           0       -4.677620    1.313102    0.060646
     20          1           0       -5.114572   -0.197690    0.874005
     21          1           0       -3.583214   -2.307959   -0.038413
     22          1           0       -1.215713   -3.021001   -0.037842
     23          1           0        3.616976   -1.892238    0.033046
     24          1           0        5.432246   -0.194542    0.093509
     25          1           0        4.862577    2.220429    0.152652
     26          1           0        2.479936    2.929089    0.152116
     27          1           0       -2.329572    1.796517    0.081215
 ---------------------------------------------------------------------

 SCF Done:  E(UB3LYP) =  -728.292012936     A.U. after    1 cycles

 Alpha  occ. eigenvalues --  -19.13209 -19.13068 -10.28424 -10.28315 -10.21018
 Alpha  occ. eigenvalues --  -10.20968 -10.20900 -10.20894 -10.20664 -10.19984
 Alpha  occ. eigenvalues --  -10.19938 -10.19882 -10.19869 -10.19772 -10.19546
 Alpha  occ. eigenvalues --  -10.19474 -10.17473  -1.06501  -1.06261  -0.89558
 Alpha  occ. eigenvalues --   -0.88391  -0.81991  -0.78673  -0.77965  -0.77456
 Alpha  occ. eigenvalues --   -0.71832  -0.68608  -0.66096  -0.63371  -0.61621
 Alpha  occ. eigenvalues --   -0.58748  -0.56091  -0.54878  -0.50667  -0.49254
 Alpha  occ. eigenvalues --   -0.48744  -0.47379  -0.45852  -0.45658  -0.45354
 Alpha  occ. eigenvalues --   -0.45062  -0.44565  -0.43582  -0.43100  -0.41911
 Alpha  occ. eigenvalues --   -0.39877  -0.39163  -0.38811  -0.37358  -0.37269
 Alpha  occ. eigenvalues --   -0.36281  -0.36255  -0.28878  -0.28862  -0.28081
 Alpha  occ. eigenvalues --   -0.27753  -0.27651  -0.26923
 Alpha virt. eigenvalues --   -0.11986  -0.07439  -0.03781  -0.02681  -0.00759
 Alpha virt. eigenvalues --    0.00023   0.00954   0.01594   0.02021   0.02412
 Alpha virt. eigenvalues --    0.03256   0.03563   0.03754   0.04090   0.04444

  Beta  occ. eigenvalues --  -19.13209 -19.13068 -10.28424 -10.28315 -10.21018
  Beta  occ. eigenvalues --  -10.20968 -10.20900 -10.20894 -10.20664 -10.19984
  Beta  occ. eigenvalues --  -10.19938 -10.19882 -10.19869 -10.19772 -10.19546
  Beta  occ. eigenvalues --  -10.19474 -10.17473  -1.06501  -1.06261  -0.89558
  Beta  occ. eigenvalues --   -0.88391  -0.81991  -0.78673  -0.77965  -0.77456
  Beta  occ. eigenvalues --   -0.71832  -0.68608  -0.66096  -0.63371  -0.61621
  Beta  occ. eigenvalues --   -0.58748  -0.56091  -0.54878  -0.50667  -0.49254
  Beta  occ. eigenvalues --   -0.48744  -0.47379  -0.45852  -0.45658  -0.45354
  Beta  occ. eigenvalues --   -0.45062  -0.44565  -0.43582  -0.43100  -0.41911
  Beta  occ. eigenvalues --   -0.39877  -0.39163  -0.38811  -0.37358  -0.37269
  Beta  occ. eigenvalues --   -0.36281  -0.36255  -0.28878  -0.28862  -0.28081
  Beta  occ. eigenvalues --   -0.27753  -0.27651  -0.26923
  Beta virt. eigenvalues --   -0.11986  -0.07439  -0.03781  -0.02681  -0.00759
  Beta virt. eigenvalues --    0.00023   0.00954   0.01594   0.02021   0.02412
  Beta virt. eigenvalues --    0.03256   0.03563   0.03754   0.04090   0.04444

 Mulliken charges and spin densities:
               1          2
     1  C   -0.364598  -0.000000
     2  C    0.417193  -0.000000
     3  C   -0.371834   0.000000
     4  C    0.191244  -0.000000
     5  C    0.176911  -0.000000
     6  C   -0.714917   0.000000
     7  O   -0.281835   0.000000
     8  C    0.081468   0.000000
     9  C    0.196423   0.000000
    10  C   -0.419616   0.000000
    11  C   -0.415959   0.000000
    12  C    0.125860   0.000000
    13  C    0.355977  -0.000000
    14  C   -0.597962  -0.000000
    15  O   -0.274829   0.000000
    16  C    0.160502  -0.000000
    17  C   -0.120006   0.000000
    18  H    0.175542   0.000000
    19  H    0.178910  -0.000000
    20  H    0.173552   0.000000
    21  H    0.205896   0.000000
    22  H    0.185815   0.000000
    23  H    0.187255  -0.000000
    24  H    0.208034  -0.000000
    25  H    0.208961   0.000000
    26  H    0.184894  -0.000000
    27  H    0.147121  -0.000000
 Sum of Mulliken charges =  -0.00000   0.00000

 Dipole moment (field-independent basis, Debye):
    X=             -0.9663    Y=              0.1544    Z=             -0.0091  Tot=              0.9786
 Quadrupole moment (field-independent basis, Debye-Ang):
   XX=            -64.4007   YY=           -110.0235   ZZ=           -100.7357
   XY=             10.1153   XZ=              0.5440   YZ=             -0.1878

  Exact polarizability: 368.354   8.840 291.498   2.371   4.651 121.468
 Approx polarizability: 391.977  -3.688 376.487   2.022   6.273 143.715

                      1                      2                      3
                      A                      A                      A
 Frequencies --     11.4322                34.4250                89.0882
 Red. masses --      1.0358                 6.5387                 4.0906
 Frc consts  --      0.0001                 0.0046                 0.0191
 IR Inten    --      0.6782                10.4711                 0.8248

                      4                      5                      6
                      A                      A                      A
 Frequencies --    112.4868               141.4451               185.8874
 Red. masses --      4.8984                 5.9441                 4.0961
 Frc consts  --      0.0365                 0.0701                 0.0834
 IR Inten    --      0.0564                 1.4460                 1.9202

                      7                      8                      9
                      A                      A                      A
 Frequencies --    193.8160               278.2404               281.5514
 Red. masses --      4.8864                 5.3092                 4.4320
 Frc consts  --      0.1081                 0.2422                 0.2070
 IR Inten    --      0.7680                 0.4345                 2.0653

                     10                     11                     12
                      A                      A                      A
 Frequencies --    333.0649               373.0718               390.3586
 Red. masses --      6.4185                 4.3376                10.0888
 Frc consts  --      0.4195                 0.3557                 0.9058
 IR Inten    --      1.6764                 2.7905                43.7925

                     13                     14                     15
                      A                      A                      A
 Frequencies --    412.4353               425.3174               443.2781
 Red. masses --      3.3227                 5.8879                 3.3937
 Frc consts  --      0.3330                 0.6275                 0.3929
 IR Inten    --      1.0361                 2.2600                 0.0397

                     16                     17                     18
                      A                      A                      A
 Frequencies --    450.5041               476.7776               526.7397
 Red. masses --      4.2170                11.9625                 3.6419
 Frc consts  --      0.5043                 1.6022                 0.5954
 IR Inten    --      2.1090                 0.1948                10.9557

                     19                     20                     21
                      A                      A                      A
 Frequencies --    580.2054               646.3008               668.0475
 Red. masses --      5.6552                 6.8176                 4.0641
 Frc consts  --      1.1217                 1.6779                 1.0686
 IR Inten    --     11.7853                15.2055                 6.5498

                     22                     23                     24
                      A                      A                      A
 Frequencies --    673.7071               699.9041               727.1503
 Red. masses --      6.5957                 6.5892                 3.1225
 Frc consts  --      1.7638                 1.9018                 0.9727
 IR Inten    --      0.4136                 0.2933                61.6161

                     25                     26                     27
                      A                      A                      A
 Frequencies --    729.9991               748.3467               804.9759
 Red. masses --      2.6125                 6.3446                 2.2832
 Frc consts  --      0.8203                 2.0934                 0.8717
 IR Inten    --     79.5051                 1.7197                 1.4662

                     28                     29                     30
                      A                      A                      A
 Frequencies --    808.1476               853.3739               864.5873
 Red. masses --      2.6232                 6.0463                 1.5435
 Frc consts  --      1.0094                 2.5943                 0.6798
 IR Inten    --      4.1553                15.9160                33.8944

                     31                     32                     33
                      A                      A                      A
 Frequencies --    914.8353               931.0847               939.7283
 Red. masses --      1.3854                 1.4030                 6.8628
 Frc consts  --      0.6832                 0.7166                 3.5707
 IR Inten    --      0.5314                 3.1652               115.9537

                     34                     35                     36
                      A                      A                      A
 Frequencies --    983.4625              1002.4132              1008.4590
 Red. masses --      2.6604                 1.3777                 1.3628
 Frc consts  --      1.5160                 0.8156                 0.8166
 IR Inten    --     69.4998                 1.3197                 2.1839

                     37                     38                     39
                      A                      A                      A
 Frequencies --   1024.1768              1026.7706              1057.0702
 Red. masses --      1.3336                 1.7338                 1.9492
 Frc consts  --      0.8242                 1.0770                 1.2833
 IR Inten    --      0.0001                 0.8686                 0.6856

                     40                     41                     42
                      A                      A                      A
 Frequencies --   1061.9469              1110.8393              1119.9767
 Red. masses --      1.5788                 2.5964                 2.3016
 Frc consts  --      1.0490                 1.8877                 1.7010
 IR Inten    --      9.8985                 0.4768                 6.2472

                     43                     44                     45
                      A                      A                      A
 Frequencies --   1163.7764              1177.1477              1193.1115
 Red. masses --      1.4613                 1.2167                 2.1217
 Frc consts  --      1.1661                 0.9933                 1.7795
 IR Inten    --     17.8610                28.6542                 7.4191

                     46                     47                     48
                      A                      A                      A
 Frequencies --   1225.5420              1238.7992              1285.3461
 Red. masses --      2.6499                 1.8072                 1.6081
 Frc consts  --      2.3450                 1.6341                 1.5653
 IR Inten    --     25.4263                 5.2972                75.3424

                     49                     50                     51
                      A                      A                      A
 Frequencies --   1300.8736              1317.6969              1351.0701
 Red. masses --      6.2550                 2.2062                 7.0604
 Frc consts  --      6.2366                 2.2569                 7.5934
 IR Inten    --   1302.8195                 0.7755                57.5859

                     52                     53                     54
                      A                      A                      A
 Frequencies --   1361.7019              1409.0354              1435.9254
 Red. masses --      8.0825                 1.2535                 2.7095
 Frc consts  --      8.8300                 1.4663                 3.2916
 IR Inten    --     17.6421                 8.2652                37.0480

                     55                     56                     57
                      A                      A                      A
 Frequencies --   1473.9109              1479.2620              1487.0352
 Red. masses --      1.0423                 2.0730                 1.3136
 Frc consts  --      1.3342                 2.6726                 1.7115
 IR Inten    --     12.4038                 4.9901                 1.2134

                     58                     59                     60
                      A                      A                      A
 Frequencies --   1501.6209              1518.6506              1596.3072
 Red. masses --      2.6558                 2.8857                 6.5180
 Frc consts  --      3.5282                 3.9211                 9.7859
 IR Inten    --     17.8557                 3.1210                44.7317

                     61                     62                     63
                      A                      A                      A
 Frequencies --   1610.4437              1618.1485              1630.2443
 Red. masses --      6.8961                 6.1186                 5.8628
 Frc consts  --     10.5377                 9.4392                 9.1804
 IR Inten    --     72.3213               441.2804                79.1804

                     64                     65                     66
                      A                      A                      A
 Frequencies --   1690.4031              1700.5993              3030.2197
 Red. masses --     12.2360                11.3492                 1.0373
 Frc consts  --     20.6001                19.3384                 5.6118
 IR Inten    --     25.7975               680.4062                27.5956

                     67                     68                     69
                      A                      A                      A
 Frequencies --   3080.4964              3114.9745              3171.3537
 Red. masses --      1.1002                 1.1013                 1.0899
 Frc consts  --      6.1512                 6.2960                 6.4582
 IR Inten    --     16.8624                24.5291                14.9813

                     70                     71                     72
                      A                      A                      A
 Frequencies --   3179.0441              3191.2814              3191.9295
 Red. masses --      1.0874                 1.0913                 1.0903
 Frc consts  --      6.4750                 6.5481                 6.5450
 IR Inten    --      3.1689                 9.2607                 7.8974

                     73                     74                     75
                      A                      A                      A
 Frequencies --   3201.6698              3203.3413              3206.4035
 Red. masses --      1.0927                 1.0925                 1.0955
 Frc consts  --      6.5996                 6.6050                 6.6360
 IR Inten    --      9.2390                 3.5739                19.3627

 - Thermochemistry -
 -------------------
 Temperature   298.150 Kelvin.  Pressure   1.00000 Atm.
 Atom     1 has atomic number  6 and mass  12.00000

 Molecular mass:   222.06808 amu.
 Principal axes and moments of inertia in atomic units:
                           1         2         3
     Eigenvalues --  1711.646735356.425507056.92550
           X            0.99159  -0.12917  -0.00852
           Y            0.12890   0.99129  -0.02713
           Z            0.01195   0.02580   0.99960
 This molecule is an asymmetric top.
 Rotational symmetry number  1.
 Warning -- assumption of classical behavior for rotation
           may cause significant error
 Rotational temperatures (Kelvin)      0.05060     0.01617     0.01227
 Rotational constants (GHZ):           1.05439     0.33693     0.25574
 Zero-point vibrational energy     541207.3 (Joules/Mol)
                                  129.35165 (Kcal/Mol)
 Warning -- explicit consideration of  19 degrees of freedom as
           vibrations may cause significant error
 Vibrational temperatures:     16.45    49.53   128.18   161.84   203.51
          (Kelvin)            267.45   278.86   400.33   405.09   479.21
                              536.77   561.64   593.40   611.94   637.78
                              648.17   685.98   757.86   834.79   929.88
                              961.17   969.31  1007.01  1046.21  1050.31
                             1076.70  1158.18  1162.74  1227.81  1243.95
                             1316.24  1339.62  1352.06  1414.98  1442.25
                             1450.95  1473.56  1477.29  1520.89  1527.90
                             1598.25  1611.40  1674.41  1693.65  1716.62
                             1763.28  1782.36  1849.33  1871.67  1895.87
                             1943.89  1959.19  2027.29  2065.98  2120.63
                             2128.33  2139.51  2160.50  2185.00  2296.73
                             2317.07  2328.15  2345.56  2432.11  2446.78
                             4359.81  4432.15  4481.75  4562.87  4573.94
                             4591.54  4592.47  4606.49  4608.89  4613.30

 Zero-point correction=                           0.206135 (Hartree/Particle)
 Thermal correction to Energy=                    0.219390
 Thermal correction to Enthalpy=                  0.220335
 Thermal correction to Gibbs Free Energy=         0.164210
 Sum of electronic and zero-point Energies=           -728.085878
 Sum of electronic and thermal Energies=              -728.072623
 Sum of electronic and thermal Enthalpies=            -728.071678
 Sum of electronic and thermal Free Energies=         -728.127802

                     E (Thermal)             CV                S
                      KCal/Mol        Cal/Mol-Kelvin    Cal/Mol-Kelvin
 Total                  137.670             51.848            118.123
 Electronic               0.000              0.000              0.000
 Translational            0.889              2.981             42.096
 Rotational               0.889              2.981             32.537
 Vibrational            135.892             45.886             43.490
 Vibration     1          0.593              1.987              7.745
 Vibration     2          0.594              1.983              5.557
 Vibration     3          0.602              1.957              3.680
 Vibration     4          0.607              1.939              3.226
 Vibration     5          0.615              1.912              2.784
 Vibration     6          0.632              1.859              2.268
 Vibration     7          0.635              1.848              2.191
 Vibration     8          0.679              1.714              1.544
 Vibration     9          0.681              1.708              1.524
 Vibration    10          0.715              1.609              1.245
 Vibration    11          0.744              1.527              1.067
 Vibration    12          0.758              1.491              0.999
 Vibration    13          0.776              1.443              0.918
 Vibration    14          0.787              1.415              0.874
 Vibration    15          0.803              1.376              0.816
 Vibration    16          0.809              1.360              0.794
 Vibration    17          0.833              1.302              0.719
 Vibration    18          0.882              1.191              0.595
 Vibration    19          0.937              1.074              0.485

                           ! Non-Optimized Parameters !
 Normal termination of Gaussian 16 at Sat Feb 10 17:09:07 2024.
