 Q-Chem 5.4, Q-Chem, Inc., Pleasanton, CA (2021)
 Q-Chem 5.4.0 for Intel X86 EM64T Linux

User input:
--------------------------------------------------------------
$molecule
0 1
C                  1.0834220000      1.4374030000     -3.0060750000
C                 -0.2879700000      1.6457930000     -3.5298770000
C                 -1.2365000000      0.7185870000     -3.3626270000
C                 -0.9538790000     -0.5521540000     -2.6526790000
C                  0.4232050000     -0.7786590000     -2.1018640000
O                  1.9438460000      2.2907080000     -3.1516330000
O                 -1.8259260000     -1.3958240000     -2.5242790000
H                 -0.4625040000      2.5863800000     -4.0406100000
C                  1.3735250000      0.1621420000     -2.2902140000
C                  2.7668160000      0.0599790000     -1.6821330000
C                  3.9071570000     -0.3006880000     -2.5632950000
C                  5.2534360000     -0.1434480000     -2.1443390000
C                  3.6325260000     -0.8236600000     -3.8375210000
C                  6.2592110000     -0.5258270000     -3.0371450000
C                  5.9730140000     -1.0553080000     -4.2930070000
C                  4.6503300000     -1.2084880000     -4.6993870000
O                  2.8722120000      0.2841590000     -0.4905730000
C                  5.6504330000      0.4263630000     -0.8063200000
H                  2.6022270000     -0.9386270000     -4.1518610000
H                  7.2942000000     -0.4023840000     -2.7368310000
H                  6.7838410000     -1.3427760000     -4.9532450000
H                  4.4153840000     -1.6167600000     -5.6751760000
C                  0.6313340000     -2.0727240000     -1.3740820000
H                 -2.2498780000      0.8379020000     -3.7296520000
H                 -0.0021010000     -2.1055350000     -0.4827850000
H                  1.6668240000     -2.2075270000     -1.0669480000
H                  0.3227260000     -2.9135500000     -2.0003780000
H                  5.1609800000      1.3833590000     -0.6150950000
H                  6.7322610000      0.5689150000     -0.7684730000
H                  5.3539800000     -0.2328520000      0.0123950000
$end

$rem
BASIS  =  6-311++G(d,p)
GUI  =  2
JOB_TYPE  =  SP
METHOD  =  B3LYP
SCF_CONVERGENCE  = 8
SOLVENT_METHOD = sm12
$end

$smx
solvent dimethylformamide
charges CM5
$end

--------------------------------------------------------------

             Standard Nuclear Orientation (Angstroms)
    I     Atom           X                Y                Z
 ----------------------------------------------------------------
    1      C       1.0834220000     1.4374030000    -3.0060750000
    2      C      -0.2879700000     1.6457930000    -3.5298770000
    3      C      -1.2365000000     0.7185870000    -3.3626270000
    4      C      -0.9538790000    -0.5521540000    -2.6526790000
    5      C       0.4232050000    -0.7786590000    -2.1018640000
    6      O       1.9438460000     2.2907080000    -3.1516330000
    7      O      -1.8259260000    -1.3958240000    -2.5242790000
    8      H      -0.4625040000     2.5863800000    -4.0406100000
    9      C       1.3735250000     0.1621420000    -2.2902140000
   10      C       2.7668160000     0.0599790000    -1.6821330000
   11      C       3.9071570000    -0.3006880000    -2.5632950000
   12      C       5.2534360000    -0.1434480000    -2.1443390000
   13      C       3.6325260000    -0.8236600000    -3.8375210000
   14      C       6.2592110000    -0.5258270000    -3.0371450000
   15      C       5.9730140000    -1.0553080000    -4.2930070000
   16      C       4.6503300000    -1.2084880000    -4.6993870000
   17      O       2.8722120000     0.2841590000    -0.4905730000
   18      C       5.6504330000     0.4263630000    -0.8063200000
   19      H       2.6022270000    -0.9386270000    -4.1518610000
   20      H       7.2942000000    -0.4023840000    -2.7368310000
   21      H       6.7838410000    -1.3427760000    -4.9532450000
   22      H       4.4153840000    -1.6167600000    -5.6751760000
   23      C       0.6313340000    -2.0727240000    -1.3740820000
   24      H      -2.2498780000     0.8379020000    -3.7296520000
   25      H      -0.0021010000    -2.1055350000    -0.4827850000
   26      H       1.6668240000    -2.2075270000    -1.0669480000
   27      H       0.3227260000    -2.9135500000    -2.0003780000
   28      H       5.1609800000     1.3833590000    -0.6150950000
   29      H       6.7322610000     0.5689150000    -0.7684730000
   30      H       5.3539800000    -0.2328520000     0.0123950000
 ----------------------------------------------------------------

   15    -804.6809468789      6.88e-09  Convergence criterion met
 Total energy in the final basis set =     -804.7039970749

                    Orbital Energies (a.u.)
 --------------------------------------------------------------

 Alpha MOs
 -- Occupied --
-19.1419 -19.1412 -19.1301 -10.2889 -10.2861 -10.2835 -10.2261 -10.2174
-10.2118 -10.2109 -10.2063 -10.1998 -10.1958 -10.1925 -10.1868 -10.1851
-10.1776 -10.1666  -1.0747  -1.0719  -1.0637  -0.8795  -0.8706  -0.8155
 -0.7879  -0.7798  -0.7398  -0.7013  -0.6943  -0.6621  -0.6329  -0.6056
 -0.5994  -0.5640  -0.5344  -0.5253  -0.5003  -0.4905  -0.4794  -0.4702
 -0.4632  -0.4517  -0.4462  -0.4442  -0.4374  -0.4298  -0.4272  -0.4230
 -0.4104  -0.4075  -0.3987  -0.3911  -0.3879  -0.3702  -0.3689  -0.3582
 -0.3126  -0.3007  -0.2927  -0.2877  -0.2742  -0.2632  -0.2619

          Ground-State Mulliken Net Atomic Charges

     Atom                 Charge (a.u.)
  ----------------------------------------
      1 C                    -1.170086
      2 C                     0.444031
      3 C                     0.671659
      4 C                    -0.626495
      5 C                     0.300935
      6 O                    -0.310625
      7 O                    -0.300328
      8 H                     0.333520
      9 C                     0.702280
     10 C                    -0.541801
     11 C                    -0.677412
     12 C                     0.047006
     13 C                    -0.309146
     14 C                    -0.257117
     15 C                     0.065307
     16 C                     0.163361
     17 O                    -0.304341
     18 C                    -0.469843
     19 H                     0.238524
     20 H                     0.237287
     21 H                     0.293315
     22 H                     0.283933
     23 C                    -0.269593
     24 H                     0.344960
     25 H                     0.207183
     26 H                     0.175483
     27 H                     0.223822
     28 H                     0.143695
     29 H                     0.190208
     30 H                     0.170277
  ----------------------------------------
  Sum of atomic charges =     0.000000

                    Cartesian Multipole Moments
 -----------------------------------------------------------------
    Charge (ESU x 10^10)
                 0.0000
    Dipole Moment (Debye)
         X       0.9076      Y      -1.2975      Z      -2.7753
       Tot       3.1952
    Quadrupole Moments (Debye-Ang)
        XX     -91.9138     XY     -15.1470     YY    -109.2078
        XZ      -7.8461     YZ       3.7110     ZZ     -89.2018

 Total job time:  708.18s(wall), 5557.93s(cpu)
        *  Thank you very much for using Q-Chem.  Have a nice day.  *
