 Gaussian 16, Revision A.03,
 Gaussian 16:  ES64L-G16RevA.03 25-Dec-2016

 --------------------------------------
 #P UB3LYP/6-311++G(d,p) nosym opt freq
 --------------------------------------

 --------
 Oxidized
 --------
 Symbolic Z-matrix:
 Charge =  0 Multiplicity = 1

 SCF Done:  E(UB3LYP) =  -804.682299577     A.U. after   16 cycles
 Optimization completed.
    -- Stationary point found.
 Normal termination of Gaussian 16 at Wed Jan 10 04:55:01 2024.

 ----------------------------------------------------------------------
 #P Geom=AllCheck Guess=TCheck SCRF=Check GenChk UB3LYP/6-311++G(d,p) F
 req
 ----------------------------------------------------------------------

 Structure from the checkpoint file:  "081.chk"
 --------
 Oxidized
 --------
 Charge =  0 Multiplicity = 1

                          Input orientation:
 ---------------------------------------------------------------------
 Center     Atomic      Atomic             Coordinates (Angstroms)
 Number     Number       Type             X           Y           Z
 ---------------------------------------------------------------------
      1          6           0        1.083422    1.437403   -3.006075
      2          6           0       -0.287970    1.645793   -3.529877
      3          6           0       -1.236500    0.718587   -3.362627
      4          6           0       -0.953879   -0.552154   -2.652679
      5          6           0        0.423205   -0.778659   -2.101864
      6          8           0        1.943846    2.290708   -3.151633
      7          8           0       -1.825926   -1.395824   -2.524279
      8          1           0       -0.462504    2.586380   -4.040610
      9          6           0        1.373525    0.162142   -2.290214
     10          6           0        2.766816    0.059979   -1.682133
     11          6           0        3.907157   -0.300688   -2.563295
     12          6           0        5.253436   -0.143448   -2.144339
     13          6           0        3.632526   -0.823660   -3.837521
     14          6           0        6.259211   -0.525827   -3.037145
     15          6           0        5.973014   -1.055308   -4.293007
     16          6           0        4.650330   -1.208488   -4.699387
     17          8           0        2.872212    0.284159   -0.490573
     18          6           0        5.650433    0.426363   -0.806320
     19          1           0        2.602227   -0.938627   -4.151861
     20          1           0        7.294200   -0.402384   -2.736831
     21          1           0        6.783841   -1.342776   -4.953245
     22          1           0        4.415384   -1.616760   -5.675176
     23          6           0        0.631334   -2.072724   -1.374082
     24          1           0       -2.249878    0.837902   -3.729652
     25          1           0       -0.002101   -2.105535   -0.482785
     26          1           0        1.666824   -2.207527   -1.066948
     27          1           0        0.322726   -2.913550   -2.000378
     28          1           0        5.160980    1.383359   -0.615095
     29          1           0        6.732261    0.568915   -0.768473
     30          1           0        5.353980   -0.232852    0.012395
 ---------------------------------------------------------------------

 SCF Done:  E(UB3LYP) =  -804.682299577     A.U. after    1 cycles

 Alpha  occ. eigenvalues --  -19.14629 -19.14496 -19.13068 -10.29264 -10.29115
 Alpha  occ. eigenvalues --  -10.28411 -10.23092 -10.22214 -10.22194 -10.22129
 Alpha  occ. eigenvalues --  -10.20894 -10.20214 -10.19931 -10.19749 -10.19177
 Alpha  occ. eigenvalues --  -10.18921 -10.18665 -10.16867  -1.07797  -1.07578
 Alpha  occ. eigenvalues --   -1.06415  -0.88354  -0.87633  -0.82310  -0.79145
 Alpha  occ. eigenvalues --   -0.78366  -0.74574  -0.70486  -0.70202  -0.66692
 Alpha  occ. eigenvalues --   -0.63756  -0.61069  -0.60564  -0.56800  -0.54034
 Alpha  occ. eigenvalues --   -0.52987  -0.50816  -0.49497  -0.48331  -0.47463
 Alpha  occ. eigenvalues --   -0.46870  -0.45727  -0.45029  -0.44881  -0.44380
 Alpha  occ. eigenvalues --   -0.43314  -0.43133  -0.42706  -0.41617  -0.41402
 Alpha  occ. eigenvalues --   -0.40463  -0.39599  -0.39121  -0.37416  -0.37191
 Alpha  occ. eigenvalues --   -0.36263  -0.31954  -0.30550  -0.29548  -0.29112
 Alpha  occ. eigenvalues --   -0.27688  -0.26569  -0.26343
 Alpha virt. eigenvalues --   -0.14056  -0.07996  -0.04012  -0.02892  -0.01388
 Alpha virt. eigenvalues --   -0.00992  -0.00496   0.00198   0.00397   0.01211
 Alpha virt. eigenvalues --    0.01743   0.02349   0.02838   0.03029   0.03915

  Beta  occ. eigenvalues --  -19.14629 -19.14496 -19.13068 -10.29264 -10.29115
  Beta  occ. eigenvalues --  -10.28411 -10.23092 -10.22214 -10.22194 -10.22129
  Beta  occ. eigenvalues --  -10.20894 -10.20214 -10.19931 -10.19749 -10.19177
  Beta  occ. eigenvalues --  -10.18921 -10.18665 -10.16867  -1.07797  -1.07578
  Beta  occ. eigenvalues --   -1.06415  -0.88354  -0.87633  -0.82310  -0.79145
  Beta  occ. eigenvalues --   -0.78366  -0.74574  -0.70486  -0.70202  -0.66692
  Beta  occ. eigenvalues --   -0.63756  -0.61069  -0.60564  -0.56800  -0.54034
  Beta  occ. eigenvalues --   -0.52987  -0.50816  -0.49497  -0.48331  -0.47463
  Beta  occ. eigenvalues --   -0.46870  -0.45727  -0.45029  -0.44881  -0.44380
  Beta  occ. eigenvalues --   -0.43314  -0.43133  -0.42706  -0.41617  -0.41402
  Beta  occ. eigenvalues --   -0.40463  -0.39599  -0.39121  -0.37416  -0.37191
  Beta  occ. eigenvalues --   -0.36263  -0.31954  -0.30550  -0.29548  -0.29112
  Beta  occ. eigenvalues --   -0.27688  -0.26569  -0.26343
  Beta virt. eigenvalues --   -0.14056  -0.07996  -0.04012  -0.02892  -0.01388
  Beta virt. eigenvalues --   -0.00992  -0.00496   0.00198   0.00397   0.01211
  Beta virt. eigenvalues --    0.01743   0.02349   0.02838   0.03029   0.03915

 Mulliken charges and spin densities:
               1          2
     1  C   -0.593224   0.000000
     2  C   -0.164662   0.000000
     3  C    0.125956  -0.000000
     4  C   -0.414160   0.000000
     5  C    0.344438  -0.000000
     6  O   -0.191879  -0.000000
     7  O   -0.219830  -0.000000
     8  H    0.225092   0.000000
     9  C    0.772521  -0.000000
    10  C   -0.138489   0.000000
    11  C    0.179047   0.000000
    12  C    0.635739   0.000000
    13  C   -0.274056  -0.000000
    14  C   -0.518389  -0.000000
    15  C   -0.221328  -0.000000
    16  C   -0.151041   0.000000
    17  O   -0.211010   0.000000
    18  C   -0.596317  -0.000000
    19  H    0.145155  -0.000000
    20  H    0.136355  -0.000000
    21  H    0.170355  -0.000000
    22  H    0.177407   0.000000
    23  C   -0.517386  -0.000000
    24  H    0.227371   0.000000
    25  H    0.197906  -0.000000
    26  H    0.160262   0.000000
    27  H    0.194257   0.000000
    28  H    0.193446  -0.000000
    29  H    0.135025   0.000000
    30  H    0.191437  -0.000000
 Sum of Mulliken charges =  -0.00000  -0.00000

 Dipole moment (field-independent basis, Debye):
    X=              1.0915    Y=             -1.0848    Z=             -2.2641  Tot=              2.7376
 Quadrupole moment (field-independent basis, Debye-Ang):
   XX=            -93.8562   YY=           -109.3182   ZZ=            -92.3735
   XY=            -13.4181   XZ=             -6.7202   YZ=              3.1231

  Exact polarizability: 236.263  19.195 155.820  -6.364   2.731 161.620
 Approx polarizability: 359.003  75.692 277.419 -18.656  10.630 271.574

                      1                      2                      3
                      A                      A                      A
 Frequencies --     20.8709                29.8346                53.8838
 Red. masses --      5.0540                 4.6728                 4.9406
 Frc consts  --      0.0013                 0.0025                 0.0085
 IR Inten    --      1.2400                 0.0473                 0.3199

                      4                      5                      6
                      A                      A                      A
 Frequencies --     82.6575                90.5877               110.2757
 Red. masses --      7.0437                 1.2799                 3.0683
 Frc consts  --      0.0284                 0.0062                 0.0220
 IR Inten    --     11.2296                 0.1134                 1.0881

                      7                      8                      9
                      A                      A                      A
 Frequencies --    124.9098               151.3619               201.8128
 Red. masses --      4.9144                 4.1093                 1.5267
 Frc consts  --      0.0452                 0.0555                 0.0366
 IR Inten    --      0.8028                 0.0755                 0.9917

                     10                     11                     12
                      A                      A                      A
 Frequencies --    209.7041               233.0554               254.7011
 Red. masses --      2.1772                 3.4529                 5.5804
 Frc consts  --      0.0564                 0.1105                 0.2133
 IR Inten    --      0.0330                 1.5039                 5.8067

                     13                     14                     15
                      A                      A                      A
 Frequencies --    261.5290               318.0119               355.9575
 Red. masses --      4.3343                 3.4868                 6.6230
 Frc consts  --      0.1747                 0.2078                 0.4944
 IR Inten    --      0.4746                 1.6708                 1.6394

                     16                     17                     18
                      A                      A                      A
 Frequencies --    399.1944               415.7981               423.3761
 Red. masses --      4.3748                 5.5358                 4.1462
 Frc consts  --      0.4108                 0.5639                 0.4379
 IR Inten    --     12.3455                10.5664                 0.2497

                     19                     20                     21
                      A                      A                      A
 Frequencies --    436.8267               457.2419               491.6210
 Red. masses --      4.1714                 7.6500                 3.6169
 Frc consts  --      0.4690                 0.9423                 0.5150
 IR Inten    --      4.9948                 5.6329                 7.1017

                     22                     23                     24
                      A                      A                      A
 Frequencies --    528.7680               556.7966               578.5027
 Red. masses --      4.8270                 4.5978                 3.3773
 Frc consts  --      0.7952                 0.8398                 0.6659
 IR Inten    --     13.0369                 2.9200                 1.9287

                     25                     26                     27
                      A                      A                      A
 Frequencies --    588.1612               646.4373               679.9555
 Red. masses --      4.8368                 3.9230                 6.5010
 Frc consts  --      0.9858                 0.9659                 1.7709
 IR Inten    --      3.2546                 3.3275                15.6375

                     28                     29                     30
                      A                      A                      A
 Frequencies --    694.5472               726.5853               738.5845
 Red. masses --      4.5246                 6.2393                 1.8739
 Frc consts  --      1.2860                 1.9407                 0.6023
 IR Inten    --      2.0807                 2.9835                22.9915

                     31                     32                     33
                      A                      A                      A
 Frequencies --    775.2943               792.2836               811.5355
 Red. masses --      2.1985                 4.1812                 4.6699
 Frc consts  --      0.7786                 1.5464                 1.8121
 IR Inten    --     25.4673                22.1709                 6.3018

                     34                     35                     36
                      A                      A                      A
 Frequencies --    837.1723               861.5446               884.3260
 Red. masses --      3.4123                 2.3060                 1.3364
 Frc consts  --      1.4091                 1.0085                 0.6158
 IR Inten    --      5.0196                31.0496                 0.7188

                     37                     38                     39
                      A                      A                      A
 Frequencies --    924.2192               968.4964              1002.7832
 Red. masses --      3.5856                 1.3899                 1.3256
 Frc consts  --      1.8045                 0.7681                 0.7854
 IR Inten    --    109.7833                 0.7294                 0.4438

                     40                     41                     42
                      A                      A                      A
 Frequencies --   1010.8272              1016.6468              1017.6541
 Red. masses --      2.8936                 1.9613                 1.2634
 Frc consts  --      1.7420                 1.1943                 0.7709
 IR Inten    --      7.2051                 9.5612                 0.0301

                     43                     44                     45
                      A                      A                      A
 Frequencies --   1047.1795              1058.7160              1074.9418
 Red. masses --      1.5713                 1.5861                 2.3511
 Frc consts  --      1.0152                 1.0475                 1.6006
 IR Inten    --      0.8522                 2.3540                 3.8591

                     46                     47                     48
                      A                      A                      A
 Frequencies --   1088.0179              1119.0682              1148.3867
 Red. masses --      2.4194                 1.7814                 2.0586
 Frc consts  --      1.6875                 1.3144                 1.5996
 IR Inten    --      6.7759                35.5176                10.0186

                     49                     50                     51
                      A                      A                      A
 Frequencies --   1160.8353              1190.0664              1219.2881
 Red. masses --      1.6706                 1.1079                 2.6755
 Frc consts  --      1.3264                 0.9245                 2.3435
 IR Inten    --      7.4941                 6.1118                 8.0898

                     52                     53                     54
                      A                      A                      A
 Frequencies --   1245.8880              1297.4107              1308.9628
 Red. masses --      4.4412                 3.5181                 1.5580
 Frc consts  --      4.0617                 3.4891                 1.5728
 IR Inten    --    174.7724               188.8508                11.9324

                     55                     56                     57
                      A                      A                      A
 Frequencies --   1321.4819              1336.9642              1390.5293
 Red. masses --      3.8018                 5.6349                 2.0449
 Frc consts  --      3.9116                 5.9344                 2.3296
 IR Inten    --     10.6816                24.4838                 0.8414

                     58                     59                     60
                      A                      A                      A
 Frequencies --   1418.3452              1419.8277              1465.6274
 Red. masses --      1.2626                 1.2199                 1.5181
 Frc consts  --      1.4965                 1.4490                 1.9213
 IR Inten    --     22.3293                 6.4316                 2.6684

                     61                     62                     63
                      A                      A                      A
 Frequencies --   1466.5641              1477.0631              1477.6099
 Red. masses --      1.0505                 1.0817                 1.0761
 Frc consts  --      1.3313                 1.3905                 1.3843
 IR Inten    --      3.5749                 8.0638                 8.1104

                     64                     65                     66
                      A                      A                      A
 Frequencies --   1493.1512              1509.4154              1603.5931
 Red. masses --      1.3685                 2.3651                 5.3248
 Frc consts  --      1.7977                 3.1747                 8.0676
 IR Inten    --     28.8664                18.7054                34.1779

                     67                     68                     69
                      A                      A                      A
 Frequencies --   1640.5936              1646.7409              1681.7369
 Red. masses --      5.6066                 7.9308                 9.2643
 Frc consts  --      8.8911                12.6712                15.4376
 IR Inten    --     26.9883                24.9533                 5.8272

                     70                     71                     72
                      A                      A                      A
 Frequencies --   1711.3091              1720.0021              1728.4527
 Red. masses --     10.9539                10.2562                12.2968
 Frc consts  --     18.9007                17.8769                21.6450
 IR Inten    --    301.3512               166.2109               220.3360

                     73                     74                     75
                      A                      A                      A
 Frequencies --   3039.9642              3041.2717              3089.1656
 Red. masses --      1.0354                 1.0384                 1.0979
 Frc consts  --      5.6374                 5.6590                 6.1729
 IR Inten    --     18.2078                 2.9739                 3.9258

                     76                     77                     78
                      A                      A                      A
 Frequencies --   3098.8022              3109.6378              3141.9159
 Red. masses --      1.0993                 1.1033                 1.1011
 Frc consts  --      6.2193                 6.2859                 6.4045
 IR Inten    --      7.1387                23.0923                 7.1826

                     79                     80                     81
                      A                      A                      A
 Frequencies --   3161.5746              3173.5754              3176.0313
 Red. masses --      1.0865                 1.0888                 1.0872
 Frc consts  --      6.3989                 6.4607                 6.4615
 IR Inten    --      5.2945                 4.9027                 0.9084

                     82                     83                     84
                      A                      A                      A
 Frequencies --   3182.0040              3193.9884              3194.0764
 Red. masses --      1.0920                 1.0992                 1.0974
 Frc consts  --      6.5145                 6.6068                 6.5965
 IR Inten    --     22.1864                 3.9733                10.2825

 - Thermochemistry -
 -------------------
 Temperature   298.150 Kelvin.  Pressure   1.00000 Atm.
 Atom     1 has atomic number  6 and mass  12.00000

 Molecular mass:   240.07864 amu.
 Principal axes and moments of inertia in atomic units:
                           1         2         3
     Eigenvalues --  2268.921766758.030536798.02144
           X            0.99869  -0.01357   0.04941
           Y           -0.04661  -0.64137   0.76582
           Z           -0.02130   0.76711   0.64116
 This molecule is an asymmetric top.
 Rotational symmetry number  1.
 Warning -- assumption of classical behavior for rotation
           may cause significant error
 Rotational temperatures (Kelvin)      0.03817     0.01282     0.01274
 Rotational constants (GHZ):           0.79542     0.26705     0.26548
 Zero-point vibrational energy     603121.9 (Joules/Mol)
                                  144.14960 (Kcal/Mol)
 Warning -- explicit consideration of  25 degrees of freedom as
           vibrations may cause significant error
 Vibrational temperatures:     30.03    42.93    77.53   118.93   130.34
          (Kelvin)            158.66   179.72   217.78   290.36   301.72
                              335.31   366.46   376.28   457.55   512.14
                              574.35   598.24   609.14   628.50   657.87
                              707.33   760.78   801.11   832.34   846.23
                              930.08   978.30   999.30  1045.39  1062.66
                             1115.48  1139.92  1167.62  1204.50  1239.57
                             1272.35  1329.75  1393.45  1442.78  1454.35
                             1462.73  1464.18  1506.66  1523.26  1546.60
                             1565.42  1610.09  1652.27  1670.18  1712.24
                             1754.28  1792.55  1866.68  1883.31  1901.32
                             1923.59  2000.66  2040.68  2042.82  2108.71
                             2110.06  2125.16  2125.95  2148.31  2171.71
                             2307.21  2360.45  2369.29  2419.64  2462.19
                             2474.70  2486.86  4373.83  4375.71  4444.62
                             4458.49  4474.08  4520.52  4548.80  4566.07
                             4569.60  4578.19  4595.44  4595.56

 Zero-point correction=                           0.229717 (Hartree/Particle)
 Thermal correction to Energy=                    0.245987
 Thermal correction to Enthalpy=                  0.246931
 Thermal correction to Gibbs Free Energy=         0.184275
 Sum of electronic and zero-point Energies=           -804.452583
 Sum of electronic and thermal Energies=              -804.436313
 Sum of electronic and thermal Enthalpies=            -804.435368
 Sum of electronic and thermal Free Energies=         -804.498025

                     E (Thermal)             CV                S
                      KCal/Mol        Cal/Mol-Kelvin    Cal/Mol-Kelvin
 Total                  154.359             60.887            131.872
 Electronic               0.000              0.000              0.000
 Translational            0.889              2.981             42.329
 Rotational               0.889              2.981             33.011
 Vibrational            152.582             54.926             56.533
 Vibration     1          0.593              1.986              6.550
 Vibration     2          0.594              1.984              5.840
 Vibration     3          0.596              1.976              4.670
 Vibration     4          0.600              1.961              3.827
 Vibration     5          0.602              1.956              3.647
 Vibration     6          0.606              1.941              3.264
 Vibration     7          0.610              1.928              3.023
 Vibration     8          0.619              1.901              2.655
 Vibration     9          0.639              1.837              2.117
 Vibration    10          0.642              1.826              2.046
 Vibration    11          0.654              1.790              1.855
 Vibration    12          0.665              1.755              1.698
 Vibration    13          0.669              1.743              1.652
 Vibration    14          0.704              1.639              1.320
 Vibration    15          0.731              1.563              1.140
 Vibration    16          0.765              1.472              0.966
 Vibration    17          0.779              1.436              0.906
 Vibration    18          0.786              1.419              0.881
 Vibration    19          0.797              1.390              0.837
 Vibration    20          0.815              1.345              0.774
 Vibration    21          0.847              1.269              0.679
 Vibration    22          0.884              1.186              0.590
 Vibration    23          0.912              1.125              0.530
 Vibration    24          0.935              1.078              0.488
 Vibration    25          0.945              1.057              0.470

 Optimization completed.
    -- Stationary point found.
 Normal termination of Gaussian 16 at Wed Jan 10 06:05:57 2024.
