 Gaussian 16, Revision A.03,
 Gaussian 16:  ES64L-G16RevA.03 25-Dec-2016

 --------------------------------------
 #P UB3LYP/6-311++G(d,p) nosym opt freq
 --------------------------------------

 --------
 Oxidized
 --------
 Symbolic Z-matrix:
 Charge =  0 Multiplicity = 1

 SCF Done:  E(UB3LYP) =  -574.586134065     A.U. after   15 cycles
 SCF Done:  E(UB3LYP) =  -574.587258009     A.U. after   12 cycles
 SCF Done:  E(UB3LYP) =  -574.587309205     A.U. after   12 cycles
 SCF Done:  E(UB3LYP) =  -574.587310409     A.U. after   10 cycles
 SCF Done:  E(UB3LYP) =  -574.587311711     A.U. after   10 cycles
 Optimization completed.
    -- Stationary point found.
 Normal termination of Gaussian 16 at Tue Dec 26 20:08:55 2023.

 ----------------------------------------------------------------------
 #P Geom=AllCheck Guess=TCheck SCRF=Check GenChk UB3LYP/6-311++G(d,p) F
 req
 ----------------------------------------------------------------------

 Structure from the checkpoint file:  "238.chk"
 --------
 Oxidized
 --------
 Charge =  0 Multiplicity = 1

                          Input orientation:
 ---------------------------------------------------------------------
 Center     Atomic      Atomic             Coordinates (Angstroms)
 Number     Number       Type             X           Y           Z
 ---------------------------------------------------------------------
      1          6           0        5.686004   -5.362295    1.318702
      2          6           0        6.652575   -5.249569    0.324892
      3          6           0        6.587295   -4.236581   -0.641000
      4          6           0        4.624149   -4.459034    1.370431
      5          6           0        4.544689   -3.435965    0.406683
      6          6           0        5.519985   -3.334867   -0.583460
      7          6           0        3.591016   -4.582879    2.435165
      8          6           0        2.489388   -3.587271    2.429411
      9          6           0        2.411053   -2.612370    1.513477
     10          6           0        3.419594   -2.455206    0.436300
     11          8           0        3.627741   -5.456940    3.286769
     12          8           0        3.315394   -1.554984   -0.381076
     13          1           0        5.738617   -6.146565    2.064275
     14          1           0        7.472817   -5.959139    0.296042
     15          1           0        1.752232   -3.702463    3.216840
     16          1           0        1.606419   -1.884899    1.508961
     17          6           0        7.636734   -4.111857   -1.716704
     18          1           0        5.429698   -2.535919   -1.311340
     19          1           0        8.377611   -4.910005   -1.646787
     20          1           0        8.162281   -3.155121   -1.641100
     21          1           0        7.185029   -4.153972   -2.712030
 ---------------------------------------------------------------------

 SCF Done:  E(UB3LYP) =  -574.587311711     A.U. after    1 cycles

 Alpha  occ. eigenvalues --  -19.13495 -19.13323 -10.28390 -10.28255 -10.21648
 Alpha  occ. eigenvalues --  -10.21564 -10.21439 -10.21117 -10.20849 -10.20200
 Alpha  occ. eigenvalues --  -10.20133 -10.19940 -10.18733  -1.06672  -1.06412
 Alpha  occ. eigenvalues --   -0.89607  -0.84744  -0.80037  -0.78173  -0.72472
 Alpha  occ. eigenvalues --   -0.69720  -0.65342  -0.62993  -0.59447  -0.54365
 Alpha  occ. eigenvalues --   -0.52792  -0.51082  -0.48398  -0.46577  -0.45943
 Alpha  occ. eigenvalues --   -0.45574  -0.45246  -0.43948  -0.43245  -0.42711
 Alpha  occ. eigenvalues --   -0.41735  -0.40691  -0.38311  -0.37415  -0.36986
 Alpha  occ. eigenvalues --   -0.31154  -0.28585  -0.28357  -0.27585  -0.27472
 Alpha virt. eigenvalues --   -0.12739  -0.06133  -0.03804  -0.01317  -0.00126
 Alpha virt. eigenvalues --    0.00667   0.01731   0.01898   0.02676   0.02845
 Alpha virt. eigenvalues --    0.03970   0.04335   0.04940   0.05009   0.05848

  Beta  occ. eigenvalues --  -19.13495 -19.13323 -10.28390 -10.28255 -10.21648
  Beta  occ. eigenvalues --  -10.21564 -10.21439 -10.21117 -10.20849 -10.20200
  Beta  occ. eigenvalues --  -10.20133 -10.19940 -10.18733  -1.06672  -1.06412
  Beta  occ. eigenvalues --   -0.89607  -0.84744  -0.80037  -0.78173  -0.72472
  Beta  occ. eigenvalues --   -0.69720  -0.65342  -0.62993  -0.59447  -0.54365
  Beta  occ. eigenvalues --   -0.52792  -0.51082  -0.48398  -0.46577  -0.45943
  Beta  occ. eigenvalues --   -0.45574  -0.45246  -0.43948  -0.43245  -0.42711
  Beta  occ. eigenvalues --   -0.41735  -0.40691  -0.38311  -0.37415  -0.36986
  Beta  occ. eigenvalues --   -0.31154  -0.28585  -0.28357  -0.27585  -0.27472
  Beta virt. eigenvalues --   -0.12739  -0.06133  -0.03804  -0.01317  -0.00126
  Beta virt. eigenvalues --    0.00667   0.01731   0.01898   0.02676   0.02845
  Beta virt. eigenvalues --    0.03970   0.04335   0.04940   0.05009   0.05848

 Mulliken charges and spin densities:
               1          2
     1  C    0.414538   0.000000
     2  C   -1.211501  -0.000000
     3  C    0.284721   0.000000
     4  C   -0.028478   0.000000
     5  C    0.285062  -0.000000
     6  C    0.698343  -0.000000
     7  C   -0.918382  -0.000000
     8  C    0.278120   0.000000
     9  C    0.075578  -0.000000
    10  C   -0.485315  -0.000000
    11  O   -0.225963   0.000000
    12  O   -0.225764  -0.000000
    13  H    0.194112   0.000000
    14  H    0.141139  -0.000000
    15  H    0.215951   0.000000
    16  H    0.218166   0.000000
    17  C   -0.380071  -0.000000
    18  H    0.165985   0.000000
    19  H    0.155124  -0.000000
    20  H    0.176899  -0.000000
    21  H    0.171735  -0.000000
 Sum of Mulliken charges =  -0.00000  -0.00000

 Dipole moment (field-independent basis, Debye):
    X=              1.7530    Y=             -0.4157    Z=             -1.1627  Tot=              2.1442
 Quadrupole moment (field-independent basis, Debye-Ang):
   XX=            -49.2032   YY=            -78.9994   ZZ=            -81.1002
   XY=            -11.9743   XZ=            -10.7241   YZ=             12.9929

  Exact polarizability: 140.768 -27.180 125.996 -37.542 -32.865 136.431
 Approx polarizability: 203.554 -41.710 232.523 -43.676 -87.174 236.785

 ******    1 imaginary frequencies (negative Signs) ******

                      1                      2                      3
                      A                      A                      A
 Frequencies --    -34.8396                75.0332                97.8218
 Red. masses --      1.0302                 5.8151                 4.9169
 Frc consts  --      0.0007                 0.0193                 0.0277
 IR Inten    --      0.2722                10.8755                 1.0723

                      4                      5                      6
                      A                      A                      A
 Frequencies --    149.3620               209.9162               253.3703
 Red. masses --      4.7897                 4.6364                 4.5167
 Frc consts  --      0.0630                 0.1204                 0.1708
 IR Inten    --      0.0003                 0.4572                 0.1567

                      7                      8                      9
                      A                      A                      A
 Frequencies --    280.7660               338.6347               373.6156
 Red. masses --      4.0199                 5.4026                 5.1384
 Frc consts  --      0.1867                 0.3650                 0.4226
 IR Inten    --      0.4386                 4.4213                 7.4438

                     10                     11                     12
                      A                      A                      A
 Frequencies --    420.8428               449.7177               452.7206
 Red. masses --      3.0913                 8.0733                 6.9449
 Frc consts  --      0.3226                 0.9620                 0.8386
 IR Inten    --      1.9612                10.7777                 0.7898

                     13                     14                     15
                      A                      A                      A
 Frequencies --    518.9555               530.6755               600.9514
 Red. masses --      3.8610                 7.2546                 4.5677
 Frc consts  --      0.6126                 1.2037                 0.9719
 IR Inten    --      5.4867                12.3369                 0.0266

                     16                     17                     18
                      A                      A                      A
 Frequencies --    614.0864               676.8327               689.3401
 Red. masses --      2.1930                 4.8250                 3.8587
 Frc consts  --      0.4872                 1.3023                 1.0803
 IR Inten    --      0.0026                 2.6013                 2.3475

                     19                     20                     21
                      A                      A                      A
 Frequencies --    719.2466               773.7613               789.9474
 Red. masses --      6.6650                 6.9830                 6.0267
 Frc consts  --      2.0314                 2.4632                 2.2158
 IR Inten    --      1.3629                 3.4353                 1.0562

                     22                     23                     24
                      A                      A                      A
 Frequencies --    841.6377               880.4340               900.1587
 Red. masses --      1.4088                 1.8643                 4.2397
 Frc consts  --      0.5879                 0.8514                 2.0241
 IR Inten    --     70.2295                 8.0151                 7.3283

                     25                     26                     27
                      A                      A                      A
 Frequencies --    939.4823              1003.3560              1016.4635
 Red. masses --      1.3455                 1.3576                 1.2521
 Frc consts  --      0.6997                 0.8053                 0.7622
 IR Inten    --      0.8089                 0.7389                 0.0005

                     28                     29                     30
                      A                      A                      A
 Frequencies --   1016.9928              1060.4044              1062.7025
 Red. masses --      1.4643                 3.2489                 1.5707
 Frc consts  --      0.8923                 2.1524                 1.0451
 IR Inten    --      0.7007                44.0014                 5.6812

                     31                     32                     33
                      A                      A                      A
 Frequencies --   1073.0563              1154.1485              1163.5608
 Red. masses --      2.5090                 1.3676                 1.4590
 Frc consts  --      1.7021                 1.0733                 1.1638
 IR Inten    --     17.9700                16.2843                20.2024

                     34                     35                     36
                      A                      A                      A
 Frequencies --   1213.1850              1255.9967              1305.0557
 Red. masses --      2.8745                 1.9133                 1.7475
 Frc consts  --      2.4927                 1.7783                 1.7536
 IR Inten    --      0.0748                 1.7087                 2.1849

                     37                     38                     39
                      A                      A                      A
 Frequencies --   1316.8527              1351.0099              1387.6753
 Red. masses --      3.9579                 7.0905                 1.7767
 Frc consts  --      4.0438                 7.6250                 2.0158
 IR Inten    --    293.9877                23.7658                 4.3094

                     40                     41                     42
                      A                      A                      A
 Frequencies --   1415.3960              1443.6841              1485.6567
 Red. masses --      1.2479                 3.2101                 1.0432
 Frc consts  --      1.4729                 3.9420                 1.3567
 IR Inten    --      2.5721                 6.8153                 8.1933

                     43                     44                     45
                      A                      A                      A
 Frequencies --   1496.8468              1517.2234              1603.2532
 Red. masses --      1.1510                 3.0196                 6.3320
 Frc consts  --      1.5194                 4.0955                 9.5894
 IR Inten    --      6.2479                 0.0284                 6.2417

                     46                     47                     48
                      A                      A                      A
 Frequencies --   1634.8663              1662.3641              1721.5906
 Red. masses --      6.1121                 8.1953                10.4536
 Frc consts  --      9.6252                13.3434                18.2547
 IR Inten    --    123.7790                32.9942                50.5911

                     49                     50                     51
                      A                      A                      A
 Frequencies --   1727.1911              3028.6719              3079.4947
 Red. masses --     11.3108                 1.0370                 1.1001
 Frc consts  --     19.8804                 5.6042                 6.1467
 IR Inten    --    371.3184                18.3515                10.6150

                     52                     53                     54
                      A                      A                      A
 Frequencies --   3108.7919              3166.8533              3171.9059
 Red. masses --      1.1011                 1.0893                 1.0872
 Frc consts  --      6.2701                 6.4368                 6.4445
 IR Inten    --     15.1732                10.4557                 1.0863

                     55                     56                     57
                      A                      A                      A
 Frequencies --   3179.6811              3189.7900              3196.1961
 Red. masses --      1.0905                 1.0986                 1.0930
 Frc consts  --      6.4961                 6.5860                 6.5785
 IR Inten    --      2.3425                 5.7127                 3.0024

 - Thermochemistry -
 -------------------
 Temperature   298.150 Kelvin.  Pressure   1.00000 Atm.
 Atom     1 has atomic number  6 and mass  12.00000

 Molecular mass:   172.05243 amu.
 Principal axes and moments of inertia in atomic units:
                           1         2         3
     Eigenvalues --  1396.670842523.542593909.05721
           X            0.79336  -0.28418   0.53835
           Y           -0.12360   0.79073   0.59956
           Z           -0.59607  -0.54220   0.59221
 This molecule is an asymmetric top.
 Rotational symmetry number  1.
 Warning -- assumption of classical behavior for rotation
           may cause significant error
 Rotational temperatures (Kelvin)      0.06201     0.03432     0.02216
 Rotational constants (GHZ):           1.29217     0.71516     0.46168
    1 imaginary frequencies ignored.
 Zero-point vibrational energy     417420.3 (Joules/Mol)
                                   99.76585 (Kcal/Mol)
 Warning -- explicit consideration of  15 degrees of freedom as
           vibrations may cause significant error
 Vibrational temperatures:    107.96   140.74   214.90   302.02   364.54
          (Kelvin)            403.96   487.22   537.55   605.50   647.04
                              651.36   746.66   763.52   864.63   883.53
                              973.81   991.81  1034.84  1113.27  1136.56
                             1210.93  1266.75  1295.13  1351.71  1443.61
                             1462.46  1463.23  1525.69  1528.99  1543.89
                             1660.56  1674.10  1745.50  1807.10  1877.68
                             1894.66  1943.80  1996.56  2036.44  2077.14
                             2137.53  2153.63  2182.95  2306.72  2352.21
                             2391.77  2476.98  2485.04  4357.58  4430.71
                             4472.86  4556.40  4563.67  4574.85  4589.40
                             4598.61

 Zero-point correction=                           0.158987 (Hartree/Particle)
 Thermal correction to Energy=                    0.168784
 Thermal correction to Enthalpy=                  0.169729
 Thermal correction to Gibbs Free Energy=         0.123427
 Sum of electronic and zero-point Energies=           -574.428325
 Sum of electronic and thermal Energies=              -574.418527
 Sum of electronic and thermal Enthalpies=            -574.417583
 Sum of electronic and thermal Free Energies=         -574.463885

                     E (Thermal)             CV                S
                      KCal/Mol        Cal/Mol-Kelvin    Cal/Mol-Kelvin
 Total                  105.914             38.705             97.450
 Electronic               0.000              0.000              0.000
 Translational            0.889              2.981             41.335
 Rotational               0.889              2.981             31.000
 Vibrational            104.136             32.744             25.115
 Vibration     1          0.599              1.966              4.017
 Vibration     2          0.603              1.951              3.497
 Vibration     3          0.618              1.903              2.680
 Vibration     4          0.642              1.826              2.044
 Vibration     5          0.665              1.757              1.707
 Vibration     6          0.680              1.709              1.529
 Vibration     7          0.719              1.598              1.219
 Vibration     8          0.745              1.526              1.065
 Vibration     9          0.783              1.425              0.889
 Vibration    10          0.809              1.362              0.797
 Vibration    11          0.811              1.355              0.788
 Vibration    12          0.874              1.208              0.612
 Vibration    13          0.886              1.182              0.586
 Vibration    14          0.959              1.030              0.448
 Vibration    15          0.973              1.002              0.426

                           ! Non-Optimized Parameters !
 Normal termination of Gaussian 16 at Tue Dec 26 20:19:07 2023.
