 Q-Chem 5.4, Q-Chem, Inc., Pleasanton, CA (2021)
 Q-Chem 5.4.0 for Intel X86 EM64T Linux

User input:
--------------------------------------------------------------
$molecule
-2 1
C                 -3.4184800000      3.5951710000      0.0760600000
C                 -4.5958930000      2.8636620000      0.1078860000
C                 -4.5930180000      1.4418530000      0.1242770000
C                 -2.1403700000      2.9262670000      0.0583820000
C                 -2.1511310000      1.4673270000      0.0753890000
C                 -3.3924310000      0.7768380000      0.1080920000
C                 -0.8911530000      3.6703010000      0.0250470000
C                  0.3279010000      2.8772590000      0.0089510000
C                  0.2814140000      1.4190260000      0.0268410000
C                 -0.9500070000      0.6706580000      0.0606000000
C                  1.6312350000      3.4948560000     -0.0252220000
C                  2.7790240000      2.7171740000     -0.0396400000
C                  2.7203790000      1.2965950000     -0.0216540000
C                  1.4946520000      0.6797820000      0.0106910000
O                 -0.8658160000      4.9619040000      0.0105780000
O                 -0.9753550000     -0.6219560000      0.0763470000
C                 -3.5555510000      5.1062350000      0.0613330000
H                 -5.5449990000      3.3984300000      0.1204940000
H                 -5.5349830000      0.8951120000      0.1493030000
H                 -3.3318140000     -0.3067750000      0.1193880000
C                  1.8275190000      4.9992930000     -0.0474930000
H                  1.3915680000     -0.4005770000      0.0254450000
H                  3.7483410000      3.2138570000     -0.0656300000
H                  3.6401520000      0.7128790000     -0.0336320000
H                 -4.6226690000      5.3754680000      0.0784390000
H                 -3.0799460000      5.5460140000     -0.8175610000
H                 -3.0473270000      5.5658040000      0.9114010000
H                  1.3351700000      5.4577190000     -0.9074490000
H                  2.9043240000      5.2258680000     -0.0732960000
H                  1.3721780000      5.4786470000      0.8214020000
$end
$rem
MAX_SCF_CYCLES=200
BASIS  =  6-311++G(d,p)
GUI  =  2
JOB_TYPE  =  SP
METHOD  =  B3LYP
SOLVENT_METHOD = COSMO
$end
$solvent
dielectric 37.219
opticaldielectric 1.43
$end

--------------------------------------------------------------

             Standard Nuclear Orientation (Angstroms)
    I     Atom           X                Y                Z
 ----------------------------------------------------------------
    1      C       2.5258654203    -1.0058077764    -0.0001691146
    2      C       3.6889239462    -0.2510135863    -0.0006981483
    3      C       3.6581493640     1.1705597260    -0.0007750445
    4      C       1.2346290991    -0.3623648381     0.0002704447
    5      C       1.2167602219     1.0966045363     0.0001017428
    6      C       2.4445123246     1.8116533383    -0.0003677719
    7      C       0.0000135842    -1.1311073660     0.0008906761
    8      C      -1.2346232041    -0.3623818170     0.0002732411
    9      C      -1.2167485706     1.0965921626     0.0002719566
   10      C       0.0000004597     1.8693235500     0.0003856695
   11      C      -2.5258612847    -1.0057924433    -0.0003174882
   12      C      -3.6889228522    -0.2510047192    -0.0005222223
   13      C      -3.6581455407     1.1705648721    -0.0002362229
   14      C      -2.4445046364     1.8116473874     0.0001078867
   15      O       0.0000407256    -2.4230394492     0.0019474097
   16      O      -0.0000101734     3.1622819400     0.0005946167
   17      C       2.6925880491    -2.5139600622    -0.0001093809
   18      H       4.6485224069    -0.7668707428    -0.0011017020
   19      H       4.5893857817     1.7359345113    -0.0011866701
   20      H       2.3626313065     2.8939262465    -0.0004389392
   21      C      -2.6926437270    -2.5139492845    -0.0011252781
   22      H      -2.3626159031     2.8939198966     0.0002161583
   23      H      -4.6485135557    -0.7668828779    -0.0011020571
   24      H      -4.5893818739     1.7359400464    -0.0003657049
   25      H       3.7649696581    -2.7619834948    -0.0014918139
   26      H       2.2083084311    -2.9735144560    -0.8640210423
   27      H       2.2107085452    -2.9731610159     0.8653601636
   28      H      -2.2086048180    -2.9729306261    -0.8654913578
   29      H      -3.7650387289    -2.7618971786    -0.0024799128
   30      H      -2.2105715871    -2.9738023140     0.8638809923
 ----------------------------------------------------------------

   11    -767.5651551896      7.61e-06  Convergence criterion met
 Total energy in the final basis set =     -767.5651551896
    6    -767.8325094832      2.73e-06  Convergence criterion met
 Total energy in the final basis set =     -767.8325094832

                    Orbital Energies (a.u.)
 --------------------------------------------------------------

 Alpha MOs
 -- Occupied --
-19.0209 -19.0129 -10.1799 -10.1700 -10.1605 -10.1605 -10.1467 -10.1467
-10.1408 -10.1408 -10.1405 -10.1405 -10.1400 -10.1400 -10.1384 -10.1383
-10.1356 -10.1356  -0.9383  -0.9343  -0.8266  -0.8217  -0.7538  -0.7454
 -0.7406  -0.7029  -0.6676  -0.6548  -0.6289  -0.5938  -0.5880  -0.5357
 -0.5156  -0.4968  -0.4855  -0.4387  -0.4358  -0.4331  -0.4290  -0.4013
 -0.3922  -0.3906  -0.3820  -0.3742  -0.3736  -0.3684  -0.3641  -0.3557
 -0.3481  -0.3338  -0.3270  -0.3194  -0.3162  -0.3109  -0.3004  -0.2987
 -0.2256  -0.2239  -0.2191  -0.2150  -0.2022  -0.1867  -0.1057

          Ground-State Mulliken Net Atomic Charges

     Atom                 Charge (a.u.)
  ----------------------------------------
      1 C                     0.493646
      2 C                    -0.572434
      3 C                    -0.474110
      4 C                     0.109213
      5 C                     0.410445
      6 C                    -0.052156
      7 C                    -0.767560
      8 C                     0.110135
      9 C                     0.409577
     10 C                    -0.561573
     11 C                     0.493268
     12 C                    -0.573010
     13 C                    -0.473614
     14 C                    -0.051866
     15 O                    -0.597336
     16 O                    -0.712795
     17 C                    -0.488787
     18 H                     0.115676
     19 H                     0.188494
     20 H                     0.147027
     21 C                    -0.487811
     22 H                     0.147074
     23 H                     0.115591
     24 H                     0.188520
     25 H                     0.136170
     26 H                     0.153153
     27 H                     0.152907
     28 H                     0.152804
     29 H                     0.136118
     30 H                     0.153235
  ----------------------------------------
  Sum of atomic charges =    -2.000000

                    Cartesian Multipole Moments
 -----------------------------------------------------------------
    Charge (ESU x 10^10)
                -9.6064
    Dipole Moment (Debye)
         X      -0.0012      Y      -5.7192      Z      -0.0069
       Tot       5.7192
    Quadrupole Moments (Debye-Ang)
        XX    -133.5822     XY      -0.0017     YY    -170.8411
        XZ      -0.0091     YZ       0.0083     ZZ    -118.9569

 Total job time:  84.51s(wall), 647.27s(cpu)
        *  Thank you very much for using Q-Chem.  Have a nice day.  *
