 Gaussian 16, Revision A.03,
 Gaussian 16:  ES64L-G16RevA.03 25-Dec-2016

 --------------------------------------
 #P UB3LYP/6-311++G(d,p) nosym opt freq
 --------------------------------------

 -------
 Reduced
 -------
 Symbolic Z-matrix:
 Charge = -2 Multiplicity = 1

 SCF Done:  E(UB3LYP) =  -767.565063760     A.U. after   29 cycles
 Optimization completed.
    -- Stationary point found.
 Normal termination of Gaussian 16 at Wed Dec 27 19:57:09 2023.

 ----------------------------------------------------------------------
 #P Geom=AllCheck Guess=TCheck SCRF=Check GenChk UB3LYP/6-311++G(d,p) F
 req
 ----------------------------------------------------------------------

 Structure from the checkpoint file:  "128-an.chk"
 -------
 Reduced
 -------
 Charge = -2 Multiplicity = 1

                          Input orientation:
 ---------------------------------------------------------------------
 Center     Atomic      Atomic             Coordinates (Angstroms)
 Number     Number       Type             X           Y           Z
 ---------------------------------------------------------------------
      1          6           0       -3.418480    3.595171    0.076060
      2          6           0       -4.595893    2.863662    0.107886
      3          6           0       -4.593018    1.441853    0.124277
      4          6           0       -2.140370    2.926267    0.058382
      5          6           0       -2.151131    1.467327    0.075389
      6          6           0       -3.392431    0.776838    0.108092
      7          6           0       -0.891153    3.670301    0.025047
      8          6           0        0.327901    2.877259    0.008951
      9          6           0        0.281414    1.419026    0.026841
     10          6           0       -0.950007    0.670658    0.060600
     11          6           0        1.631235    3.494856   -0.025222
     12          6           0        2.779024    2.717174   -0.039640
     13          6           0        2.720379    1.296595   -0.021654
     14          6           0        1.494652    0.679782    0.010691
     15          8           0       -0.865816    4.961904    0.010578
     16          8           0       -0.975355   -0.621956    0.076347
     17          6           0       -3.555551    5.106235    0.061333
     18          1           0       -5.544999    3.398430    0.120494
     19          1           0       -5.534983    0.895112    0.149303
     20          1           0       -3.331814   -0.306775    0.119388
     21          6           0        1.827519    4.999293   -0.047493
     22          1           0        1.391568   -0.400577    0.025445
     23          1           0        3.748341    3.213857   -0.065630
     24          1           0        3.640152    0.712879   -0.033632
     25          1           0       -4.622669    5.375468    0.078439
     26          1           0       -3.079946    5.546014   -0.817561
     27          1           0       -3.047327    5.565804    0.911401
     28          1           0        1.335170    5.457719   -0.907449
     29          1           0        2.904324    5.225868   -0.073296
     30          1           0        1.372178    5.478647    0.821402
 ---------------------------------------------------------------------

 SCF Done:  E(UB3LYP) =  -767.565063760     A.U. after    1 cycles

 Alpha  occ. eigenvalues --  -18.76646 -18.76223  -9.93419  -9.92918  -9.92918
 Alpha  occ. eigenvalues --   -9.92249  -9.92147  -9.92146  -9.91714  -9.91714
 Alpha  occ. eigenvalues --   -9.91360  -9.91360  -9.90573  -9.90573  -9.90024
 Alpha  occ. eigenvalues --   -9.90024  -9.89155  -9.89155  -0.68803  -0.67781
 Alpha  occ. eigenvalues --   -0.58964  -0.58773  -0.51776  -0.51518  -0.50716
 Alpha  occ. eigenvalues --   -0.46712  -0.43680  -0.42813  -0.39111  -0.36121
 Alpha  occ. eigenvalues --   -0.35347  -0.30473  -0.28103  -0.26313  -0.25230
 Alpha  occ. eigenvalues --   -0.20720  -0.20369  -0.20090  -0.19962  -0.17337
 Alpha  occ. eigenvalues --   -0.16827  -0.16069  -0.15074  -0.14764  -0.14432
 Alpha  occ. eigenvalues --   -0.12750  -0.12577  -0.12204  -0.10713  -0.10173
 Alpha  occ. eigenvalues --   -0.09210  -0.08479  -0.07503  -0.06970  -0.05806
 Alpha  occ. eigenvalues --   -0.05656   0.01179   0.01640   0.02431   0.02925
 Alpha  occ. eigenvalues --    0.05521   0.06051   0.14307
 Alpha virt. eigenvalues --    0.16321   0.16353   0.17524   0.17686   0.19226
 Alpha virt. eigenvalues --    0.19930   0.20909   0.20963   0.21965   0.22021
 Alpha virt. eigenvalues --    0.22466   0.22518   0.23597   0.23681   0.25797

  Beta  occ. eigenvalues --  -18.76646 -18.76223  -9.93419  -9.92918  -9.92918
  Beta  occ. eigenvalues --   -9.92249  -9.92147  -9.92146  -9.91714  -9.91714
  Beta  occ. eigenvalues --   -9.91360  -9.91360  -9.90573  -9.90573  -9.90024
  Beta  occ. eigenvalues --   -9.90024  -9.89155  -9.89155  -0.68803  -0.67781
  Beta  occ. eigenvalues --   -0.58964  -0.58773  -0.51776  -0.51518  -0.50716
  Beta  occ. eigenvalues --   -0.46712  -0.43680  -0.42813  -0.39111  -0.36121
  Beta  occ. eigenvalues --   -0.35347  -0.30473  -0.28103  -0.26313  -0.25230
  Beta  occ. eigenvalues --   -0.20720  -0.20369  -0.20090  -0.19962  -0.17337
  Beta  occ. eigenvalues --   -0.16827  -0.16069  -0.15074  -0.14764  -0.14432
  Beta  occ. eigenvalues --   -0.12750  -0.12577  -0.12204  -0.10713  -0.10173
  Beta  occ. eigenvalues --   -0.09210  -0.08479  -0.07503  -0.06970  -0.05806
  Beta  occ. eigenvalues --   -0.05656   0.01179   0.01640   0.02431   0.02925
  Beta  occ. eigenvalues --    0.05521   0.06051   0.14307
  Beta virt. eigenvalues --    0.16321   0.16353   0.17524   0.17686   0.19226
  Beta virt. eigenvalues --    0.19930   0.20909   0.20963   0.21965   0.22021
  Beta virt. eigenvalues --    0.22466   0.22518   0.23597   0.23681   0.25797

 Mulliken charges and spin densities:
               1          2
     1  C    0.709654  -0.000000
     2  C   -0.600627   0.000000
     3  C   -0.407937  -0.000000
     4  C    0.185498   0.000000
     5  C    0.615026  -0.000000
     6  C   -0.001209   0.000000
     7  C   -0.949878  -0.000000
     8  C    0.185424   0.000000
     9  C    0.614977  -0.000000
    10  C   -1.056855   0.000000
    11  C    0.709652  -0.000000
    12  C   -0.600490   0.000000
    13  C   -0.407963   0.000000
    14  C   -0.001050  -0.000000
    15  O   -0.465359   0.000000
    16  O   -0.507959  -0.000000
    17  C   -0.580553   0.000000
    18  H    0.009666   0.000000
    19  H    0.083539  -0.000000
    20  H    0.123990   0.000000
    21  C   -0.580571   0.000000
    22  H    0.123990  -0.000000
    23  H    0.009662   0.000000
    24  H    0.083539   0.000000
    25  H    0.056683   0.000000
    26  H    0.148157   0.000000
    27  H    0.148072   0.000000
    28  H    0.148145  -0.000000
    29  H    0.056687  -0.000000
    30  H    0.148091   0.000000
 Sum of Mulliken charges =  -2.00000   0.00000

 Dipole moment (field-independent basis, Debye):
    X=              8.8452    Y=            -20.7631    Z=             -0.4109  Tot=             22.5724
 Quadrupole moment (field-independent basis, Debye-Ang):
   XX=           -175.0736   YY=           -214.7987   ZZ=           -120.0344
   XY=             19.0708   XZ=              1.3268   YZ=             -0.3148

  Exact polarizability: 448.565  -3.308 283.904  -5.787  -1.528 155.919
 Approx polarizability: 774.980  -5.537 499.931 -11.141  -3.160 218.796

                      1                      2                      3
                      A                      A                      A
 Frequencies --     27.2789                50.5591                73.7659
 Red. masses --      6.0354                 3.3916                 5.1965
 Frc consts  --      0.0026                 0.0051                 0.0167
 IR Inten    --      7.2710                 0.0011                 0.0048

                      4                      5                      6
                      A                      A                      A
 Frequencies --    162.6911               176.6211               191.5025
 Red. masses --      5.2434                 1.4316                 1.4156
 Frc consts  --      0.0818                 0.0263                 0.0306
 IR Inten    --      5.2222                 0.0003                 2.6000

                      7                      8                      9
                      A                      A                      A
 Frequencies --    206.8715               214.8515               230.6690
 Red. masses --      4.1904                 1.8027                 2.0437
 Frc consts  --      0.1057                 0.0490                 0.0641
 IR Inten    --      5.2546                 0.0019                 2.1727

                     10                     11                     12
                      A                      A                      A
 Frequencies --    264.9974               316.3789               342.0867
 Red. masses --      4.2585                 4.2548                 7.0330
 Frc consts  --      0.1762                 0.2509                 0.4849
 IR Inten    --      0.0000                 8.9213                 0.3286

                     13                     14                     15
                      A                      A                      A
 Frequencies --    348.1020               385.3836               388.2705
 Red. masses --      4.8699                 7.5485                12.4275
 Frc consts  --      0.3477                 0.6605                 1.1038
 IR Inten    --      1.5376                 1.3353                 0.1284

                     16                     17                     18
                      A                      A                      A
 Frequencies --    419.1716               451.1096               484.9790
 Red. masses --      4.2647                 3.6888                 4.0078
 Frc consts  --      0.4415                 0.4423                 0.5554
 IR Inten    --      1.3840                 4.5286                 9.1448

                     19                     20                     21
                      A                      A                      A
 Frequencies --    489.6744               495.1964               544.0351
 Red. masses --      9.6030                 3.9848                 5.9518
 Frc consts  --      1.3567                 0.5757                 1.0379
 IR Inten    --      1.0904                 0.0001                 1.8949

                     22                     23                     24
                      A                      A                      A
 Frequencies --    548.1522               554.3928               613.3794
 Red. masses --      3.8326                 4.2964                 6.4081
 Frc consts  --      0.6785                 0.7780                 1.4205
 IR Inten    --      0.0003                 4.0943                21.5144

                     25                     26                     27
                      A                      A                      A
 Frequencies --    617.8808               688.7557               695.9844
 Red. masses --      3.7413                 1.5330                 6.7693
 Frc consts  --      0.8415                 0.4285                 1.9320
 IR Inten    --      7.0533               107.2379                 5.5294

                     28                     29                     30
                      A                      A                      A
 Frequencies --    701.8147               744.3674               752.7717
 Red. masses --      1.8078                 2.3004                 2.5395
 Frc consts  --      0.5246                 0.7510                 0.8479
 IR Inten    --      0.0031                 0.0004                29.6410

                     31                     32                     33
                      A                      A                      A
 Frequencies --    779.9607               785.6161               790.3245
 Red. masses --      1.6493                 1.3398                 5.7396
 Frc consts  --      0.5911                 0.4872                 2.1122
 IR Inten    --      0.3445                 0.0021                 4.4682

                     34                     35                     36
                      A                      A                      A
 Frequencies --    797.4548               830.5958               918.2444
 Red. masses --      6.5330                 5.5093                 5.1137
 Frc consts  --      2.4478                 2.2394                 2.5404
 IR Inten    --      6.8746                 0.0907                 0.0502

                     37                     38                     39
                      A                      A                      A
 Frequencies --    928.0974               952.1737               955.9372
 Red. masses --      3.9273                 1.2719                 1.3131
 Frc consts  --      1.9931                 0.6794                 0.7070
 IR Inten    --     47.0832                 0.0028                 4.2138

                     40                     41                     42
                      A                      A                      A
 Frequencies --    984.0450              1012.5120              1033.9082
 Red. masses --      2.0194                 1.8299                 3.0602
 Frc consts  --      1.1521                 1.1053                 1.9274
 IR Inten    --     10.7435                57.6932                80.3754

                     43                     44                     45
                      A                      A                      A
 Frequencies --   1044.8444              1045.9310              1076.9088
 Red. masses --      1.5014                 1.5052                 2.0028
 Frc consts  --      0.9657                 0.9701                 1.3685
 IR Inten    --      0.0070                 0.6500                 0.2135

                     46                     47                     48
                      A                      A                      A
 Frequencies --   1081.5583              1117.9669              1152.3170
 Red. masses --      1.8955                 1.5327                 1.1963
 Frc consts  --      1.3064                 1.1286                 0.9359
 IR Inten    --    243.3544               174.6665                 0.3743

                     49                     50                     51
                      A                      A                      A
 Frequencies --   1157.2658              1202.3585              1220.8643
 Red. masses --      3.6988                 2.8887                 4.8005
 Frc consts  --      2.9186                 2.4605                 4.2157
 IR Inten    --     90.7416               126.4275                27.7101

                     52                     53                     54
                      A                      A                      A
 Frequencies --   1227.1480              1229.4525              1310.3289
 Red. masses --      2.2640                 2.2312                 6.2703
 Frc consts  --      2.0087                 1.9871                 6.3431
 IR Inten    --     36.8482               119.4044                31.1579

                     55                     56                     57
                      A                      A                      A
 Frequencies --   1328.5735              1345.2573              1352.7607
 Red. masses --      5.5340                 2.4037                 3.2496
 Frc consts  --      5.7552                 2.5630                 3.5037
 IR Inten    --    348.7630                 0.3443               857.2347

                     58                     59                     60
                      A                      A                      A
 Frequencies --   1399.5751              1399.9970              1404.7236
 Red. masses --      1.4632                 1.4357                 2.2242
 Frc consts  --      1.6887                 1.6580                 2.5859
 IR Inten    --     34.8709                33.3263                40.1550

                     61                     62                     63
                      A                      A                      A
 Frequencies --   1409.2382              1442.2480              1442.5511
 Red. masses --      2.0615                 1.0490                 1.0489
 Frc consts  --      2.4122                 1.2855                 1.2860
 IR Inten    --     92.3482                 1.2115                 1.1578

                     64                     65                     66
                      A                      A                      A
 Frequencies --   1460.5017              1469.3962              1475.7730
 Red. masses --      2.6226                 1.2540                 3.2668
 Frc consts  --      3.2960                 1.5952                 4.1919
 IR Inten    --      0.1505                 0.2668                13.5875

                     67                     68                     69
                      A                      A                      A
 Frequencies --   1478.0107              1484.7500              1538.4549
 Red. masses --      4.8383                 1.5212                 5.8948
 Frc consts  --      6.2273                 1.9758                 8.2204
 IR Inten    --    378.4854                53.0742                98.0356

                     70                     71                     72
                      A                      A                      A
 Frequencies --   1574.4326              1581.8682              1583.2016
 Red. masses --      4.6914                 4.6107                 7.7648
 Frc consts  --      6.8518                 6.7976                11.4671
 IR Inten    --      6.7543                 0.3500                 5.2203

                     73                     74                     75
                      A                      A                      A
 Frequencies --   2955.1943              2956.9876              3068.5817
 Red. masses --      1.0565                 1.0561                 1.0767
 Frc consts  --      5.4361                 5.4406                 5.9732
 IR Inten    --    292.2724               147.6932                16.1792

                     76                     77                     78
                      A                      A                      A
 Frequencies --   3069.2606              3080.0670              3081.2244
 Red. masses --      1.0770                 1.0992                 1.0990
 Frc consts  --      5.9776                 6.1437                 6.1474
 IR Inten    --     14.2456                20.8204                 0.0148

                     79                     80                     81
                      A                      A                      A
 Frequencies --   3081.5723              3081.8308              3106.6362
 Red. masses --      1.0823                 1.0828                 1.0912
 Frc consts  --      6.0556                 6.0590                 6.2051
 IR Inten    --    112.0384                 3.1356               305.8943

                     82                     83                     84
                      A                      A                      A
 Frequencies --   3107.2412              3160.1104              3160.9938
 Red. masses --      1.0908                 1.0907                 1.0910
 Frc consts  --      6.2052                 6.4176                 6.4228
 IR Inten    --      0.6334                49.6830                23.1056

 - Thermochemistry -
 -------------------
 Temperature   298.150 Kelvin.  Pressure   1.00000 Atm.
 Atom     1 has atomic number  6 and mass  12.00000

 Molecular mass:   236.08373 amu.
 Principal axes and moments of inertia in atomic units:
                           1         2         3
     Eigenvalues --  2535.669994781.470267295.61189
           X            0.99960   0.01962   0.02025
           Y           -0.01986   0.99974   0.01161
           Z           -0.02002  -0.01200   0.99973
 This molecule is an asymmetric top.
 Rotational symmetry number  1.
 Warning -- assumption of classical behavior for rotation
           may cause significant error
 Rotational temperatures (Kelvin)      0.03416     0.01811     0.01187
 Rotational constants (GHZ):           0.71174     0.37744     0.24737
 Zero-point vibrational energy     597525.9 (Joules/Mol)
                                  142.81211 (Kcal/Mol)
 Warning -- explicit consideration of  25 degrees of freedom as
           vibrations may cause significant error
 Vibrational temperatures:     39.25    72.74   106.13   234.08   254.12
          (Kelvin)            275.53   297.64   309.12   331.88   381.27
                              455.20   492.19   500.84   554.48   558.63
                              603.09   649.05   697.78   704.53   712.48
                              782.75   788.67   797.65   882.52   888.99
                              990.97  1001.37  1009.75  1070.98  1083.07
                             1122.19  1130.33  1137.10  1147.36  1195.04
                             1321.15  1335.33  1369.97  1375.38  1415.82
                             1456.78  1487.56  1503.30  1504.86  1549.43
                             1556.12  1608.51  1657.93  1665.05  1729.93
                             1756.55  1765.59  1768.91  1885.27  1911.52
                             1935.53  1946.32  2013.68  2014.28  2021.08
                             2027.58  2075.07  2075.51  2101.34  2114.13
                             2123.31  2126.53  2136.22  2213.49  2265.26
                             2275.96  2277.87  4251.87  4254.45  4415.00
                             4415.98  4431.53  4433.19  4433.70  4434.07
                             4469.76  4470.63  4546.69  4547.97

 Zero-point correction=                           0.227586 (Hartree/Particle)
 Thermal correction to Energy=                    0.242273
 Thermal correction to Enthalpy=                  0.243217
 Thermal correction to Gibbs Free Energy=         0.185841
 Sum of electronic and zero-point Energies=           -767.337478
 Sum of electronic and thermal Energies=              -767.322791
 Sum of electronic and thermal Enthalpies=            -767.321847
 Sum of electronic and thermal Free Energies=         -767.379223

                     E (Thermal)             CV                S
                      KCal/Mol        Cal/Mol-Kelvin    Cal/Mol-Kelvin
 Total                  152.028             59.233            120.759
 Electronic               0.000              0.000              0.000
 Translational            0.889              2.981             42.279
 Rotational               0.889              2.981             32.847
 Vibrational            150.251             53.272             45.633
 Vibration     1          0.593              1.984              6.018
 Vibration     2          0.595              1.977              4.795
 Vibration     3          0.599              1.966              4.050
 Vibration     4          0.623              1.888              2.518
 Vibration     5          0.628              1.871              2.364
 Vibration     6          0.634              1.852              2.213
 Vibration     7          0.641              1.830              2.071
 Vibration     8          0.645              1.818              2.002
 Vibration     9          0.652              1.794              1.874
 Vibration    10          0.671              1.737              1.629
 Vibration    11          0.703              1.642              1.329
 Vibration    12          0.721              1.591              1.202
 Vibration    13          0.726              1.579              1.175
 Vibration    14          0.754              1.501              1.018
 Vibration    15          0.756              1.495              1.007
 Vibration    16          0.782              1.429              0.895
 Vibration    17          0.810              1.358              0.792
 Vibration    18          0.841              1.283              0.697
 Vibration    19          0.846              1.273              0.684
 Vibration    20          0.851              1.261              0.670
 Vibration    21          0.899              1.153              0.557
 Vibration    22          0.903              1.144              0.548
 Vibration    23          0.910              1.130              0.535
 Vibration    24          0.973              1.004              0.427
 Vibration    25          0.978              0.994              0.420

 Optimization completed.
    -- Stationary point found.
 Normal termination of Gaussian 16 at Wed Dec 27 21:24:01 2023.
