 Q-Chem 5.4, Q-Chem, Inc., Pleasanton, CA (2021)
 Q-Chem 5.4.0 for Intel X86 EM64T Linux

User input:
--------------------------------------------------------------
$molecule
-2 1
C                 -1.3502310000      2.0065570000      0.7882860000
C                 -2.5863810000      1.4302110000      0.2961270000
C                 -2.6141120000      0.2205830000     -0.3960320000
C                 -1.4664350000     -0.5741560000     -0.6991960000
C                 -0.2119690000     -0.0316940000     -0.2136320000
C                 -0.2240510000      1.1797220000      0.4813460000
O                 -1.5351390000     -1.6924350000     -1.3516510000
H                 -3.5599730000     -0.1824770000     -0.7506980000
O                 -1.3062270000      3.1215560000      1.4284740000
I                  1.6558960000      2.0167180000      1.2258770000
C                  1.0348090000     -0.8253920000     -0.4995740000
C                 -3.8439100000      2.2339930000      0.5944290000
C                 -3.9477130000      3.4628950000     -0.3349520000
C                 -5.1505140000      1.4284400000      0.5562290000
H                  0.7354080000     -1.7177190000     -1.0550440000
H                  1.5562290000     -1.1270700000      0.4195850000
H                  1.7624580000     -0.2543410000     -1.0931290000
H                 -3.7145190000      2.6345990000      1.6092430000
H                 -4.8085170000      4.0975700000     -0.0666020000
H                 -4.0710670000      3.1444160000     -1.3777040000
H                 -3.0343270000      4.0544950000     -0.2499580000
H                 -5.9974510000      2.0509890000      0.8742750000
H                 -5.0990440000      0.5553920000      1.2146940000
H                 -5.3724200000      1.0633180000     -0.4533300000
$end
$rem
MAX_SCF_CYCLES=200
BASIS  =  6-311++G(d,p)
GUI  =  2
JOB_TYPE  =  SP
METHOD  =  B3LYP
SOLVENT_METHOD = PCM
$end
$pcm
theory = CPCM
$end
$solvent
dielectric 37.219
opticaldielectric 1.43
$end

--------------------------------------------------------------

             Standard Nuclear Orientation (Angstroms)
    I     Atom           X                Y                Z
 ----------------------------------------------------------------
    1      C      -1.3502310000     2.0065570000     0.7882860000
    2      C      -2.5863810000     1.4302110000     0.2961270000
    3      C      -2.6141120000     0.2205830000    -0.3960320000
    4      C      -1.4664350000    -0.5741560000    -0.6991960000
    5      C      -0.2119690000    -0.0316940000    -0.2136320000
    6      C      -0.2240510000     1.1797220000     0.4813460000
    7      O      -1.5351390000    -1.6924350000    -1.3516510000
    8      H      -3.5599730000    -0.1824770000    -0.7506980000
    9      O      -1.3062270000     3.1215560000     1.4284740000
   10      I       1.6558960000     2.0167180000     1.2258770000
   11      C       1.0348090000    -0.8253920000    -0.4995740000
   12      C      -3.8439100000     2.2339930000     0.5944290000
   13      C      -3.9477130000     3.4628950000    -0.3349520000
   14      C      -5.1505140000     1.4284400000     0.5562290000
   15      H       0.7354080000    -1.7177190000    -1.0550440000
   16      H       1.5562290000    -1.1270700000     0.4195850000
   17      H       1.7624580000    -0.2543410000    -1.0931290000
   18      H      -3.7145190000     2.6345990000     1.6092430000
   19      H      -4.8085170000     4.0975700000    -0.0666020000
   20      H      -4.0710670000     3.1444160000    -1.3777040000
   21      H      -3.0343270000     4.0544950000    -0.2499580000
   22      H      -5.9974510000     2.0509890000     0.8742750000
   23      H      -5.0990440000     0.5553920000     1.2146940000
   24      H      -5.3724200000     1.0633180000    -0.4533300000
 ----------------------------------------------------------------

   10   -7458.0538860705      3.27e-06  Convergence criterion met
 Total energy in the final basis set =    -7458.0538860705

                    Orbital Energies (a.u.)
 --------------------------------------------------------------

 Alpha MOs
 -- Occupied --
********-176.2656-165.6689-165.6674-165.6673 -35.7620 -31.2541 -31.2499
-31.2495 -22.9049 -22.9040 -22.9038 -22.9008 -22.9008 -19.0200 -19.0165
-10.1760 -10.1704 -10.1683 -10.1520 -10.1410 -10.1383 -10.1378 -10.1372
-10.1320 -10.1196  -6.3113  -4.7211  -4.7107  -4.7099  -1.9872  -1.9840
 -1.9835  -1.9744  -1.9743  -0.9391  -0.9301  -0.7977  -0.7730  -0.7185
 -0.6758  -0.6654  -0.6358  -0.6109  -0.5710  -0.5189  -0.5050  -0.4557
 -0.4320  -0.4209  -0.4059  -0.3974  -0.3883  -0.3746  -0.3682  -0.3609
 -0.3493  -0.3453  -0.3390  -0.3245  -0.3192  -0.3133  -0.3051  -0.2942
 -0.2589  -0.2412  -0.2251  -0.2029  -0.2005  -0.1949  -0.1194

          Ground-State Mulliken Net Atomic Charges

     Atom                 Charge (a.u.)
  ----------------------------------------
      1 C                    -0.807610
      2 C                     0.919451
      3 C                    -0.346936
      4 C                    -1.000606
      5 C                     0.772995
      6 C                     0.058015
      7 O                    -0.739601
      8 H                     0.123407
      9 O                    -0.632697
     10 I                    -0.197961
     11 C                    -0.435124
     12 C                     0.126698
     13 C                    -0.722600
     14 C                    -0.580441
     15 H                     0.162570
     16 H                     0.132586
     17 H                     0.132028
     18 H                     0.163011
     19 H                     0.127892
     20 H                     0.136204
     21 H                     0.173149
     22 H                     0.163595
     23 H                     0.132223
     24 H                     0.139752
  ----------------------------------------
  Sum of atomic charges =    -2.000000

                    Cartesian Multipole Moments
 -----------------------------------------------------------------
    Charge (ESU x 10^10)
                -9.6064
    Dipole Moment (Debye)
         X       9.7245      Y      -8.0360      Z      -1.4705
       Tot      12.7006
    Quadrupole Moments (Debye-Ang)
        XX    -134.8496     XY       1.3169     YY    -165.0092
        XZ      -4.9238     YZ     -27.9640     ZZ    -128.2048

 Total job time:  38.60s(wall), 260.45s(cpu)
        *  Thank you very much for using Q-Chem.  Have a nice day.  *
