 Q-Chem 5.4, Q-Chem, Inc., Pleasanton, CA (2021)
 Q-Chem 5.4.0 for Intel X86 EM64T Linux

User input:
--------------------------------------------------------------
$molecule
-1 2
I                 -2.7979160000     -2.0528820000      0.0039920000
C                 -1.1199340000     -0.7442720000      0.0007270000
C                 -1.3190510000      0.6057140000     -0.0163020000
C                 -0.2050890000      1.5362930000     -0.0191900000
O                 -0.3714510000      2.7839410000     -0.0348410000
C                  1.1137200000      0.9305440000     -0.0029220000
C                  1.2760040000     -0.4245960000      0.0139190000
I                  3.2384270000     -1.2464600000      0.0372550000
C                  0.1864610000     -1.3959120000      0.0175190000
O                  0.3509680000     -2.6322970000      0.0329200000
H                 -2.3132210000      1.0349790000     -0.0282860000
H                  1.9610800000      1.6049480000     -0.0047900000
$end
$rem
MAX_SCF_CYCLES=200
BASIS  =  6-311++G(d,p)
GUI  =  2
JOB_TYPE  =  SP
METHOD  =  B3LYP
SOLVENT_METHOD = PCM
$end
$pcm
theory = CPCM
$end
$solvent
dielectric 37.219
opticaldielectric 1.43
$end

--------------------------------------------------------------

             Standard Nuclear Orientation (Angstroms)
    I     Atom           X                Y                Z
 ----------------------------------------------------------------
    1      I      -2.7979160000    -2.0528820000     0.0039920000
    2      C      -1.1199340000    -0.7442720000     0.0007270000
    3      C      -1.3190510000     0.6057140000    -0.0163020000
    4      C      -0.2050890000     1.5362930000    -0.0191900000
    5      O      -0.3714510000     2.7839410000    -0.0348410000
    6      C       1.1137200000     0.9305440000    -0.0029220000
    7      C       1.2760040000    -0.4245960000     0.0139190000
    8      I       3.2384270000    -1.2464600000     0.0372550000
    9      C       0.1864610000    -1.3959120000     0.0175190000
   10      O       0.3509680000    -2.6322970000     0.0329200000
   11      H      -2.3132210000     1.0349790000    -0.0282860000
   12      H       1.9610800000     1.6049480000    -0.0047900000
 ----------------------------------------------------------------

    9  -14219.5629896812      6.98e-06  Convergence criterion met
 Total energy in the final basis set =   -14219.5629896812

                    Orbital Energies (a.u.)
 --------------------------------------------------------------

 Alpha MOs
 -- Occupied --
*****************-176.2943-176.2943-165.6979-165.6979-165.6960-165.6960
********-165.6959 -35.7907 -35.7907 -31.2835 -31.2835 -31.2782 -31.2782
-31.2779 -31.2779 -22.9342 -22.9341 -22.9329 -22.9329 -22.9327 -22.9327
-22.9290 -22.9290 -22.9290 -22.9290 -19.0979 -19.0943 -10.2505 -10.2386
-10.2228 -10.2228 -10.1823 -10.1823  -6.3400  -6.3400  -4.7514  -4.7514
 -4.7384  -4.7384  -4.7378  -4.7377  -2.0175  -2.0174  -2.0133  -2.0132
 -2.0129  -2.0128  -2.0016  -2.0016  -2.0016  -2.0015  -1.0278  -1.0164
 -0.8486  -0.7765  -0.7100  -0.6601  -0.6507  -0.5753  -0.5684  -0.4994
 -0.4850  -0.4348  -0.4322  -0.4164  -0.4126  -0.3952  -0.3768  -0.3491
 -0.3172  -0.3135  -0.2748  -0.2671  -0.2626  -0.2600  -0.2481  -0.2436
 -0.1796

 Beta MOs
 -- Occupied --
*****************-176.2943-176.2943-165.6979-165.6979-165.6960-165.6960
********-165.6959 -35.7907 -35.7907 -31.2836 -31.2835 -31.2782 -31.2782
-31.2779 -31.2779 -22.9342 -22.9341 -22.9329 -22.9329 -22.9327 -22.9327
-22.9290 -22.9290 -22.9290 -22.9290 -19.0913 -19.0871 -10.2490 -10.2375
-10.2218 -10.2218 -10.1810 -10.1810  -6.3400  -6.3400  -4.7515  -4.7514
 -4.7384  -4.7384  -4.7378  -4.7377  -2.0176  -2.0175  -2.0133  -2.0132
 -2.0130  -2.0128  -2.0016  -2.0016  -2.0016  -2.0015  -1.0162  -1.0038
 -0.8423  -0.7738  -0.7003  -0.6579  -0.6482  -0.5724  -0.5642  -0.4971
 -0.4806  -0.4276  -0.4133  -0.4119  -0.4113  -0.3743  -0.3661  -0.3471
 -0.3123  -0.2888  -0.2720  -0.2669  -0.2544  -0.2508  -0.2440  -0.2391

          Ground-State Mulliken Net Atomic Charges

     Atom                 Charge (a.u.)    Spin (a.u.)
  --------------------------------------------------------
      1 I                    -0.049365      -0.000066
      2 C                     1.294615       0.087868
      3 C                    -0.525877       0.083507
      4 C                    -0.152578       0.123652
      5 O                    -0.493197       0.252123
      6 C                    -0.509594       0.083969
      7 C                     1.260924       0.087804
      8 I                    -0.045462      -0.000038
      9 C                    -1.824925       0.055384
     10 O                    -0.354524       0.240443
     11 H                     0.199670      -0.007304
     12 H                     0.200314      -0.007340
  --------------------------------------------------------
  Sum of atomic charges =    -1.000000

                    Cartesian Multipole Moments
 -----------------------------------------------------------------
    Charge (ESU x 10^10)
                -4.8032
    Dipole Moment (Debye)
         X      -0.2307      Y       1.7835      Z      -0.0220
       Tot       1.7985
    Quadrupole Moments (Debye-Ang)
        XX    -111.8934     XY       4.4897     YY    -145.0098
        XZ      -0.0889     YZ       0.4727     ZZ    -106.8253

 Total job time:  20.04s(wall), 124.53s(cpu)
        *  Thank you very much for using Q-Chem.  Have a nice day.  *
