 Q-Chem 5.4, Q-Chem, Inc., Pleasanton, CA (2021)
 Q-Chem 5.4.0 for Intel X86 EM64T Linux

User input:
--------------------------------------------------------------
$molecule
-2 1
C                  0.2766900000      1.7404340000     -1.6724990000
C                 -1.0846940000      2.0313650000     -2.0699640000
C                 -1.9822750000      1.0631570000     -2.4480130000
C                 -1.6752920000     -0.3593010000     -2.5023770000
C                 -0.3464300000     -0.6526320000     -2.1374850000
C                  0.6289480000      0.3288860000     -1.7465610000
O                  1.0515070000      2.6774790000     -1.2739970000
O                 -2.5768330000     -1.2168280000     -2.8645070000
C                  3.1125020000      0.8208670000     -1.1358510000
C                  4.0898890000      1.0058510000     -2.1191110000
C                  3.3423260000      1.3434490000      0.1528380000
C                  4.5334720000      2.0276490000      0.4069080000
C                  5.2645510000      1.7128440000     -1.8623040000
C                  5.4958130000      2.2244280000     -0.5868960000
H                 -1.3743680000      3.0815940000     -2.0388880000
H                 -2.9986340000      1.3432490000     -2.7312540000
H                 -0.0230450000     -1.6882370000     -2.1643280000
H                  3.9149800000      0.5856790000     -3.1043000000
H                  4.7031810000      2.4315030000      1.4032590000
H                  5.9981260000      1.8565870000     -2.6527280000
H                  6.4095030000      2.7709630000     -0.3659650000
C                  1.9616270000     -0.1291810000     -1.4526820000
O                  2.3253480000     -1.3320630000     -1.4726900000
C                  2.2874210000      1.2209790000      1.2203660000
H                  1.9228800000      0.1938260000      1.3098270000
H                  1.4397810000      1.8518300000      0.9313410000
H                  2.6701570000      1.5463820000      2.1946690000
$end

$rem
BASIS  =  6-311++G(d,p)
GUI  =  2
JOB_TYPE  =  SP
METHOD  =  B3LYP
SCF_CONVERGENCE  = 8
SOLVENT_METHOD = sm12
$end

$smx
solvent dimethylformamide
charges CM5
$end

--------------------------------------------------------------

             Standard Nuclear Orientation (Angstroms)
    I     Atom           X                Y                Z
 ----------------------------------------------------------------
    1      C       0.2766900000     1.7404340000    -1.6724990000
    2      C      -1.0846940000     2.0313650000    -2.0699640000
    3      C      -1.9822750000     1.0631570000    -2.4480130000
    4      C      -1.6752920000    -0.3593010000    -2.5023770000
    5      C      -0.3464300000    -0.6526320000    -2.1374850000
    6      C       0.6289480000     0.3288860000    -1.7465610000
    7      O       1.0515070000     2.6774790000    -1.2739970000
    8      O      -2.5768330000    -1.2168280000    -2.8645070000
    9      C       3.1125020000     0.8208670000    -1.1358510000
   10      C       4.0898890000     1.0058510000    -2.1191110000
   11      C       3.3423260000     1.3434490000     0.1528380000
   12      C       4.5334720000     2.0276490000     0.4069080000
   13      C       5.2645510000     1.7128440000    -1.8623040000
   14      C       5.4958130000     2.2244280000    -0.5868960000
   15      H      -1.3743680000     3.0815940000    -2.0388880000
   16      H      -2.9986340000     1.3432490000    -2.7312540000
   17      H      -0.0230450000    -1.6882370000    -2.1643280000
   18      H       3.9149800000     0.5856790000    -3.1043000000
   19      H       4.7031810000     2.4315030000     1.4032590000
   20      H       5.9981260000     1.8565870000    -2.6527280000
   21      H       6.4095030000     2.7709630000    -0.3659650000
   22      C       1.9616270000    -0.1291810000    -1.4526820000
   23      O       2.3253480000    -1.3320630000    -1.4726900000
   24      C       2.2874210000     1.2209790000     1.2203660000
   25      H       1.9228800000     0.1938260000     1.3098270000
   26      H       1.4397810000     1.8518300000     0.9313410000
   27      H       2.6701570000     1.5463820000     2.1946690000
 ----------------------------------------------------------------

   18    -765.3582007129      7.00e-09  Convergence criterion met
 Total energy in the final basis set =     -765.6434008187

                    Orbital Energies (a.u.)
 --------------------------------------------------------------

 Alpha MOs
 -- Occupied --
-19.0801 -19.0435 -19.0232 -10.2319 -10.2066 -10.1878 -10.1868 -10.1832
-10.1806 -10.1800 -10.1785 -10.1776 -10.1680 -10.1644 -10.1581 -10.1481
-10.1330  -1.0011  -0.9625  -0.9344  -0.8628  -0.8011  -0.7791  -0.7584
 -0.7338  -0.6920  -0.6719  -0.6341  -0.6020  -0.5904  -0.5634  -0.5337
 -0.4931  -0.4748  -0.4627  -0.4511  -0.4469  -0.4358  -0.4225  -0.4174
 -0.4119  -0.4020  -0.3923  -0.3848  -0.3707  -0.3616  -0.3575  -0.3542
 -0.3477  -0.3382  -0.3350  -0.3262  -0.2648  -0.2526  -0.2477  -0.2339
 -0.2276  -0.2087  -0.1993  -0.1394

          Ground-State Mulliken Net Atomic Charges

     Atom                 Charge (a.u.)
  ----------------------------------------
      1 C                    -0.944776
      2 C                     0.161714
      3 C                     0.035931
      4 C                    -1.563190
      5 C                    -1.470981
      6 C                    -1.028923
      7 O                    -0.210059
      8 O                    -0.448125
      9 C                    -0.076304
     10 C                    -0.490965
     11 C                     0.136668
     12 C                     0.914874
     13 C                     0.810309
     14 C                     1.430380
     15 H                     0.199590
     16 H                     0.155591
     17 H                    -0.082864
     18 H                     0.144287
     19 H                     0.354565
     20 H                     0.392232
     21 H                     0.436643
     22 C                    -0.732400
     23 O                    -0.281495
     24 C                    -0.261800
     25 H                     0.052266
     26 H                     0.079290
     27 H                     0.287543
  ----------------------------------------
  Sum of atomic charges =    -2.000000

                    Cartesian Multipole Moments
 -----------------------------------------------------------------
    Charge (ESU x 10^10)
                -9.6064
    Dipole Moment (Debye)
         X       0.3222      Y      -1.0335      Z      18.8772
       Tot      18.9082
    Quadrupole Moments (Debye-Ang)
        XX    -161.9901     XY     -11.8634     YY    -144.8698
        XZ     -18.3239     YZ      -4.7443     ZZ    -150.3278

 Total job time:  690.42s(wall), 5303.87s(cpu)
        *  Thank you very much for using Q-Chem.  Have a nice day.  *
