 Gaussian 16, Revision A.03,
 Gaussian 16:  ES64L-G16RevA.03 25-Dec-2016

 ----------------------------------------------
 #P UB3LYP/6-311++G(d,p) nosym opt freq SCF=YQC
 ----------------------------------------------

 -------
 Reduced
 -------
 Symbolic Z-matrix:
 Charge = -2 Multiplicity = 1

 SCF Done:  E(UB3LYP) =  -765.367932943     a.u. after    7 cycles
 SCF Done:  E(UB3LYP) =  -765.368128134     A.U. after   33 cycles
 SCF Done:  E(UB3LYP) =  -765.368136596     a.u. after    5 cycles
 Optimization completed.
    -- Stationary point found.
 Normal termination of Gaussian 16 at Wed Jan 10 16:54:42 2024.

 ----------------------------------------------------------------------
 #P Geom=AllCheck Guess=TCheck SCRF=Check GenChk UB3LYP/6-311++G(d,p) F
 req
 ----------------------------------------------------------------------

 Structure from the checkpoint file:  "077-an.chk"
 -------
 Reduced
 -------
 Charge = -2 Multiplicity = 1

                          Input orientation:
 ---------------------------------------------------------------------
 Center     Atomic      Atomic             Coordinates (Angstroms)
 Number     Number       Type             X           Y           Z
 ---------------------------------------------------------------------
      1          6           0        0.276690    1.740434   -1.672499
      2          6           0       -1.084694    2.031365   -2.069964
      3          6           0       -1.982275    1.063157   -2.448013
      4          6           0       -1.675292   -0.359301   -2.502377
      5          6           0       -0.346430   -0.652632   -2.137485
      6          6           0        0.628948    0.328886   -1.746561
      7          8           0        1.051507    2.677479   -1.273997
      8          8           0       -2.576833   -1.216828   -2.864507
      9          6           0        3.112502    0.820867   -1.135851
     10          6           0        4.089889    1.005851   -2.119111
     11          6           0        3.342326    1.343449    0.152838
     12          6           0        4.533472    2.027649    0.406908
     13          6           0        5.264551    1.712844   -1.862304
     14          6           0        5.495813    2.224428   -0.586896
     15          1           0       -1.374368    3.081594   -2.038888
     16          1           0       -2.998634    1.343249   -2.731254
     17          1           0       -0.023045   -1.688237   -2.164328
     18          1           0        3.914980    0.585679   -3.104300
     19          1           0        4.703181    2.431503    1.403259
     20          1           0        5.998126    1.856587   -2.652728
     21          1           0        6.409503    2.770963   -0.365965
     22          6           0        1.961627   -0.129181   -1.452682
     23          8           0        2.325348   -1.332063   -1.472690
     24          6           0        2.287421    1.220979    1.220366
     25          1           0        1.922880    0.193826    1.309827
     26          1           0        1.439781    1.851830    0.931341
     27          1           0        2.670157    1.546382    2.194669
 ---------------------------------------------------------------------

 SCF Done:  E(UB3LYP) =  -765.368136596     a.u. after    1 cycles
 SCF Done:  E(UB3LYP) =  -765.368136596     A.U. after   14 cycles

 Alpha  occ. eigenvalues --  -18.82800 -18.78925 -18.75709  -9.98036  -9.96760
 Alpha  occ. eigenvalues --   -9.96553  -9.96470  -9.96305  -9.95521  -9.95431
 Alpha  occ. eigenvalues --   -9.94807  -9.94557  -9.92181  -9.90016  -9.89379
 Alpha  occ. eigenvalues --   -9.88887  -9.86556  -0.75057  -0.70652  -0.66824
 Alpha  occ. eigenvalues --   -0.64277  -0.55892  -0.53941  -0.53412  -0.47664
 Alpha  occ. eigenvalues --   -0.46946  -0.41454  -0.39657  -0.37575  -0.35012
 Alpha  occ. eigenvalues --   -0.30595  -0.29911  -0.26457  -0.25347  -0.22731
 Alpha  occ. eigenvalues --   -0.20566  -0.20381  -0.19743  -0.18737  -0.18143
 Alpha  occ. eigenvalues --   -0.17500  -0.15960  -0.14810  -0.13953  -0.13577
 Alpha  occ. eigenvalues --   -0.12849  -0.11899  -0.11011  -0.09097  -0.08570
 Alpha  occ. eigenvalues --   -0.07163  -0.06451  -0.03925  -0.02915   0.01524
 Alpha  occ. eigenvalues --    0.01707   0.02805   0.04415   0.06555   0.12435
 Alpha virt. eigenvalues --    0.13712   0.15593   0.16663   0.18690   0.18892
 Alpha virt. eigenvalues --    0.19728   0.19905   0.20446   0.20772   0.21322
 Alpha virt. eigenvalues --    0.22199   0.22666   0.23220   0.23674   0.25241

  Beta  occ. eigenvalues --  -18.82800 -18.78925 -18.75709  -9.98036  -9.96760
  Beta  occ. eigenvalues --   -9.96553  -9.96470  -9.96305  -9.95521  -9.95431
  Beta  occ. eigenvalues --   -9.94807  -9.94557  -9.92181  -9.90016  -9.89379
  Beta  occ. eigenvalues --   -9.88887  -9.86556  -0.75057  -0.70652  -0.66824
  Beta  occ. eigenvalues --   -0.64277  -0.55892  -0.53941  -0.53412  -0.47664
  Beta  occ. eigenvalues --   -0.46946  -0.41454  -0.39657  -0.37575  -0.35012
  Beta  occ. eigenvalues --   -0.30595  -0.29911  -0.26457  -0.25347  -0.22731
  Beta  occ. eigenvalues --   -0.20566  -0.20381  -0.19743  -0.18737  -0.18143
  Beta  occ. eigenvalues --   -0.17500  -0.15960  -0.14810  -0.13953  -0.13577
  Beta  occ. eigenvalues --   -0.12849  -0.11899  -0.11011  -0.09097  -0.08570
  Beta  occ. eigenvalues --   -0.07163  -0.06451  -0.03925  -0.02915   0.01524
  Beta  occ. eigenvalues --    0.01707   0.02805   0.04415   0.06555   0.12435
  Beta virt. eigenvalues --    0.13712   0.15593   0.16663   0.18690   0.18892
  Beta virt. eigenvalues --    0.19728   0.19905   0.20446   0.20772   0.21322
  Beta virt. eigenvalues --    0.22199   0.22666   0.23220   0.23674   0.25241

 Mulliken charges and spin densities:
               1          2
     1  C   -1.520690  -0.000000
     2  C   -0.091415   0.000000
     3  C    0.158144  -0.000000
     4  C   -0.931756  -0.000000
     5  C    0.281350   0.000000
     6  C    1.463765   0.000000
     7  O   -0.396917   0.000000
     8  O   -0.578236   0.000000
     9  C    0.734609  -0.000000
    10  C   -0.197083   0.000000
    11  C    0.881337  -0.000000
    12  C   -0.330512   0.000000
    13  C   -0.376927  -0.000000
    14  C   -0.073086   0.000000
    15  H    0.082182   0.000000
    16  H    0.078342   0.000000
    17  H    0.137593   0.000000
    18  H    0.159390   0.000000
    19  H    0.087507  -0.000000
    20  H    0.012222   0.000000
    21  H   -0.034034   0.000000
    22  C   -0.968516   0.000000
    23  O   -0.330102  -0.000000
    24  C   -0.693292  -0.000000
    25  H    0.144966  -0.000000
    26  H    0.207983  -0.000000
    27  H    0.093173  -0.000000
 Sum of Mulliken charges =  -2.00000   0.00000

 Dipole moment (field-independent basis, Debye):
    X=             -4.4260    Y=             -2.6973    Z=             17.8867  Tot=             18.6225
 Quadrupole moment (field-independent basis, Debye-Ang):
   XX=           -188.9705   YY=           -148.4911   ZZ=           -149.6422
   XY=            -23.0115   XZ=            -13.1969   YZ=             -3.6098

  Exact polarizability:5733.8851994.904 939.210 545.458 220.537 293.540
 Approx polarizability:1891.468 469.966 566.122 138.099  64.547 311.375

                      1                      2                      3
                      A                      A                      A
 Frequencies --     23.2477                42.3738                80.6645
 Red. masses --      6.8324                 5.1894                 5.3526
 Frc consts  --      0.0022                 0.0055                 0.0205
 IR Inten    --      3.6581                24.5363                17.4323

                      4                      5                      6
                      A                      A                      A
 Frequencies --     92.6034               143.1835               153.5318
 Red. masses --      6.1636                 4.1937                 6.8740
 Frc consts  --      0.0311                 0.0507                 0.0955
 IR Inten    --    102.7725              1806.0452               602.6896

                      7                      8                      9
                      A                      A                      A
 Frequencies --    175.4869               181.4363               213.3321
 Red. masses --      1.6247                 2.6634                 3.2290
 Frc consts  --      0.0295                 0.0517                 0.0866
 IR Inten    --    166.0142               474.8688               197.4987

                     10                     11                     12
                      A                      A                      A
 Frequencies --    241.5251               327.4717               328.2575
 Red. masses --      4.7578                 6.4996                 5.9073
 Frc consts  --      0.1635                 0.4107                 0.3750
 IR Inten    --    591.8313              1137.2329                14.5622

                     13                     14                     15
                      A                      A                      A
 Frequencies --    350.7957               384.9726               397.4694
 Red. masses --      6.1501                 4.0170                 6.0550
 Frc consts  --      0.4459                 0.3508                 0.5636
 IR Inten    --   5651.9617              5509.5091              4474.8580

                     16                     17                     18
                      A                      A                      A
 Frequencies --    443.2721               446.7307               465.6895
 Red. masses --      4.4469                 4.4529                 3.6175
 Frc consts  --      0.5148                 0.5236                 0.4622
 IR Inten    --   2093.4696               676.5532               341.7713

                     19                     20                     21
                      A                      A                      A
 Frequencies --    535.2148               555.7433               565.6476
 Red. masses --      4.6152                 2.7737                 3.5098
 Frc consts  --      0.7789                 0.5047                 0.6617
 IR Inten    --    340.4577                 9.8538                70.2851

                     22                     23                     24
                      A                      A                      A
 Frequencies --    614.3132               631.0021               687.2228
 Red. masses --      6.1783                 4.7401                 6.4285
 Frc consts  --      1.3737                 1.1120                 1.7888
 IR Inten    --   1008.2940               887.7683               166.2926

                     25                     26                     27
                      A                      A                      A
 Frequencies --    715.9828               719.3357               740.6381
 Red. masses --      1.9979                 2.1550                 3.0317
 Frc consts  --      0.6034                 0.6570                 0.9798
 IR Inten    --    865.6379                13.9734              1411.1173

                     28                     29                     30
                      A                      A                      A
 Frequencies --    771.6456               799.0244               814.6355
 Red. masses --      2.9966                 4.4604                 4.8282
 Frc consts  --      1.0513                 1.6778                 1.8878
 IR Inten    --    167.9400               134.7962               119.2521

                     31                     32                     33
                      A                      A                      A
 Frequencies --    826.7542               832.2014               840.7881
 Red. masses --      2.5749                 1.9192                 1.7016
 Frc consts  --      1.0369                 0.7831                 0.7087
 IR Inten    --     38.5283               124.3511              1253.2233

                     34                     35                     36
                      A                      A                      A
 Frequencies --    851.6154               911.6816               929.8332
 Red. masses --      3.5112                 1.3913                 1.2827
 Frc consts  --      1.5003                 0.6813                 0.6534
 IR Inten    --    631.4626                16.2925                90.4961

                     37                     38                     39
                      A                      A                      A
 Frequencies --    944.2942               968.3805              1008.1948
 Red. masses --      1.2961                 2.8895                 1.6137
 Frc consts  --      0.6810                 1.5965                 0.9664
 IR Inten    --    322.8209              1925.9362               714.3143

                     40                     41                     42
                      A                      A                      A
 Frequencies --   1044.6805              1050.9780              1074.7691
 Red. masses --      2.1111                 1.7035                 2.1922
 Frc consts  --      1.3575                 1.1086                 1.4920
 IR Inten    --  10237.6967              1525.2814              5508.7745

                     43                     44                     45
                      A                      A                      A
 Frequencies --   1113.5197              1138.8133              1162.3412
 Red. masses --      1.8014                 1.5211                 1.1436
 Frc consts  --      1.3160                 1.1623                 0.9103
 IR Inten    --    162.8422                90.3742              4476.0184

                     46                     47                     48
                      A                      A                      A
 Frequencies --   1180.4300              1206.7821              1220.4962
 Red. masses --      1.8501                 2.9316                 3.0091
 Frc consts  --      1.5189                 2.5154                 2.6410
 IR Inten    --   7666.1222              9384.5262              1679.5536

                     49                     50                     51
                      A                      A                      A
 Frequencies --   1272.4941              1291.2653              1306.9834
 Red. masses --      4.0253                 1.8745                 2.7459
 Frc consts  --      3.8402                 1.8415                 2.7636
 IR Inten    --    718.4972              3472.1907               575.1334

                     52                     53                     54
                      A                      A                      A
 Frequencies --   1325.6560              1368.0129              1376.5734
 Red. masses --      4.0522                 2.9784                 2.6024
 Frc consts  --      4.1957                 3.2840                 2.9055
 IR Inten    --   4007.8065             13454.9626              8116.1788

                     55                     56                     57
                      A                      A                      A
 Frequencies --   1401.1078              1436.6840              1457.9821
 Red. masses --      2.1982                 4.6840                 1.9982
 Frc consts  --      2.5426                 5.6963                 2.5027
 IR Inten    --  21114.4442              8572.0023               388.5269

                     58                     59                     60
                      A                      A                      A
 Frequencies --   1467.4348              1486.9593              1489.7101
 Red. masses --      1.3982                 3.1142                 3.0740
 Frc consts  --      1.7740                 4.0569                 4.0194
 IR Inten    --    612.2905              1436.1955               665.7793

                     61                     62                     63
                      A                      A                      A
 Frequencies --   1502.4512              1513.1690              1577.7526
 Red. masses --      1.3568                 2.5243                 5.9252
 Frc consts  --      1.8046                 3.4054                 8.6902
 IR Inten    --   1832.6302              3519.4869             10967.6129

                     64                     65                     66
                      A                      A                      A
 Frequencies --   1597.8895              1620.2506              2995.7190
 Red. masses --      5.7806                 5.6547                 1.0371
 Frc consts  --      8.6960                 8.7463                 5.4836
 IR Inten    --      4.0288                10.8878               521.3787

                     67                     68                     69
                      A                      A                      A
 Frequencies --   3059.6661              3071.4637              3076.3303
 Red. masses --      1.0998                 1.0836                 1.0989
 Frc consts  --      6.0662                 6.0231                 6.1276
 IR Inten    --    268.4128               603.7073               135.0301

                     70                     71                     72
                      A                      A                      A
 Frequencies --   3102.1398              3104.2961              3115.2349
 Red. masses --      1.0868                 1.0887                 1.0883
 Frc consts  --      6.1623                 6.1815                 6.2229
 IR Inten    --   3807.5904               738.2926               738.9594

                     73                     74                     75
                      A                      A                      A
 Frequencies --   3137.1006              3156.9062              3161.3268
 Red. masses --      1.0946                 1.0867                 1.0922
 Frc consts  --      6.3470                 6.3812                 6.4313
 IR Inten    --   1026.5060               442.6798               167.6514

 - Thermochemistry -
 -------------------
 Temperature   298.150 Kelvin.  Pressure   1.00000 Atm.
 Atom     1 has atomic number  6 and mass  12.00000

 Molecular mass:   226.06299 amu.
 Principal axes and moments of inertia in atomic units:
                           1         2         3
     Eigenvalues --  1622.444996337.129626806.48148
           X            0.92685  -0.32486  -0.18817
           Y            0.24754   0.90566  -0.34425
           Z            0.28225   0.27249   0.91983
 This molecule is an asymmetric top.
 Rotational symmetry number  1.
 Warning -- assumption of classical behavior for rotation
           may cause significant error
 Rotational temperatures (Kelvin)      0.05338     0.01367     0.01273
 Rotational constants (GHZ):           1.11236     0.28479     0.26515
 Zero-point vibrational energy     516915.7 (Joules/Mol)
                                  123.54583 (Kcal/Mol)
 Warning -- explicit consideration of  22 degrees of freedom as
           vibrations may cause significant error
 Vibrational temperatures:     33.45    60.97   116.06   133.24   206.01
          (Kelvin)            220.90   252.49   261.05   306.94   347.50
                              471.16   472.29   504.72   553.89   571.87
                              637.77   642.75   670.02   770.05   799.59
                              813.84   883.86   907.87   988.76  1030.14
                             1034.96  1065.61  1110.23  1149.62  1172.08
                             1189.51  1197.35  1209.71  1225.28  1311.71
                             1337.82  1358.63  1393.28  1450.57  1503.06
                             1512.12  1546.35  1602.11  1638.50  1672.35
                             1698.38  1736.29  1756.02  1830.84  1857.84
                             1880.46  1907.32  1968.27  1980.58  2015.88
                             2067.07  2097.71  2111.31  2139.40  2143.36
                             2161.69  2177.11  2270.03  2299.01  2331.18
                             4310.17  4402.18  4419.15  4426.15  4463.29
                             4466.39  4482.13  4513.59  4542.08  4548.44

 Zero-point correction=                           0.196883 (Hartree/Particle)
 Thermal correction to Energy=                    0.211401
 Thermal correction to Enthalpy=                  0.212345
 Thermal correction to Gibbs Free Energy=         0.154386
 Sum of electronic and zero-point Energies=           -765.171254
 Sum of electronic and thermal Energies=              -765.156736
 Sum of electronic and thermal Enthalpies=            -765.155791
 Sum of electronic and thermal Free Energies=         -765.213751

                     E (Thermal)             CV                S
                      KCal/Mol        Cal/Mol-Kelvin    Cal/Mol-Kelvin
 Total                  132.656             55.904            121.986
 Electronic               0.000              0.000              0.000
 Translational            0.889              2.981             42.149
 Rotational               0.889              2.981             32.615
 Vibrational            130.879             49.943             47.222
 Vibration     1          0.593              1.985              6.335
 Vibration     2          0.595              1.980              5.145
 Vibration     3          0.600              1.962              3.875
 Vibration     4          0.602              1.954              3.604
 Vibration     5          0.616              1.910              2.761
 Vibration     6          0.619              1.899              2.628
 Vibration     7          0.627              1.873              2.376
 Vibration     8          0.630              1.865              2.314
 Vibration     9          0.644              1.821              2.015
 Vibration    10          0.658              1.777              1.792
 Vibration    11          0.711              1.621              1.273
 Vibration    12          0.711              1.619              1.269
 Vibration    13          0.728              1.574              1.163
 Vibration    14          0.754              1.502              1.020
 Vibration    15          0.764              1.476              0.972
 Vibration    16          0.803              1.376              0.816
 Vibration    17          0.806              1.368              0.806
 Vibration    18          0.823              1.326              0.750
 Vibration    19          0.890              1.172              0.576
 Vibration    20          0.911              1.127              0.532
 Vibration    21          0.922              1.106              0.513
 Vibration    22          0.974              1.002              0.426

 Optimization completed.
    -- Stationary point found.
 Normal termination of Gaussian 16 at Wed Jan 10 17:28:51 2024.
