 Gaussian 16, Revision A.03,
 Gaussian 16:  ES64L-G16RevA.03 25-Dec-2016

 ----------------------------------------------------------------------
 #P UB3LYP/6-311++G(d,p) nosym opt freq SCRF=(PCM,Solvent=n,n-DiMethylF
 ormamide)
 ----------------------------------------------------------------------

 --------
 Oxidized
 --------
 Symbolic Z-matrix:
 Charge =  0 Multiplicity = 1

 SCF Done:  E(UB3LYP) =  -1379.47082086     A.U. after   15 cycles
 SCF Done:  E(UB3LYP) =  -1379.47089117     A.U. after   11 cycles
 SCF Done:  E(UB3LYP) =  -1379.47089957     A.U. after   10 cycles
 SCF Done:  E(UB3LYP) =  -1379.47090087     A.U. after    9 cycles
 SCF Done:  E(UB3LYP) =  -1379.47090110     A.U. after    8 cycles
 SCF Done:  E(UB3LYP) =  -1379.47090120     A.U. after    9 cycles
 SCF Done:  E(UB3LYP) =  -1379.47090143     A.U. after    8 cycles
 SCF Done:  E(UB3LYP) =  -1379.47090211     A.U. after    9 cycles
 SCF Done:  E(UB3LYP) =  -1379.47090265     A.U. after    9 cycles
 SCF Done:  E(UB3LYP) =  -1379.47090334     A.U. after    9 cycles
 SCF Done:  E(UB3LYP) =  -1379.47090399     A.U. after    9 cycles
 SCF Done:  E(UB3LYP) =  -1379.47090479     A.U. after   10 cycles
 SCF Done:  E(UB3LYP) =  -1379.47090489     A.U. after    9 cycles
 SCF Done:  E(UB3LYP) =  -1379.47090490     A.U. after    8 cycles
 Optimization completed.
    -- Stationary point found.
 Normal termination of Gaussian 16 at Sat Feb 10 10:17:25 2024.

 ----------------------------------------------------------------------
 #P Geom=AllCheck Guess=TCheck SCRF=Check GenChk UB3LYP/6-311++G(d,p) F
 req
 ----------------------------------------------------------------------

 Structure from the checkpoint file:  "017.chk"
 --------
 Oxidized
 --------
 Charge =  0 Multiplicity = 1

                          Input orientation:
 ---------------------------------------------------------------------
 Center     Atomic      Atomic             Coordinates (Angstroms)
 Number     Number       Type             X           Y           Z
 ---------------------------------------------------------------------
      1          6           0        2.563776   -0.909349   -0.142605
      2          6           0        1.315103   -0.098414   -0.006266
      3          6           0        1.258231    1.224722    0.230400
      4         17           0        2.686892    2.207016    0.415628
      5          6           0       -0.025287    1.978478    0.355758
      6          8           0       -0.049418    3.172944    0.569287
      7          6           0       -1.275008    1.180705    0.203594
      8          6           0       -1.290043   -0.143119   -0.032706
      9          6           0       -2.539791   -0.952369   -0.188261
     10          6           0        0.025731   -0.850032   -0.152653
     11          8           0        0.056613   -2.049413   -0.372002
     12         17           0       -2.752107    2.089941    0.352150
     13          1           0        2.563770   -1.720463    0.589982
     14          1           0        2.598216   -1.377678   -1.129991
     15          1           0        3.455204   -0.303402   -0.005115
     16          1           0       -3.181595   -0.839026    0.689047
     17          1           0       -3.112235   -0.606487   -1.053771
     18          1           0       -2.298050   -2.004053   -0.322474
 ---------------------------------------------------------------------

 SCF Done:  E(UB3LYP) =  -1379.47090490     A.U. after    1 cycles

 Alpha  occ. eigenvalues -- -101.57843-101.57757 -19.15608 -19.15333 -10.31013
 Alpha  occ. eigenvalues --  -10.30145 -10.27299 -10.27169 -10.23609 -10.23531
 Alpha  occ. eigenvalues --  -10.18484 -10.18373  -9.49297  -9.49214  -7.25762
 Alpha  occ. eigenvalues --   -7.25684  -7.24811  -7.24719  -7.24705  -7.24625
 Alpha  occ. eigenvalues --   -1.09269  -1.08578  -0.91996  -0.90656  -0.84174
 Alpha  occ. eigenvalues --   -0.80958  -0.75736  -0.70807  -0.68783  -0.61006
 Alpha  occ. eigenvalues --   -0.60786  -0.56392  -0.50977  -0.48689  -0.48430
 Alpha  occ. eigenvalues --   -0.46195  -0.46151  -0.44571  -0.44552  -0.44101
 Alpha  occ. eigenvalues --   -0.42854  -0.40961  -0.40474  -0.39514  -0.38243
 Alpha  occ. eigenvalues --   -0.36831  -0.34316  -0.33456  -0.31062  -0.30235
 Alpha  occ. eigenvalues --   -0.29543  -0.27789
 Alpha virt. eigenvalues --   -0.14531  -0.03759  -0.02055  -0.01375   0.00087
 Alpha virt. eigenvalues --    0.00281   0.01960   0.02034   0.03003   0.03390
 Alpha virt. eigenvalues --    0.04365   0.04420   0.04718   0.06219   0.06232

  Beta  occ. eigenvalues -- -101.57843-101.57757 -19.15608 -19.15333 -10.31013
  Beta  occ. eigenvalues --  -10.30145 -10.27299 -10.27169 -10.23609 -10.23531
  Beta  occ. eigenvalues --  -10.18484 -10.18373  -9.49297  -9.49214  -7.25762
  Beta  occ. eigenvalues --   -7.25684  -7.24811  -7.24719  -7.24705  -7.24625
  Beta  occ. eigenvalues --   -1.09269  -1.08578  -0.91996  -0.90656  -0.84174
  Beta  occ. eigenvalues --   -0.80958  -0.75736  -0.70807  -0.68783  -0.61006
  Beta  occ. eigenvalues --   -0.60786  -0.56392  -0.50977  -0.48689  -0.48430
  Beta  occ. eigenvalues --   -0.46195  -0.46151  -0.44571  -0.44552  -0.44101
  Beta  occ. eigenvalues --   -0.42854  -0.40961  -0.40474  -0.39514  -0.38243
  Beta  occ. eigenvalues --   -0.36831  -0.34316  -0.33456  -0.31062  -0.30235
  Beta  occ. eigenvalues --   -0.29543  -0.27789
  Beta virt. eigenvalues --   -0.14531  -0.03759  -0.02055  -0.01375   0.00087
  Beta virt. eigenvalues --    0.00281   0.01960   0.02034   0.03003   0.03390
  Beta virt. eigenvalues --    0.04365   0.04420   0.04718   0.06219   0.06232

 Mulliken charges and spin densities:
               1          2
     1  C   -0.506610  -0.000000
     2  C    0.503056  -0.000000
     3  C    0.335742   0.000000
     4  Cl   0.402322   0.000000
     5  C   -1.166089  -0.000000
     6  O   -0.184798   0.000000
     7  C    0.258469  -0.000000
     8  C    0.581920   0.000000
     9  C   -0.611829  -0.000000
    10  C   -0.957775  -0.000000
    11  O   -0.230761  -0.000000
    12  Cl   0.475836   0.000000
    13  H    0.195864  -0.000000
    14  H    0.199072  -0.000000
    15  H    0.133770  -0.000000
    16  H    0.183943   0.000000
    17  H    0.195843   0.000000
    18  H    0.192025  -0.000000
 Sum of Mulliken charges =  -0.00000   0.00000

 Dipole moment (field-independent basis, Debye):
    X=             -0.0103    Y=             -3.1542    Z=             -0.5696  Tot=              3.2052
 Quadrupole moment (field-independent basis, Debye-Ang):
   XX=            -75.5947   YY=           -104.4015   ZZ=            -82.1428
   XY=              0.1975   XZ=              0.0943   YZ=             -4.1426

  Exact polarizability: 179.554  -1.624 244.923   0.450  27.465  98.038
 Approx polarizability: 182.976  -3.201 330.259   0.060  39.900 116.568

                      1                      2                      3
                      A                      A                      A
 Frequencies --     35.5524                45.2614                50.6407
 Red. masses --      1.2304                 1.5867                 2.7180
 Frc consts  --      0.0009                 0.0019                 0.0041
 IR Inten    --      0.8165                 2.0953                 5.8747

                      4                      5                      6
                      A                      A                      A
 Frequencies --     84.1712                96.0379               188.4955
 Red. masses --      2.7644                 4.2163                 5.3777
 Frc consts  --      0.0115                 0.0229                 0.1126
 IR Inten    --      0.0602                 3.9661                 3.1456

                      7                      8                      9
                      A                      A                      A
 Frequencies --    206.2687               261.4822               295.7373
 Red. masses --     22.4865                 6.3037                 3.0892
 Frc consts  --      0.5637                 0.2539                 0.1592
 IR Inten    --      0.0463                 0.7406                 3.6134

                     10                     11                     12
                      A                      A                      A
 Frequencies --    300.6065               302.5598               364.6532
 Red. masses --      5.3583                 8.6456                 9.1572
 Frc consts  --      0.2853                 0.4663                 0.7174
 IR Inten    --      0.0080                 1.6848                 4.0762

                     13                     14                     15
                      A                      A                      A
 Frequencies --    379.7074               415.7849               418.5099
 Red. masses --      5.3256                 8.9769                 5.7456
 Frc consts  --      0.4524                 0.9144                 0.5929
 IR Inten    --      0.6123                31.3076                 0.5780

                     16                     17                     18
                      A                      A                      A
 Frequencies --    486.0678               533.3618               581.3786
 Red. masses --     14.0128                 5.2760                 5.5757
 Frc consts  --      1.9506                 0.8843                 1.1104
 IR Inten    --      2.6470                 0.0902                 0.9549

                     19                     20                     21
                      A                      A                      A
 Frequencies --    703.9042               721.4488               738.5641
 Red. masses --      4.2360                 6.6863                12.0003
 Frc consts  --      1.2366                 2.0504                 3.8567
 IR Inten    --      7.2095                28.1666               223.8883

                     22                     23                     24
                      A                      A                      A
 Frequencies --    772.9660               849.1716               973.2430
 Red. masses --      9.5655                 3.0060                 6.0107
 Frc consts  --      3.3673                 1.2771                 3.3544
 IR Inten    --      2.4394                 0.3090                 9.4584

                     25                     26                     27
                      A                      A                      A
 Frequencies --   1012.7748              1034.8367              1045.7367
 Red. masses --      6.0045                 1.4559                 1.5429
 Frc consts  --      3.6287                 0.9186                 0.9941
 IR Inten    --    301.9514                 0.1027                 2.1290

                     28                     29                     30
                      A                      A                      A
 Frequencies --   1053.2684              1077.7139              1215.5910
 Red. masses --      1.6881                 2.5786                 4.4819
 Frc consts  --      1.1034                 1.7646                 3.9020
 IR Inten    --     91.7344                21.4371               258.4836

                     31                     32                     33
                      A                      A                      A
 Frequencies --   1242.6384              1298.7314              1398.8786
 Red. masses --      9.7752                 6.3115                 1.2140
 Frc consts  --      8.8933                 6.2722                 1.3997
 IR Inten    --     81.3487               188.4654                17.4391

                     34                     35                     36
                      A                      A                      A
 Frequencies --   1404.9657              1461.1748              1464.1820
 Red. masses --      1.2421                 1.0821                 1.0427
 Frc consts  --      1.4445                 1.3612                 1.3170
 IR Inten    --     26.2194                 8.3970                14.5184

                     37                     38                     39
                      A                      A                      A
 Frequencies --   1467.5264              1475.4953              1633.9981
 Red. masses --      1.0853                 1.0425                 9.1359
 Frc consts  --      1.3772                 1.3372                14.3716
 IR Inten    --     32.2941                18.0549               222.1052

                     40                     41                     42
                      A                      A                      A
 Frequencies --   1673.1562              1694.5900              1721.9738
 Red. masses --      9.4145                12.7814                13.1720
 Frc consts  --     15.5282                21.6251                23.0121
 IR Inten    --      2.1513               840.9598               324.0609

                     43                     44                     45
                      A                      A                      A
 Frequencies --   3039.8026              3045.3852              3089.8799
 Red. masses --      1.0393                 1.0394                 1.0995
 Frc consts  --      5.6583                 5.6798                 6.1848
 IR Inten    --      5.1783                 3.8793                 7.7887

                     46                     47                     48
                      A                      A                      A
 Frequencies --   3093.1157              3152.1775              3160.3254
 Red. masses --      1.0990                 1.0987                 1.0992
 Frc consts  --      6.1950                 6.4321                 6.4681
 IR Inten    --      7.0413                 8.0565                 6.5806

 - Thermochemistry -
 -------------------
 Temperature   298.150 Kelvin.  Pressure   1.00000 Atm.
 Atom     1 has atomic number  6 and mass  12.00000

 Molecular mass:   203.97448 amu.
 Principal axes and moments of inertia in atomic units:
                           1         2         3
     Eigenvalues --  1915.103732881.662514774.54512
           X            0.99973  -0.02203  -0.00755
           Y            0.02035   0.98406  -0.17666
           Z            0.01133   0.17646   0.98424
 This molecule is an asymmetric top.
 Rotational symmetry number  1.
 Warning -- assumption of classical behavior for rotation
           may cause significant error
 Rotational temperatures (Kelvin)      0.04523     0.03006     0.01814
 Rotational constants (GHZ):           0.94237     0.62628     0.37799
 Zero-point vibrational energy     315595.8 (Joules/Mol)
                                   75.42920 (Kcal/Mol)
 Warning -- explicit consideration of  18 degrees of freedom as
           vibrations may cause significant error
 Vibrational temperatures:     51.15    65.12    72.86   121.10   138.18
          (Kelvin)            271.20   296.77   376.21   425.50   432.51
                              435.32   524.65   546.31   598.22   602.14
                              699.34   767.39   836.47  1012.76  1038.00
                             1062.63  1112.13  1221.77  1400.28  1457.16
                             1488.90  1504.58  1515.42  1550.59  1748.96
                             1787.88  1868.58  2012.67  2021.43  2102.30
                             2106.63  2111.44  2122.91  2350.96  2407.30
                             2438.14  2477.54  4373.60  4381.63  4445.65
                             4450.30  4535.28  4547.00

 Zero-point correction=                           0.120204 (Hartree/Particle)
 Thermal correction to Energy=                    0.132567
 Thermal correction to Enthalpy=                  0.133511
 Thermal correction to Gibbs Free Energy=         0.079347
 Sum of electronic and zero-point Energies=          -1379.350701
 Sum of electronic and thermal Energies=             -1379.338338
 Sum of electronic and thermal Enthalpies=           -1379.337394
 Sum of electronic and thermal Free Energies=        -1379.391558

                     E (Thermal)             CV                S
                      KCal/Mol        Cal/Mol-Kelvin    Cal/Mol-Kelvin
 Total                   83.187             42.647            113.997
 Electronic               0.000              0.000              0.000
 Translational            0.889              2.981             41.843
 Rotational               0.889              2.981             31.644
 Vibrational             81.409             36.685             40.510
 Vibration     1          0.594              1.982              5.493
 Vibration     2          0.595              1.979              5.014
 Vibration     3          0.595              1.977              4.792
 Vibration     4          0.601              1.960              3.791
 Vibration     5          0.603              1.952              3.533
 Vibration     6          0.633              1.856              2.243
 Vibration     7          0.641              1.831              2.076
 Vibration     8          0.669              1.743              1.652
 Vibration     9          0.690              1.682              1.441
 Vibration    10          0.693              1.673              1.414
 Vibration    11          0.694              1.669              1.403
 Vibration    12          0.738              1.545              1.102
 Vibration    13          0.750              1.513              1.040
 Vibration    14          0.779              1.436              0.906
 Vibration    15          0.781              1.430              0.897
 Vibration    16          0.842              1.281              0.694
 Vibration    17          0.888              1.176              0.580
 Vibration    18          0.938              1.072              0.483

                           ! Non-Optimized Parameters !
 Normal termination of Gaussian 16 at Sat Feb 10 10:25:45 2024.
