 Q-Chem 5.4, Q-Chem, Inc., Pleasanton, CA (2021)
 Q-Chem 5.4.0 for Intel X86 EM64T Linux

User input:
--------------------------------------------------------------
$molecule
0 1
C                 -1.5150390000     -2.0173680000      1.4104780000
C                 -2.0964170000     -2.0593540000      0.0489870000
C                 -1.8012230000     -1.1265630000     -0.8591400000
C                 -0.8591940000     -0.0258560000     -0.5517400000
C                 -0.2372400000      0.0302860000      0.8173950000
C                 -0.5702240000     -0.8986590000      1.7573830000
O                 -1.8215600000     -2.8741680000      2.2229410000
O                 -0.5956660000      0.7989770000     -1.4110200000
H                 -2.2165720000     -1.1219340000     -1.8608020000
C                  0.5425370000     -1.9783070000      3.7370570000
C                 -0.2829350000      0.2777580000      3.9495680000
C                  0.9887690000     -1.9364950000      5.0548170000
C                  0.7910890000     -0.7932980000      5.8273950000
C                  0.1474750000      0.3115680000      5.2723250000
H                 -2.7736740000     -2.8834170000     -0.1462120000
H                  0.6858570000     -2.8774960000      3.1513660000
H                 -0.7797330000      1.1411080000      3.5235290000
H                  1.4828830000     -2.8023110000      5.4809510000
H                  1.1308700000     -0.7657960000      6.8565970000
H                 -0.0196590000      1.2014060000      5.8686290000
C                  0.7622910000      1.1092650000      1.0368770000
C                  0.4396370000      2.4520080000      0.7985030000
C                  2.0609430000      0.7925180000      1.4571900000
C                  1.3843370000      3.4531880000      1.0047760000
C                  3.0096530000      1.7928230000      1.6454110000
C                  2.6723570000      3.1274890000      1.4264230000
H                 -0.5526670000      2.7146540000      0.4543210000
H                  2.3288790000     -0.2424900000      1.6322620000
H                  1.1158560000      4.4882740000      0.8261880000
H                  4.0118630000      1.5290950000      1.9637610000
H                  3.4097850000      3.9077610000      1.5775460000
C                 -0.0861160000     -0.8651170000      3.1630570000
$end

$rem
BASIS  =  6-311++G(d,p)
GUI  =  2
JOB_TYPE  =  SP
METHOD  =  B3LYP
SCF_CONVERGENCE  = 8
SOLVENT_METHOD = sm12
$end

$smx
solvent dimethylformamide
charges CM5
$end

--------------------------------------------------------------

             Standard Nuclear Orientation (Angstroms)
    I     Atom           X                Y                Z
 ----------------------------------------------------------------
    1      C      -1.5150390000    -2.0173680000     1.4104780000
    2      C      -2.0964170000    -2.0593540000     0.0489870000
    3      C      -1.8012230000    -1.1265630000    -0.8591400000
    4      C      -0.8591940000    -0.0258560000    -0.5517400000
    5      C      -0.2372400000     0.0302860000     0.8173950000
    6      C      -0.5702240000    -0.8986590000     1.7573830000
    7      O      -1.8215600000    -2.8741680000     2.2229410000
    8      O      -0.5956660000     0.7989770000    -1.4110200000
    9      H      -2.2165720000    -1.1219340000    -1.8608020000
   10      C       0.5425370000    -1.9783070000     3.7370570000
   11      C      -0.2829350000     0.2777580000     3.9495680000
   12      C       0.9887690000    -1.9364950000     5.0548170000
   13      C       0.7910890000    -0.7932980000     5.8273950000
   14      C       0.1474750000     0.3115680000     5.2723250000
   15      H      -2.7736740000    -2.8834170000    -0.1462120000
   16      H       0.6858570000    -2.8774960000     3.1513660000
   17      H      -0.7797330000     1.1411080000     3.5235290000
   18      H       1.4828830000    -2.8023110000     5.4809510000
   19      H       1.1308700000    -0.7657960000     6.8565970000
   20      H      -0.0196590000     1.2014060000     5.8686290000
   21      C       0.7622910000     1.1092650000     1.0368770000
   22      C       0.4396370000     2.4520080000     0.7985030000
   23      C       2.0609430000     0.7925180000     1.4571900000
   24      C       1.3843370000     3.4531880000     1.0047760000
   25      C       3.0096530000     1.7928230000     1.6454110000
   26      C       2.6723570000     3.1274890000     1.4264230000
   27      H      -0.5526670000     2.7146540000     0.4543210000
   28      H       2.3288790000    -0.2424900000     1.6322620000
   29      H       1.1158560000     4.4882740000     0.8261880000
   30      H       4.0118630000     1.5290950000     1.9637610000
   31      H       3.4097850000     3.9077610000     1.5775460000
   32      C      -0.0861160000    -0.8651170000     3.1630570000
 ----------------------------------------------------------------

   14    -843.7763253567      8.51e-09  Convergence criterion met
 Total energy in the final basis set =     -843.7997807440

                    Orbital Energies (a.u.)
 --------------------------------------------------------------

 Alpha MOs
 -- Occupied --
-19.1384 -19.1384 -10.2855 -10.2855 -10.2244 -10.2237 -10.2095 -10.2087
-10.2008 -10.2008 -10.1871 -10.1871 -10.1867 -10.1866 -10.1848 -10.1848
-10.1837 -10.1837 -10.1836 -10.1836  -1.0713  -1.0693  -0.8887  -0.8694
 -0.8558  -0.8135  -0.7757  -0.7589  -0.7586  -0.7409  -0.7035  -0.6556
 -0.6327  -0.6183  -0.6178  -0.5924  -0.5864  -0.5346  -0.5293  -0.5257
 -0.5010  -0.4820  -0.4751  -0.4712  -0.4633  -0.4610  -0.4446  -0.4432
 -0.4377  -0.4337  -0.4317  -0.4281  -0.4173  -0.4113  -0.3837  -0.3785
 -0.3644  -0.3625  -0.3593  -0.3569  -0.3129  -0.3065  -0.2930  -0.2777
 -0.2747  -0.2653  -0.2639  -0.2463

          Ground-State Mulliken Net Atomic Charges

     Atom                 Charge (a.u.)
  ----------------------------------------
      1 C                    -1.010802
      2 C                     0.676494
      3 C                     0.676722
      4 C                    -1.014587
      5 C                     0.025286
      6 C                     0.027178
      7 O                    -0.278734
      8 O                    -0.278593
      9 H                     0.343499
     10 C                    -0.501398
     11 C                    -0.581706
     12 C                    -0.258052
     13 C                    -0.224908
     14 C                    -0.463294
     15 H                     0.343451
     16 H                     0.216443
     17 H                     0.235867
     18 H                     0.266242
     19 H                     0.262703
     20 H                     0.264122
     21 C                     1.033986
     22 C                    -0.498222
     23 C                    -0.584938
     24 C                    -0.259827
     25 C                    -0.464102
     26 C                    -0.224322
     27 H                     0.216097
     28 H                     0.235527
     29 H                     0.266277
     30 H                     0.263824
     31 H                     0.262685
     32 C                     1.027083
  ----------------------------------------
  Sum of atomic charges =     0.000000

                    Cartesian Multipole Moments
 -----------------------------------------------------------------
    Charge (ESU x 10^10)
                -0.0000
    Dipole Moment (Debye)
         X       0.6442      Y       0.4847      Z       0.7076
       Tot       1.0727
    Quadrupole Moments (Debye-Ang)
        XX    -109.4104     XY      -2.1996     YY    -111.4929
        XZ      11.6879     YZ      10.8659     ZZ    -113.5451

 Total job time:  929.94s(wall), 7181.77s(cpu)
        *  Thank you very much for using Q-Chem.  Have a nice day.  *
