 Gaussian 16, Revision A.03,
 Gaussian 16:  ES64L-G16RevA.03 25-Dec-2016

 --------------------------------------
 #P UB3LYP/6-311++G(d,p) nosym opt freq
 --------------------------------------

 --------
 Oxidized
 --------
 Symbolic Z-matrix:
 Charge =  0 Multiplicity = 1

 SCF Done:  E(UB3LYP) =  -843.777499632     A.U. after   16 cycles
 Optimization completed.
    -- Stationary point found.
 Normal termination of Gaussian 16 at Wed Jan 10 04:54:36 2024.

 ----------------------------------------------------------------------
 #P Geom=AllCheck Guess=TCheck SCRF=Check GenChk UB3LYP/6-311++G(d,p) F
 req
 ----------------------------------------------------------------------

 Structure from the checkpoint file:  "063.chk"
 --------
 Oxidized
 --------
 Charge =  0 Multiplicity = 1

                          Input orientation:
 ---------------------------------------------------------------------
 Center     Atomic      Atomic             Coordinates (Angstroms)
 Number     Number       Type             X           Y           Z
 ---------------------------------------------------------------------
      1          6           0       -1.515039   -2.017368    1.410478
      2          6           0       -2.096417   -2.059354    0.048987
      3          6           0       -1.801223   -1.126563   -0.859140
      4          6           0       -0.859194   -0.025856   -0.551740
      5          6           0       -0.237240    0.030286    0.817395
      6          6           0       -0.570224   -0.898659    1.757383
      7          8           0       -1.821560   -2.874168    2.222941
      8          8           0       -0.595666    0.798977   -1.411020
      9          1           0       -2.216572   -1.121934   -1.860802
     10          6           0        0.542537   -1.978307    3.737057
     11          6           0       -0.282935    0.277758    3.949568
     12          6           0        0.988769   -1.936495    5.054817
     13          6           0        0.791089   -0.793298    5.827395
     14          6           0        0.147475    0.311568    5.272325
     15          1           0       -2.773674   -2.883417   -0.146212
     16          1           0        0.685857   -2.877496    3.151366
     17          1           0       -0.779733    1.141108    3.523529
     18          1           0        1.482883   -2.802311    5.480951
     19          1           0        1.130870   -0.765796    6.856597
     20          1           0       -0.019659    1.201406    5.868629
     21          6           0        0.762291    1.109265    1.036877
     22          6           0        0.439637    2.452008    0.798503
     23          6           0        2.060943    0.792518    1.457190
     24          6           0        1.384337    3.453188    1.004776
     25          6           0        3.009653    1.792823    1.645411
     26          6           0        2.672357    3.127489    1.426423
     27          1           0       -0.552667    2.714654    0.454321
     28          1           0        2.328879   -0.242490    1.632262
     29          1           0        1.115856    4.488274    0.826188
     30          1           0        4.011863    1.529095    1.963761
     31          1           0        3.409785    3.907761    1.577546
     32          6           0       -0.086116   -0.865117    3.163057
 ---------------------------------------------------------------------

 SCF Done:  E(UB3LYP) =  -843.777499632     A.U. after    2 cycles

 Alpha  occ. eigenvalues --  -19.13915 -19.13915 -10.28659 -10.28658 -10.22466
 Alpha  occ. eigenvalues --  -10.22397 -10.21686 -10.21602 -10.19979 -10.19978
 Alpha  occ. eigenvalues --  -10.18643 -10.18643 -10.18573 -10.18572 -10.18506
 Alpha  occ. eigenvalues --  -10.18506 -10.18368 -10.18368 -10.18346 -10.18345
 Alpha  occ. eigenvalues --   -1.07170  -1.06972  -0.88909  -0.86929  -0.85793
 Alpha  occ. eigenvalues --   -0.81638  -0.77556  -0.75870  -0.75842  -0.74180
 Alpha  occ. eigenvalues --   -0.70598  -0.65802  -0.63422  -0.61817  -0.61794
 Alpha  occ. eigenvalues --   -0.59339  -0.58791  -0.53491  -0.53056  -0.52816
 Alpha  occ. eigenvalues --   -0.50520  -0.48410  -0.47464  -0.47450  -0.46256
 Alpha  occ. eigenvalues --   -0.46139  -0.44526  -0.44520  -0.44037  -0.43391
 Alpha  occ. eigenvalues --   -0.43209  -0.42906  -0.41702  -0.41465  -0.38268
 Alpha  occ. eigenvalues --   -0.37783  -0.36508  -0.36281  -0.35971  -0.35728
 Alpha  occ. eigenvalues --   -0.31423  -0.31073  -0.29250  -0.27782  -0.27385
 Alpha  occ. eigenvalues --   -0.26396  -0.26270  -0.24544
 Alpha virt. eigenvalues --   -0.13560  -0.05494  -0.03049  -0.02511  -0.01773
 Alpha virt. eigenvalues --   -0.01066  -0.00809  -0.00077   0.00014   0.00061
 Alpha virt. eigenvalues --    0.00673   0.01335   0.01897   0.02335   0.03113

  Beta  occ. eigenvalues --  -19.13915 -19.13915 -10.28659 -10.28658 -10.22466
  Beta  occ. eigenvalues --  -10.22397 -10.21686 -10.21602 -10.19979 -10.19978
  Beta  occ. eigenvalues --  -10.18643 -10.18643 -10.18573 -10.18572 -10.18506
  Beta  occ. eigenvalues --  -10.18506 -10.18368 -10.18368 -10.18346 -10.18345
  Beta  occ. eigenvalues --   -1.07170  -1.06972  -0.88909  -0.86929  -0.85793
  Beta  occ. eigenvalues --   -0.81638  -0.77556  -0.75870  -0.75842  -0.74180
  Beta  occ. eigenvalues --   -0.70598  -0.65802  -0.63422  -0.61817  -0.61794
  Beta  occ. eigenvalues --   -0.59339  -0.58791  -0.53491  -0.53056  -0.52816
  Beta  occ. eigenvalues --   -0.50520  -0.48410  -0.47464  -0.47450  -0.46256
  Beta  occ. eigenvalues --   -0.46139  -0.44526  -0.44520  -0.44037  -0.43391
  Beta  occ. eigenvalues --   -0.43209  -0.42906  -0.41702  -0.41465  -0.38268
  Beta  occ. eigenvalues --   -0.37783  -0.36508  -0.36281  -0.35971  -0.35728
  Beta  occ. eigenvalues --   -0.31423  -0.31073  -0.29250  -0.27782  -0.27385
  Beta  occ. eigenvalues --   -0.26396  -0.26270  -0.24544
  Beta virt. eigenvalues --   -0.13560  -0.05494  -0.03049  -0.02511  -0.01773
  Beta virt. eigenvalues --   -0.01066  -0.00809  -0.00077   0.00014   0.00061
  Beta virt. eigenvalues --    0.00673   0.01335   0.01897   0.02335   0.03113

 Mulliken charges and spin densities:
               1          2
     1  C   -0.730915  -0.000000
     2  C   -0.040072   0.000000
     3  C   -0.039811  -0.000000
     4  C   -0.731074  -0.000000
     5  C   -0.098641   0.000000
     6  C   -0.097654   0.000000
     7  O   -0.180549   0.000000
     8  O   -0.180572   0.000000
     9  H    0.223148   0.000000
    10  C   -0.140502  -0.000000
    11  C   -0.428160   0.000000
    12  C   -0.262686   0.000000
    13  C   -0.304845   0.000000
    14  C   -0.456322   0.000000
    15  H    0.223144  -0.000000
    16  H    0.206292  -0.000000
    17  H    0.185869   0.000000
    18  H    0.176975   0.000000
    19  H    0.161264  -0.000000
    20  H    0.175591   0.000000
    21  C    1.513256  -0.000000
    22  C   -0.140240   0.000000
    23  C   -0.428423   0.000000
    24  C   -0.262847   0.000000
    25  C   -0.456320   0.000000
    26  C   -0.304791   0.000000
    27  H    0.206309   0.000000
    28  H    0.185875   0.000000
    29  H    0.176977   0.000000
    30  H    0.175583  -0.000000
    31  H    0.161275  -0.000000
    32  C    1.512866  -0.000000
 Sum of Mulliken charges =  -0.00000  -0.00000

 Dipole moment (field-independent basis, Debye):
    X=              0.7335    Y=              0.5495    Z=              0.8035  Tot=              1.2188
 Quadrupole moment (field-independent basis, Debye-Ang):
   XX=           -110.6003   YY=           -112.2547   ZZ=           -114.4299
   XY=             -2.8538   XZ=             10.5703   YZ=              9.9611

  Exact polarizability: 180.575  34.882 235.995  24.010 -33.865 234.318
 Approx polarizability: 289.967  35.432 421.678  23.960 -86.347 380.062

                      1                      2                      3
                      A                      A                      A
 Frequencies --     39.0154                51.7691                56.3130
 Red. masses --      7.3406                 3.9181                 5.1949
 Frc consts  --      0.0066                 0.0062                 0.0097
 IR Inten    --      0.0005                 1.6355                 0.1032

                      4                      5                      6
                      A                      A                      A
 Frequencies --     65.9063                67.7243                95.7707
 Red. masses --      4.2419                 5.7931                 5.8994
 Frc consts  --      0.0109                 0.0157                 0.0319
 IR Inten    --      0.1202                 7.0780                 0.5280

                      7                      8                      9
                      A                      A                      A
 Frequencies --    129.4695               197.8844               225.0946
 Red. masses --      5.6901                 5.3258                 6.5794
 Frc consts  --      0.0562                 0.1229                 0.1964
 IR Inten    --      1.0871                 0.1716                 0.1973

                     10                     11                     12
                      A                      A                      A
 Frequencies --    252.0111               270.1102               302.0787
 Red. masses --      4.6511                 4.5764                 6.6706
 Frc consts  --      0.1740                 0.1967                 0.3586
 IR Inten    --      1.3923                 0.0000                 3.2582

                     13                     14                     15
                      A                      A                      A
 Frequencies --    309.4518               390.9307               411.4490
 Red. masses --      5.9570                 5.6938                 2.8852
 Frc consts  --      0.3361                 0.5127                 0.2878
 IR Inten    --      0.2926                 0.0620                 1.7344

                     16                     17                     18
                      A                      A                      A
 Frequencies --    412.3817               446.2834               484.6569
 Red. masses --      2.8755                 9.3694                 8.5431
 Frc consts  --      0.2881                 1.0995                 1.1823
 IR Inten    --      1.2461                13.7589                 9.6474

                     19                     20                     21
                      A                      A                      A
 Frequencies --    494.8364               519.9816               561.6180
 Red. masses --      3.8554                 4.3781                 5.1635
 Frc consts  --      0.5562                 0.6974                 0.9596
 IR Inten    --      5.7559                22.5592                 1.2518

                     22                     23                     24
                      A                      A                      A
 Frequencies --    610.3596               627.0769               635.7399
 Red. masses --      5.8454                 3.9629                 6.3449
 Frc consts  --      1.2830                 0.9181                 1.5109
 IR Inten    --      3.4817                 1.8759                 0.0252

                     25                     26                     27
                      A                      A                      A
 Frequencies --    638.5635               645.1439               674.7727
 Red. masses --      3.4767                 4.2359                 6.9336
 Frc consts  --      0.8353                 1.0387                 1.8600
 IR Inten    --     13.0516                 1.1004                 0.0262

                     28                     29                     30
                      A                      A                      A
 Frequencies --    707.3164               708.3057               736.8024
 Red. masses --      1.6532                 1.6517                 6.9189
 Frc consts  --      0.4873                 0.4882                 2.2130
 IR Inten    --     62.1548                23.1397                14.2797

                     31                     32                     33
                      A                      A                      A
 Frequencies --    759.8755               770.4331               832.3358
 Red. masses --      2.0790                 2.1522                 7.1503
 Frc consts  --      0.7073                 0.7527                 2.9186
 IR Inten    --     30.5756                 5.5783                 1.1221

                     34                     35                     36
                      A                      A                      A
 Frequencies --    851.7810               852.3094               867.6685
 Red. masses --      1.2574                 1.2501                 2.1540
 Frc consts  --      0.5375                 0.5350                 0.9554
 IR Inten    --      0.3250                 2.3623                41.4018

                     37                     38                     39
                      A                      A                      A
 Frequencies --    886.5475               886.6419               935.8656
 Red. masses --      6.0651                 3.4363                 1.4511
 Frc consts  --      2.8086                 1.5916                 0.7488
 IR Inten    --      2.9759                 0.9794                 0.0048

                     40                     41                     42
                      A                      A                      A
 Frequencies --    938.8431               985.0755               985.3430
 Red. masses --      1.7699                 1.3802                 1.3767
 Frc consts  --      0.9191                 0.7891                 0.7875
 IR Inten    --      4.3002                 0.3013                 0.9458

                     43                     44                     45
                      A                      A                      A
 Frequencies --   1003.5686              1004.1587              1016.4311
 Red. masses --      1.3161                 1.2943                 6.2034
 Frc consts  --      0.7810                 0.7690                 3.7760
 IR Inten    --      0.7604                 0.0261                 2.9818

                     46                     47                     48
                      A                      A                      A
 Frequencies --   1017.1175              1023.0124              1023.6869
 Red. masses --      6.1556                 1.2709                 4.7184
 Frc consts  --      3.7520                 0.7836                 2.9133
 IR Inten    --      1.0164                 0.0831                37.8543

                     49                     50                     51
                      A                      A                      A
 Frequencies --   1050.9958              1056.5128              1104.7241
 Red. masses --      2.2514                 2.0352                 1.6163
 Frc consts  --      1.4652                 1.3385                 1.1622
 IR Inten    --      1.5300                 0.1675                 7.1141

                     52                     53                     54
                      A                      A                      A
 Frequencies --   1107.2000              1107.9474              1183.1150
 Red. masses --      1.6148                 1.5423                 1.1144
 Frc consts  --      1.1663                 1.1155                 0.9191
 IR Inten    --     12.6809                79.9244                 0.2069

                     55                     56                     57
                      A                      A                      A
 Frequencies --   1183.5686              1207.0069              1208.2002
 Red. masses --      1.1098                 1.1610                 1.1561
 Frc consts  --      0.9159                 0.9966                 0.9943
 IR Inten    --      0.0006                 4.4068                 2.3939

                     58                     59                     60
                      A                      A                      A
 Frequencies --   1213.1209              1213.4383              1298.1906
 Red. masses --      2.5999                 3.2852                 3.6470
 Frc consts  --      2.2543                 2.8500                 3.6213
 IR Inten    --     13.3841                 0.1506               154.7305

                     61                     62                     63
                      A                      A                      A
 Frequencies --   1312.2653              1319.3685              1329.2018
 Red. masses --      4.0889                 4.4212                 4.7505
 Frc consts  --      4.1486                 4.5345                 4.9451
 IR Inten    --     31.1003                 4.7284                91.9158

                     64                     65                     66
                      A                      A                      A
 Frequencies --   1356.1142              1357.9663              1390.5933
 Red. masses --      1.5122                 1.4618                 2.0068
 Frc consts  --      1.6385                 1.5882                 2.2864
 IR Inten    --      0.0067                 3.8943                 6.9615

                     67                     68                     69
                      A                      A                      A
 Frequencies --   1471.1493              1472.7144              1521.5746
 Red. masses --      2.1789                 2.1916                 2.1717
 Frc consts  --      2.7784                 2.8005                 2.9623
 IR Inten    --      5.9625                 8.8855                14.9990

                     70                     71                     72
                      A                      A                      A
 Frequencies --   1524.1338              1601.8430              1613.8698
 Red. masses --      2.2207                 7.2790                 5.2729
 Frc consts  --      3.0393                11.0043                 8.0917
 IR Inten    --      0.5859                31.8655                 1.8369

                     73                     74                     75
                      A                      A                      A
 Frequencies --   1621.4109              1638.9308              1639.0558
 Red. masses --      6.8933                 5.5170                 5.5327
 Frc consts  --     10.6773                 8.7312                 8.7573
 IR Inten    --     15.1464                 2.0897                 7.9620

                     76                     77                     78
                      A                      A                      A
 Frequencies --   1682.1098              1714.4269              1715.8848
 Red. masses --      9.1380                 9.6521                11.8468
 Frc consts  --     15.2339                16.7151                20.5507
 IR Inten    --     10.8395                 7.7923               420.3153

                     79                     80                     81
                      A                      A                      A
 Frequencies --   3163.2615              3163.3116              3172.7146
 Red. masses --      1.0853                 1.0853                 1.0885
 Frc consts  --      6.3986                 6.3988                 6.4556
 IR Inten    --      0.4092                 0.0260                 3.8658

                     82                     83                     84
                      A                      A                      A
 Frequencies --   3172.7687              3175.5661              3182.7069
 Red. masses --      1.0885                 1.0870                 1.0924
 Frc consts  --      6.4560                 6.4586                 6.5197
 IR Inten    --      7.1778                 1.0519                18.9383

                     85                     86                     87
                      A                      A                      A
 Frequencies --   3182.7937              3190.9738              3191.1024
 Red. masses --      1.0924                 1.0951                 1.0951
 Frc consts  --      6.5202                 6.5700                 6.5701
 IR Inten    --     19.5119                13.2190                13.9900

                     88                     89                     90
                      A                      A                      A
 Frequencies --   3193.9731              3196.9041              3196.9331
 Red. masses --      1.1000                 1.0958                 1.0958
 Frc consts  --      6.6115                 6.5987                 6.5985
 IR Inten    --      4.5958                 0.2775                 9.9281

 - Thermochemistry -
 -------------------
 Temperature   298.150 Kelvin.  Pressure   1.00000 Atm.
 Atom     1 has atomic number  6 and mass  12.00000

 Molecular mass:   260.08373 amu.
 Principal axes and moments of inertia in atomic units:
                           1         2         3
     Eigenvalues --  4394.533994821.356558317.71222
           X            0.23548   0.60167   0.76325
           Y            0.68833   0.45117  -0.56802
           Z           -0.68612   0.65912  -0.30791
 This molecule is an asymmetric top.
 Rotational symmetry number  1.
 Warning -- assumption of classical behavior for rotation
           may cause significant error
 Rotational temperatures (Kelvin)      0.01971     0.01796     0.01041
 Rotational constants (GHZ):           0.41068     0.37432     0.21698
 Zero-point vibrational energy     644842.0 (Joules/Mol)
                                  154.12093 (Kcal/Mol)
 Warning -- explicit consideration of  22 degrees of freedom as
           vibrations may cause significant error
 Vibrational temperatures:     56.13    74.48    81.02    94.82    97.44
          (Kelvin)            137.79   186.28   284.71   323.86   362.59
                              388.63   434.62   445.23   562.46   591.98
                              593.33   642.10   697.31   711.96   748.14
                              808.04   878.17   902.22   914.69   918.75
                              928.22   970.85  1017.67  1019.09  1060.09
                             1093.29  1108.48  1197.55  1225.52  1226.28
                             1248.38  1275.54  1275.68  1346.50  1350.79
                             1417.30  1417.69  1443.91  1444.76  1462.42
                             1463.41  1471.89  1472.86  1512.15  1520.09
                             1589.45  1593.01  1594.09  1702.24  1702.89
                             1736.61  1738.33  1745.41  1745.87  1867.81
                             1888.06  1898.28  1912.42  1951.15  1953.81
                             2000.75  2116.66  2118.91  2189.21  2192.89
                             2304.69  2322.00  2332.85  2358.06  2358.24
                             2420.18  2466.68  2468.78  4551.23  4551.30
                             4564.83  4564.91  4568.93  4579.21  4579.33
                             4591.10  4591.28  4595.41  4599.63  4599.67

 Zero-point correction=                           0.245607 (Hartree/Particle)
 Thermal correction to Energy=                    0.261298
 Thermal correction to Enthalpy=                  0.262243
 Thermal correction to Gibbs Free Energy=         0.201203
 Sum of electronic and zero-point Energies=           -843.531892
 Sum of electronic and thermal Energies=              -843.516201
 Sum of electronic and thermal Enthalpies=            -843.515257
 Sum of electronic and thermal Free Energies=         -843.576297

                     E (Thermal)             CV                S
                      KCal/Mol        Cal/Mol-Kelvin    Cal/Mol-Kelvin
 Total                  163.967             61.744            128.469
 Electronic               0.000              0.000              0.000
 Translational            0.889              2.981             42.567
 Rotational               0.889              2.981             33.532
 Vibrational            162.190             55.782             52.370
 Vibration     1          0.594              1.981              5.308
 Vibration     2          0.596              1.977              4.749
 Vibration     3          0.596              1.975              4.582
 Vibration     4          0.597              1.971              4.272
 Vibration     5          0.598              1.970              4.218
 Vibration     6          0.603              1.952              3.539
 Vibration     7          0.612              1.924              2.954
 Vibration     8          0.637              1.843              2.153
 Vibration     9          0.650              1.803              1.918
 Vibration    10          0.664              1.759              1.716
 Vibration    11          0.674              1.728              1.596
 Vibration    12          0.694              1.670              1.405
 Vibration    13          0.699              1.656              1.365
 Vibration    14          0.759              1.490              0.997
 Vibration    15          0.775              1.445              0.922
 Vibration    16          0.776              1.443              0.918
 Vibration    17          0.806              1.369              0.807
 Vibration    18          0.841              1.284              0.698
 Vibration    19          0.850              1.261              0.671
 Vibration    20          0.875              1.206              0.610
 Vibration    21          0.917              1.114              0.521
 Vibration    22          0.969              1.010              0.432

 Optimization completed.
    -- Stationary point found.
 Normal termination of Gaussian 16 at Wed Jan 10 05:59:01 2024.
