 Q-Chem 5.4, Q-Chem, Inc., Pleasanton, CA (2021)
 Q-Chem 5.4.0 for Intel X86 EM64T Linux

User input:
--------------------------------------------------------------
$molecule
0 1
C                  2.9471410000      0.2561640000     -0.0776200000
C                  1.4632430000      0.0712620000     -0.0065830000
C                  0.8599420000     -0.9773010000      0.5790910000
C                 -0.6089700000     -1.1330590000      0.6337150000
O                 -1.1162930000     -2.1026870000      1.1762240000
C                 -1.4632480000     -0.0712410000      0.0065630000
C                 -0.8599440000      0.9773400000     -0.5790600000
C                  0.6089620000      1.1330490000     -0.6337310000
O                  1.1162810000      2.1027110000     -1.1762030000
C                 -2.9471580000     -0.2561890000      0.0776010000
H                  3.4692630000     -0.5698250000      0.4066250000
H                  3.2402880000      1.1951830000      0.3999900000
H                  3.2757530000      0.3275460000     -1.1181600000
H                  1.4246430000     -1.7761170000      1.0491540000
H                 -1.4246170000      1.7761950000     -1.0490850000
H                 -3.2757910000     -0.3273790000      1.1181460000
H                 -3.4692850000      0.5696780000     -0.4068370000
H                 -3.2402100000     -1.1953290000     -0.3998300000
$end
$rem
MAX_SCF_CYCLES=200
BASIS  =  6-311++G(d,p)
GUI  =  2
JOB_TYPE  =  SP
METHOD  =  B3LYP
SOLVENT_METHOD = PCM
$end
$pcm
theory = CPCM
$end
$solvent
dielectric 37.219
opticaldielectric 1.43
$end

--------------------------------------------------------------

             Standard Nuclear Orientation (Angstroms)
    I     Atom           X                Y                Z
 ----------------------------------------------------------------
    1      C       2.9471410000     0.2561640000    -0.0776200000
    2      C       1.4632430000     0.0712620000    -0.0065830000
    3      C       0.8599420000    -0.9773010000     0.5790910000
    4      C      -0.6089700000    -1.1330590000     0.6337150000
    5      O      -1.1162930000    -2.1026870000     1.1762240000
    6      C      -1.4632480000    -0.0712410000     0.0065630000
    7      C      -0.8599440000     0.9773400000    -0.5790600000
    8      C       0.6089620000     1.1330490000    -0.6337310000
    9      O       1.1162810000     2.1027110000    -1.1762030000
   10      C      -2.9471580000    -0.2561890000     0.0776010000
   11      H       3.4692630000    -0.5698250000     0.4066250000
   12      H       3.2402880000     1.1951830000     0.3999900000
   13      H       3.2757530000     0.3275460000    -1.1181600000
   14      H       1.4246430000    -1.7761170000     1.0491540000
   15      H      -1.4246170000     1.7761950000    -1.0490850000
   16      H      -3.2757910000    -0.3273790000     1.1181460000
   17      H      -3.4692850000     0.5696780000    -0.4068370000
   18      H      -3.2402100000    -1.1953290000    -0.3998300000
 ----------------------------------------------------------------

    9    -460.2388607495      1.04e-06  Convergence criterion met
 Total energy in the final basis set =     -460.2388607495

                    Orbital Energies (a.u.)
 --------------------------------------------------------------

 Alpha MOs
 -- Occupied --
-19.1406 -19.1406 -10.2837 -10.2837 -10.2179 -10.2179 -10.1998 -10.1998
-10.1745 -10.1745  -1.0720  -1.0703  -0.8653  -0.8164  -0.7362  -0.7240
 -0.6636  -0.6248  -0.5776  -0.5305  -0.4960  -0.4810  -0.4615  -0.4472
 -0.4365  -0.4357  -0.4246  -0.4082  -0.4034  -0.3997  -0.3942  -0.3849
 -0.3039  -0.2909  -0.2825  -0.2777

          Ground-State Mulliken Net Atomic Charges

     Atom                 Charge (a.u.)
  ----------------------------------------
      1 C                    -0.399621
      2 C                     1.230720
      3 C                    -0.635418
      4 C                    -0.697835
      5 O                    -0.294559
      6 C                     1.230829
      7 C                    -0.635388
      8 C                    -0.697814
      9 O                    -0.294578
     10 C                    -0.399698
     11 H                     0.178789
     12 H                     0.196065
     13 H                     0.196195
     14 H                     0.225628
     15 H                     0.225628
     16 H                     0.196210
     17 H                     0.178801
     18 H                     0.196047
  ----------------------------------------
  Sum of atomic charges =     0.000000

                    Cartesian Multipole Moments
 -----------------------------------------------------------------
    Charge (ESU x 10^10)
                 0.0000
    Dipole Moment (Debye)
         X       0.0000      Y      -0.0002      Z       0.0000
       Tot       0.0002
    Quadrupole Moments (Debye-Ang)
        XX     -49.8447     XY      -9.2983     YY     -72.0201
        XZ       5.5098     YZ       7.6409     ZZ     -62.5241

 Total job time:  19.71s(wall), 117.86s(cpu)
        *  Thank you very much for using Q-Chem.  Have a nice day.  *
