 Gaussian 16, Revision A.03,
 Gaussian 16:  ES64L-G16RevA.03 25-Dec-2016

 --------------------------------------
 #P UB3LYP/6-311++G(d,p) nosym opt freq
 --------------------------------------

 -------
 Reduced
 -------
 Symbolic Z-matrix:
 Charge = -2 Multiplicity = 1

 SCF Done:  E(UB3LYP) =  -1454.50214205     A.U. after   20 cycles
 SCF Done:  E(UB3LYP) =  -1454.50214220     A.U. after   13 cycles
 Optimization completed.
    -- Stationary point found.
 Normal termination of Gaussian 16 at Sun Jan  7 20:16:30 2024.

 ----------------------------------------------------------------------
 #P Geom=AllCheck Guess=TCheck SCRF=Check GenChk UB3LYP/6-311++G(d,p) F
 req
 ----------------------------------------------------------------------

 Structure from the checkpoint file:  "231-an.chk"
 -------
 Reduced
 -------
 Charge = -2 Multiplicity = 1

                          Input orientation:
 ---------------------------------------------------------------------
 Center     Atomic      Atomic             Coordinates (Angstroms)
 Number     Number       Type             X           Y           Z
 ---------------------------------------------------------------------
      1          6           0        5.901528   -5.205801    1.074849
      2          6           0        6.779862   -5.078798    0.014096
      3          6           0        6.547901   -4.084707   -0.969989
      4          6           0        4.767060   -4.372690    1.218096
      5          6           0        4.531436   -3.362732    0.218373
      6          6           0        5.446600   -3.255989   -0.855263
      7          6           0        3.890827   -4.576891    2.371363
      8          6           0        2.801284   -3.669870    2.379593
      9          6           0        2.568365   -2.671442    1.391309
     10          6           0        3.393451   -2.444762    0.260949
     11          8           0        4.117183   -5.481980    3.253861
     12          8           0        3.199653   -1.549290   -0.638940
     13          1           0        6.045839   -5.954797    1.847607
     14          1           0        7.643751   -5.737430   -0.065287
     15          1           0        5.235902   -2.483462   -1.588599
     16         17           0        1.666833   -3.836356    3.754992
     17          1           0        7.232501   -3.974917   -1.810033
     18         17           0        1.144179   -1.595886    1.537324
 ---------------------------------------------------------------------

 SCF Done:  E(UB3LYP) =  -1454.50214220     A.U. after    2 cycles

 Alpha  occ. eigenvalues -- -101.28253-101.28253 -18.76598 -18.76597  -9.94280
 Alpha  occ. eigenvalues --   -9.94237  -9.93513  -9.93512  -9.92679  -9.92634
 Alpha  occ. eigenvalues --   -9.91616  -9.91614  -9.90446  -9.90407  -9.19680
 Alpha  occ. eigenvalues --   -9.19679  -6.96083  -6.96083  -6.95230  -6.95230
 Alpha  occ. eigenvalues --   -6.95142  -6.95142  -0.68940  -0.68409  -0.60379
 Alpha  occ. eigenvalues --   -0.59340  -0.56663  -0.51691  -0.49134  -0.45244
 Alpha  occ. eigenvalues --   -0.40284  -0.34776  -0.33961  -0.29273  -0.25067
 Alpha  occ. eigenvalues --   -0.23583  -0.19812  -0.19314  -0.16822  -0.15380
 Alpha  occ. eigenvalues --   -0.14879  -0.14295  -0.11656  -0.10991  -0.10571
 Alpha  occ. eigenvalues --   -0.09458  -0.08663  -0.07282  -0.05801  -0.05431
 Alpha  occ. eigenvalues --   -0.05225  -0.03261   0.00589   0.01927   0.03365
 Alpha  occ. eigenvalues --    0.05142   0.05479   0.13115
 Alpha virt. eigenvalues --    0.16280   0.18097   0.20679   0.21504   0.21888
 Alpha virt. eigenvalues --    0.22644   0.23424   0.23740   0.25833   0.26464
 Alpha virt. eigenvalues --    0.27726   0.27922   0.27997   0.28049   0.28761

  Beta  occ. eigenvalues -- -101.28253-101.28253 -18.76598 -18.76597  -9.94280
  Beta  occ. eigenvalues --   -9.94237  -9.93513  -9.93512  -9.92679  -9.92634
  Beta  occ. eigenvalues --   -9.91616  -9.91614  -9.90446  -9.90407  -9.19680
  Beta  occ. eigenvalues --   -9.19679  -6.96083  -6.96083  -6.95230  -6.95230
  Beta  occ. eigenvalues --   -6.95142  -6.95142  -0.68940  -0.68409  -0.60379
  Beta  occ. eigenvalues --   -0.59340  -0.56663  -0.51691  -0.49134  -0.45244
  Beta  occ. eigenvalues --   -0.40284  -0.34776  -0.33961  -0.29273  -0.25067
  Beta  occ. eigenvalues --   -0.23583  -0.19812  -0.19314  -0.16822  -0.15380
  Beta  occ. eigenvalues --   -0.14879  -0.14295  -0.11656  -0.10991  -0.10571
  Beta  occ. eigenvalues --   -0.09458  -0.08663  -0.07282  -0.05801  -0.05431
  Beta  occ. eigenvalues --   -0.05225  -0.03261   0.00589   0.01927   0.03365
  Beta  occ. eigenvalues --    0.05142   0.05479   0.13115
  Beta virt. eigenvalues --    0.16280   0.18097   0.20679   0.21504   0.21888
  Beta virt. eigenvalues --    0.22644   0.23424   0.23740   0.25833   0.26464
  Beta virt. eigenvalues --    0.27726   0.27922   0.27997   0.28049   0.28761

 Mulliken charges and spin densities:
               1          2
     1  C   -0.193987   0.000000
     2  C   -0.369186  -0.000000
     3  C   -0.369262  -0.000000
     4  C    0.557750  -0.000000
     5  C    0.557753  -0.000000
     6  C   -0.194003  -0.000000
     7  C   -2.182749   0.000000
     8  C    1.197370   0.000000
     9  C    1.197611  -0.000000
    10  C   -2.182701   0.000000
    11  O   -0.479505   0.000000
    12  O   -0.479506   0.000000
    13  H    0.128769   0.000000
    14  H    0.076623  -0.000000
    15  H    0.128769   0.000000
    16  Cl   0.264831  -0.000000
    17  H    0.076626   0.000000
    18  Cl   0.264797  -0.000000
 Sum of Mulliken charges =  -2.00000   0.00000

 Dipole moment (field-independent basis, Debye):
    X=            -34.0249    Y=             33.3761    Z=            -13.2243  Tot=             49.4625
 Quadrupole moment (field-independent basis, Debye-Ang):
   XX=           -251.8280   YY=           -250.8862   ZZ=           -158.2111
   XY=            133.2219   XZ=            -38.3016   YZ=             67.1507

  Exact polarizability: 236.227 -56.884 171.994 -64.223 -22.565 199.925
 Approx polarizability: 373.045 -98.733 281.448-103.318 -53.941 327.737

                      1                      2                      3
                      A                      A                      A
 Frequencies --     65.8323                69.7949               140.3002
 Red. masses --     14.6240                 9.6755                 4.6631
 Frc consts  --      0.0373                 0.0278                 0.0541
 IR Inten    --      0.0000                 7.3379                 0.0000

                      4                      5                      6
                      A                      A                      A
 Frequencies --    171.8657               207.3863               214.5933
 Red. masses --      9.8894                31.1482                 9.3669
 Frc consts  --      0.1721                 0.7893                 0.2541
 IR Inten    --      4.7076                 1.4374                 5.2512

                      7                      8                      9
                      A                      A                      A
 Frequencies --    283.1750               285.1163               312.5742
 Red. masses --      6.9690                 8.8549                11.1681
 Frc consts  --      0.3293                 0.4241                 0.6429
 IR Inten    --      0.0560                 1.2088                 0.0002

                     10                     11                     12
                      A                      A                      A
 Frequencies --    325.3724               332.3239               364.0540
 Red. masses --     19.8799                18.8225                 9.4382
 Frc consts  --      1.2400                 1.2248                 0.7370
 IR Inten    --      5.3554                 0.5201                 0.8313

                     13                     14                     15
                      A                      A                      A
 Frequencies --    459.2325               488.3285               502.4798
 Red. masses --      3.4114                13.8867                 5.6426
 Frc consts  --      0.4239                 1.9511                 0.8394
 IR Inten    --      2.7557                15.2012                 0.0000

                     16                     17                     18
                      A                      A                      A
 Frequencies --    533.2540               632.0292               644.2115
 Red. masses --      7.8887                 7.4950                 7.5272
 Frc consts  --      1.3217                 1.7640                 1.8405
 IR Inten    --      0.5859                13.1478                 0.0001

                     19                     20                     21
                      A                      A                      A
 Frequencies --    684.4107               691.4162               747.1834
 Red. masses --      1.9089                 8.2113                 2.4665
 Frc consts  --      0.5268                 2.3128                 0.8113
 IR Inten    --     61.3501                 0.8080                19.1775

                     22                     23                     24
                      A                      A                      A
 Frequencies --    756.1212               783.4315               809.9906
 Red. masses --      2.3192                 8.0131                 2.1522
 Frc consts  --      0.7812                 2.8977                 0.8319
 IR Inten    --      0.0001                45.7051                 0.0004

                     25                     26                     27
                      A                      A                      A
 Frequencies --    815.3567               872.4307               947.7204
 Red. masses --     11.2489                 7.5231                 1.2017
 Frc consts  --      4.4061                 3.3737                 0.6359
 IR Inten    --    193.8635                 2.0827                 0.0001

                     28                     29                     30
                      A                      A                      A
 Frequencies --    956.3130              1017.9731              1090.1429
 Red. masses --      1.3614                 2.2401                 2.2432
 Frc consts  --      0.7336                 1.3677                 1.5706
 IR Inten    --      4.8814                42.2622                25.9848

                     31                     32                     33
                      A                      A                      A
 Frequencies --   1097.4740              1115.3365              1170.5309
 Red. masses --      3.6082                 1.9767                 2.6327
 Frc consts  --      2.5605                 1.4488                 2.1253
 IR Inten    --      3.2169               224.2285                 0.4555

                     34                     35                     36
                      A                      A                      A
 Frequencies --   1191.9397              1235.3391              1330.9594
 Red. masses --      2.1563                 1.9198                12.1188
 Frc consts  --      1.8050                 1.7261                12.6485
 IR Inten    --    196.9344                50.6823                13.9200

                     37                     38                     39
                      A                      A                      A
 Frequencies --   1350.9217              1362.1024              1419.0434
 Red. masses --      6.6021                 4.2328                 3.5777
 Frc consts  --      7.0989                 4.6270                 4.2446
 IR Inten    --    163.9389                28.6056               641.7245

                     40                     41                     42
                      A                      A                      A
 Frequencies --   1451.3125              1495.1237              1495.5330
 Red. masses --      3.6018                 5.7376                 4.2563
 Frc consts  --      4.4699                 7.5567                 5.6089
 IR Inten    --      6.9603               598.9135                28.3120

                     43                     44                     45
                      A                      A                      A
 Frequencies --   1587.8397              1588.4710              3085.6455
 Red. masses --      8.8277                 5.4045                 1.0824
 Frc consts  --     13.1133                 8.0346                 6.0722
 IR Inten    --      9.2315                 5.3739                39.1821

                     46                     47                     48
                      A                      A                      A
 Frequencies --   3110.3470              3156.0764              3158.5283
 Red. masses --      1.0908                 1.0900                 1.0911
 Frc consts  --      6.2176                 6.3969                 6.4133
 IR Inten    --    126.7120                23.9608                47.0609

 - Thermochemistry -
 -------------------
 Temperature   298.150 Kelvin.  Pressure   1.00000 Atm.
 Atom     1 has atomic number  6 and mass  12.00000

 Molecular mass:   225.95883 amu.
 Principal axes and moments of inertia in atomic units:
                           1         2         3
     Eigenvalues --  2086.398653958.076256044.47456
           X            0.82229  -0.16357   0.54505
           Y           -0.29177   0.70113   0.65060
           Z           -0.48857  -0.69402   0.52881
 This molecule is an asymmetric top.
 Rotational symmetry number  1.
 Warning -- assumption of classical behavior for rotation
           may cause significant error
 Rotational temperatures (Kelvin)      0.04151     0.02188     0.01433
 Rotational constants (GHZ):           0.86500     0.45596     0.29858
 Zero-point vibrational energy     284752.7 (Joules/Mol)
                                   68.05754 (Kcal/Mol)
 Warning -- explicit consideration of  16 degrees of freedom as
           vibrations may cause significant error
 Vibrational temperatures:     94.72   100.42   201.86   247.28   298.38
          (Kelvin)            308.75   407.43   410.22   449.72   468.14
                              478.14   523.79   660.73   702.60   722.96
                              767.23   909.35   926.88   984.71   994.79
                             1075.03  1087.89  1127.18  1165.40  1173.12
                             1255.23  1363.56  1375.92  1464.64  1568.47
                             1579.02  1604.72  1684.13  1714.94  1777.38
                             1914.95  1943.68  1959.76  2041.69  2088.12
                             2151.15  2151.74  2284.55  2285.46  4439.56
                             4475.10  4540.89  4544.42

 Zero-point correction=                           0.108457 (Hartree/Particle)
 Thermal correction to Energy=                    0.119854
 Thermal correction to Enthalpy=                  0.120799
 Thermal correction to Gibbs Free Energy=         0.070296
 Sum of electronic and zero-point Energies=          -1454.393686
 Sum of electronic and thermal Energies=             -1454.382288
 Sum of electronic and thermal Enthalpies=           -1454.381344
 Sum of electronic and thermal Free Energies=        -1454.431846

                     E (Thermal)             CV                S
                      KCal/Mol        Cal/Mol-Kelvin    Cal/Mol-Kelvin
 Total                   75.210             43.277            106.292
 Electronic               0.000              0.000              0.000
 Translational            0.889              2.981             42.148
 Rotational               0.889              2.981             32.279
 Vibrational             73.432             37.315             31.865
 Vibration     1          0.597              1.971              4.274
 Vibration     2          0.598              1.969              4.159
 Vibration     3          0.615              1.913              2.800
 Vibration     4          0.626              1.877              2.415
 Vibration     5          0.641              1.829              2.067
 Vibration     6          0.645              1.819              2.004
 Vibration     7          0.682              1.705              1.514
 Vibration     8          0.683              1.701              1.503
 Vibration     9          0.701              1.650              1.349
 Vibration    10          0.709              1.625              1.283
 Vibration    11          0.714              1.611              1.249
 Vibration    12          0.738              1.546              1.105
 Vibration    13          0.817              1.340              0.768
 Vibration    14          0.844              1.276              0.688
 Vibration    15          0.858              1.245              0.652
 Vibration    16          0.888              1.176              0.580

 Optimization completed.
    -- Stationary point found.
 Normal termination of Gaussian 16 at Sun Jan  7 20:32:07 2024.
