 Gaussian 16, Revision A.03,
 Gaussian 16:  ES64L-G16RevA.03 25-Dec-2016

 ----------------------------------------------------------------
 #P UB3LYP/6-311++G(d,p) SCRF=(PCM,Solvent=n,n-DiMethylFormamide)
 ----------------------------------------------------------------

 -------
 Reduced
 -------
 Symbolic Z-matrix:
 Charge = -2 Multiplicity = 1

                         Standard orientation:
 ---------------------------------------------------------------------
 Center     Atomic      Atomic             Coordinates (Angstroms)
 Number     Number       Type             X           Y           Z
 ---------------------------------------------------------------------
      1          6           0       -2.502492    1.390505    0.000104
      2          6           0       -3.705937    0.708951    0.000516
      3          6           0       -3.705943   -0.708951    0.000449
      4          6           0       -1.256560    0.720233   -0.000449
      5          6           0       -1.256565   -0.720247   -0.000459
      6          6           0       -2.502501   -1.390513    0.000033
      7          6           0       -0.032167    1.520463   -0.001019
      8          6           0        1.132423    0.712014   -0.000398
      9          6           0        1.132419   -0.712000   -0.000386
     10          6           0       -0.032166   -1.520459   -0.000955
     11          8           0       -0.051216    2.804543    0.000178
     12          8           0       -0.051192   -2.804540    0.000140
     13          1           0       -2.462148    2.475562    0.000105
     14          1           0       -4.647263    1.256954    0.000881
     15          1           0       -2.462129   -2.475567    0.000005
     16         17           0        2.688678    1.597727    0.000298
     17          1           0       -4.647272   -1.256951    0.000784
     18         17           0        2.688675   -1.597727    0.000353
 ---------------------------------------------------------------------

 SCF Done:  E(UB3LYP) =  -1454.76991084     A.U. after   16 cycles

 The electronic state is 1-A.
 Alpha  occ. eigenvalues -- -101.52901-101.52901 -19.02619 -19.02618 -10.19149
 Alpha  occ. eigenvalues --  -10.19107 -10.18830 -10.18829 -10.15683 -10.15637
 Alpha  occ. eigenvalues --  -10.15212 -10.15212 -10.15090 -10.15051  -9.44339
 Alpha  occ. eigenvalues --   -9.44338  -7.20744  -7.20744  -7.19875  -7.19874
 Alpha  occ. eigenvalues --   -7.19806  -7.19806  -0.94871  -0.94439  -0.85347
 Alpha  occ. eigenvalues --   -0.83244  -0.81476  -0.76086  -0.73012  -0.69534
 Alpha  occ. eigenvalues --   -0.65092  -0.58706  -0.58059  -0.53597  -0.49220
 Alpha  occ. eigenvalues --   -0.47464  -0.44244  -0.43313  -0.40597  -0.39445
 Alpha  occ. eigenvalues --   -0.39419  -0.39201  -0.37205  -0.36427  -0.34782
 Alpha  occ. eigenvalues --   -0.34161  -0.33577  -0.31688  -0.30544  -0.30375
 Alpha  occ. eigenvalues --   -0.30352  -0.28105  -0.23498  -0.23261  -0.21553
 Alpha  occ. eigenvalues --   -0.21007  -0.20552  -0.12493
 Alpha virt. eigenvalues --   -0.01113  -0.00266   0.00066   0.00622   0.01859
 Alpha virt. eigenvalues --    0.02858   0.03243   0.04180   0.05134   0.05215
 Alpha virt. eigenvalues --    0.05835   0.06994   0.07105   0.07237   0.08223

  Beta  occ. eigenvalues -- -101.52901-101.52901 -19.02619 -19.02618 -10.19149
  Beta  occ. eigenvalues --  -10.19107 -10.18830 -10.18829 -10.15683 -10.15637
  Beta  occ. eigenvalues --  -10.15212 -10.15212 -10.15090 -10.15051  -9.44339
  Beta  occ. eigenvalues --   -9.44338  -7.20744  -7.20744  -7.19875  -7.19874
  Beta  occ. eigenvalues --   -7.19806  -7.19806  -0.94871  -0.94439  -0.85347
  Beta  occ. eigenvalues --   -0.83244  -0.81476  -0.76086  -0.73012  -0.69534
  Beta  occ. eigenvalues --   -0.65092  -0.58706  -0.58059  -0.53597  -0.49220
  Beta  occ. eigenvalues --   -0.47464  -0.44244  -0.43313  -0.40597  -0.39445
  Beta  occ. eigenvalues --   -0.39419  -0.39201  -0.37205  -0.36427  -0.34782
  Beta  occ. eigenvalues --   -0.34161  -0.33577  -0.31688  -0.30544  -0.30375
  Beta  occ. eigenvalues --   -0.30352  -0.28105  -0.23498  -0.23261  -0.21553
  Beta  occ. eigenvalues --   -0.21007  -0.20552  -0.12493
  Beta virt. eigenvalues --   -0.01113  -0.00266   0.00066   0.00622   0.01859
  Beta virt. eigenvalues --    0.02858   0.03243   0.04180   0.05134   0.05215
  Beta virt. eigenvalues --    0.05835   0.06994   0.07105   0.07237   0.08223

 Mulliken charges and spin densities:
               1          2
     1  C   -0.160367   0.000000
     2  C   -0.444268  -0.000000
     3  C   -0.444267  -0.000000
     4  C    0.360211  -0.000000
     5  C    0.360204   0.000000
     6  C   -0.160371   0.000000
     7  C   -1.769397  -0.000000
     8  C    1.044516  -0.000000
     9  C    1.044548   0.000000
    10  C   -1.769427   0.000000
    11  O   -0.617355   0.000000
    12  O   -0.617354   0.000000
    13  H    0.149639   0.000000
    14  H    0.169378  -0.000000
    15  H    0.149637   0.000000
    16  Cl   0.267649  -0.000000
    17  H    0.169379  -0.000000
    18  Cl   0.267647   0.000000
 Sum of Mulliken charges =  -2.00000   0.00000

 Dipole moment (field-independent basis, Debye):
    X=             -3.5635    Y=              0.0001    Z=             -0.0008  Tot=              3.5635
 Quadrupole moment (field-independent basis, Debye-Ang):
   XX=           -121.4424   YY=           -161.2464   ZZ=           -104.2793
   XY=              0.0002   XZ=             -0.0022   YZ=             -0.0002

 Normal termination of Gaussian 16 at Sun Jan 21 08:42:17 2024.
