 Gaussian 16, Revision A.03,
 Gaussian 16:  ES64L-G16RevA.03 25-Dec-2016

 ----------------------------------------------------------------------
 #P UB3LYP/6-311++G(d,p) nosym opt freq SCRF=(PCM,Solvent=n,n-DiMethylF
 ormamide)
 ----------------------------------------------------------------------

 -------
 Radical
 -------
 Symbolic Z-matrix:
 Charge = -3 Multiplicity = 2

 SCF Done:  E(UB3LYP) =  -1782.33680930     A.U. after   20 cycles
 SCF Done:  E(UB3LYP) =  -1782.33871347     A.U. after   16 cycles
 SCF Done:  E(UB3LYP) =  -1782.33886453     A.U. after   13 cycles
 SCF Done:  E(UB3LYP) =  -1782.33887018     A.U. after   13 cycles
 SCF Done:  E(UB3LYP) =  -1782.33889852     A.U. after   13 cycles
 SCF Done:  E(UB3LYP) =  -1782.33890054     A.U. after   13 cycles
 SCF Done:  E(UB3LYP) =  -1782.33890270     A.U. after   12 cycles
 SCF Done:  E(UB3LYP) =  -1782.33890340     A.U. after   10 cycles
 SCF Done:  E(UB3LYP) =  -1782.33890371     A.U. after   10 cycles
 SCF Done:  E(UB3LYP) =  -1782.33890377     A.U. after   10 cycles
 Optimization completed.
    -- Stationary point found.
 Normal termination of Gaussian 16 at Sun Feb 11 20:11:22 2024.

 ----------------------------------------------------------------------
 #P Geom=AllCheck Guess=TCheck SCRF=Check GenChk UB3LYP/6-311++G(d,p) F
 req
 ----------------------------------------------------------------------

 Structure from the checkpoint file:  "327-rad.chk"
 -------
 Radical
 -------
 Charge = -3 Multiplicity = 2

                          Input orientation:
 ---------------------------------------------------------------------
 Center     Atomic      Atomic             Coordinates (Angstroms)
 Number     Number       Type             X           Y           Z
 ---------------------------------------------------------------------
      1          6           0       -1.687403    2.963273   -0.745756
      2          6           0       -2.825813    2.249915   -0.433484
      3          6           0       -2.700432    0.912719   -0.014240
      4          6           0       -0.402872    2.386218   -0.652614
      5          6           0       -0.281983    1.030805   -0.224061
      6          6           0       -1.459976    0.313841    0.088276
      7          6           0        0.767220    3.203734   -1.001208
      8          6           0        2.104384    2.575123   -0.873949
      9          6           0        2.153418    1.200435   -0.438432
     10          6           0        1.045328    0.462559   -0.131442
     11          8           0        0.643105    4.391505   -1.391319
     12          8           0        3.160548    3.217547   -1.138195
     13          1           0       -1.757014    3.993657   -1.072037
     14          1           0       -3.803379    2.710426   -0.511528
     15         16           0       -4.196319   -0.012292    0.411850
     16          1           0       -1.398764   -0.714791    0.410074
     17          1           0        3.134239    0.747678   -0.356515
     18         16           0        1.296188   -1.256041    0.405744
     19          8           0        2.767619   -1.490781    0.367166
     20          8           0        0.552498   -2.109105   -0.569157
     21          8           0        0.736213   -1.345826    1.787831
     22          8           0       -4.777231    0.682291    1.600477
     23          8           0       -3.759468   -1.405128    0.709852
     24          8           0       -5.083334    0.078177   -0.786411
 ---------------------------------------------------------------------

 SCF Done:  E(UB3LYP) =  -1782.33890377     A.U. after    1 cycles

 Alpha  occ. eigenvalues --  -89.03701 -89.03629 -19.08225 -19.08144 -19.08135
 Alpha  occ. eigenvalues --  -19.08133 -19.08042 -19.08014 -19.08011 -19.07725
 Alpha  occ. eigenvalues --  -10.22131 -10.21658 -10.19384 -10.19275 -10.18992
 Alpha  occ. eigenvalues --  -10.17650 -10.17602 -10.17559 -10.17214 -10.16511
 Alpha  occ. eigenvalues --   -8.09606  -8.09518  -6.05882  -6.05871  -6.05799
 Alpha  occ. eigenvalues --   -6.05780  -6.05768  -6.05681  -1.09901  -1.09800
 Alpha  occ. eigenvalues --   -1.01271  -0.98358  -0.96301  -0.96174  -0.96012
 Alpha  occ. eigenvalues --   -0.95941  -0.87019  -0.81611  -0.76348  -0.73821
 Alpha  occ. eigenvalues --   -0.70165  -0.63983  -0.62057  -0.60663  -0.57054
 Alpha  occ. eigenvalues --   -0.54546  -0.51233  -0.50145  -0.48717  -0.46847
 Alpha  occ. eigenvalues --   -0.45367  -0.44501  -0.44395  -0.44167  -0.44008
 Alpha  occ. eigenvalues --   -0.42577  -0.42026  -0.41974  -0.41286  -0.39001
 Alpha  occ. eigenvalues --   -0.37604  -0.37576  -0.35274  -0.35016  -0.32982
 Alpha  occ. eigenvalues --   -0.32557  -0.32524  -0.32211  -0.32168  -0.29358
 Alpha  occ. eigenvalues --   -0.28995  -0.28701  -0.28561  -0.28205  -0.27542
 Alpha  occ. eigenvalues --   -0.25676  -0.25602  -0.24672  -0.24543  -0.23169
 Alpha  occ. eigenvalues --   -0.22726  -0.16191
 Alpha virt. eigenvalues --   -0.03971  -0.01463   0.00483   0.01591   0.02097
 Alpha virt. eigenvalues --    0.02277   0.03646   0.03972   0.04572   0.04809
 Alpha virt. eigenvalues --    0.06027   0.06340   0.06552   0.06869   0.07627

  Beta  occ. eigenvalues --  -89.03703 -89.03633 -19.08222 -19.08139 -19.08137
  Beta  occ. eigenvalues --  -19.08127 -19.07989 -19.07986 -19.07437 -19.07044
  Beta  occ. eigenvalues --  -10.21984 -10.21505 -10.19209 -10.19167 -10.18934
  Beta  occ. eigenvalues --  -10.17628 -10.17572 -10.17565 -10.17182 -10.16515
  Beta  occ. eigenvalues --   -8.09607  -8.09522  -6.05883  -6.05872  -6.05802
  Beta  occ. eigenvalues --   -6.05784  -6.05771  -6.05690  -1.09895  -1.09778
  Beta  occ. eigenvalues --   -1.00182  -0.97136  -0.96295  -0.96160  -0.96002
  Beta  occ. eigenvalues --   -0.95888  -0.86810  -0.81254  -0.76108  -0.73654
  Beta  occ. eigenvalues --   -0.69407  -0.63761  -0.61914  -0.60300  -0.56929
  Beta  occ. eigenvalues --   -0.54301  -0.51090  -0.50007  -0.48528  -0.46739
  Beta  occ. eigenvalues --   -0.45254  -0.44456  -0.44303  -0.44122  -0.43863
  Beta  occ. eigenvalues --   -0.42548  -0.41775  -0.40703  -0.40434  -0.38784
  Beta  occ. eigenvalues --   -0.37336  -0.36364  -0.35152  -0.33060  -0.32589
  Beta  occ. eigenvalues --   -0.32543  -0.32456  -0.32164  -0.31065  -0.28872
  Beta  occ. eigenvalues --   -0.28866  -0.28686  -0.28523  -0.28100  -0.27011
  Beta  occ. eigenvalues --   -0.25068  -0.24974  -0.24652  -0.24436  -0.22167
  Beta  occ. eigenvalues --   -0.22142
  Beta virt. eigenvalues --   -0.09510  -0.03027  -0.00180   0.00499   0.01602
  Beta virt. eigenvalues --    0.02125   0.03375   0.03659   0.04000   0.04653
  Beta virt. eigenvalues --    0.04842   0.06071   0.06359   0.06569   0.06968

 Mulliken charges and spin densities:
               1          2
     1  C   -0.162115   0.044840
     2  C   -0.511929   0.014036
     3  C   -0.192307   0.042324
     4  C    1.071487   0.052113
     5  C    0.118815   0.041372
     6  C   -0.386205  -0.009771
     7  C   -0.883804   0.092336
     8  C    0.054756   0.155217
     9  C    0.316957  -0.035096
    10  C   -1.144812   0.120111
    11  O   -0.467823   0.229208
    12  O   -0.501298   0.247117
    13  H    0.163842  -0.003726
    14  H    0.223890  -0.001679
    15  S    0.682189   0.000704
    16  H    0.218450   0.001104
    17  H    0.239015  -0.001992
    18  S    0.520438  -0.002046
    19  O   -0.329811   0.000446
    20  O   -0.409896   0.005803
    21  O   -0.408128   0.006272
    22  O   -0.384776   0.000547
    23  O   -0.429725   0.000644
    24  O   -0.397209   0.000117
 Sum of Mulliken charges =  -3.00000   1.00000

 Dipole moment (field-independent basis, Debye):
    X=              9.0662    Y=             -4.8395    Z=             -0.5958  Tot=             10.2942
 Quadrupole moment (field-independent basis, Debye-Ang):
   XX=           -296.2654   YY=           -225.9850   ZZ=           -163.3043
   XY=            -25.1964   XZ=             19.4686   YZ=             24.5945

  Exact polarizability: 411.198  29.656 325.520 -25.906 -51.213 192.539
 Approx polarizability: 439.190  28.338 358.317 -25.099 -51.808 223.024

                      1                      2                      3
                      A                      A                      A
 Frequencies --     32.2505                47.2381                60.4164
 Red. masses --     15.2473                10.3983                14.3755
 Frc consts  --      0.0093                 0.0137                 0.0309
 IR Inten    --      1.1142                 1.7453                 2.6231

                      4                      5                      6
                      A                      A                      A
 Frequencies --     78.4783                86.1664               100.6699
 Red. masses --     12.5090                16.8758                 6.9424
 Frc consts  --      0.0454                 0.0738                 0.0415
 IR Inten    --     16.8937                 1.3821                 0.9739

                      7                      8                      9
                      A                      A                      A
 Frequencies --    153.5654               167.9264               206.0133
 Red. masses --      6.9517                11.4501                16.3225
 Frc consts  --      0.0966                 0.1902                 0.4082
 IR Inten    --      3.8744                17.3699                 0.0479

                     10                     11                     12
                      A                      A                      A
 Frequencies --    212.8230               250.6456               258.8952
 Red. masses --      6.8181                14.1324                 9.8480
 Frc consts  --      0.1819                 0.5231                 0.3889
 IR Inten    --      0.7468                 6.7122                 3.5176

                     13                     14                     15
                      A                      A                      A
 Frequencies --    276.1072               324.5371               329.9973
 Red. masses --     13.2998                13.0524                 7.5290
 Frc consts  --      0.5974                 0.8100                 0.4831
 IR Inten    --      1.6488                 4.8123                 0.7399

                     16                     17                     18
                      A                      A                      A
 Frequencies --    373.3187               385.5184               421.2935
 Red. masses --     14.1019                 7.6376                 3.5950
 Frc consts  --      1.1579                 0.6688                 0.3759
 IR Inten    --      3.0866                14.9562                 0.1083

                     19                     20                     21
                      A                      A                      A
 Frequencies --    437.3364               469.5405               490.1581
 Red. masses --     10.8188                 9.7966                12.7241
 Frc consts  --      1.2192                 1.2725                 1.8011
 IR Inten    --      0.2714                74.8238                94.6231

                     22                     23                     24
                      A                      A                      A
 Frequencies --    492.8101               496.3749               518.9640
 Red. masses --     10.9988                12.4812                 8.6386
 Frc consts  --      1.5738                 1.8119                 1.3708
 IR Inten    --     54.6745                 3.9726                41.1908

                     25                     26                     27
                      A                      A                      A
 Frequencies --    526.4350               546.0146               581.5515
 Red. masses --     10.6858                 4.7807                13.0001
 Frc consts  --      1.7448                 0.8398                 2.5904
 IR Inten    --     31.2700                13.6135               282.0041

                     28                     29                     30
                      A                      A                      A
 Frequencies --    605.4216               633.8055               642.4429
 Red. masses --     15.8942                 8.1402                 6.7937
 Frc consts  --      3.4324                 1.9266                 1.6521
 IR Inten    --    208.8312               196.8251                37.0966

                     31                     32                     33
                      A                      A                      A
 Frequencies --    698.0895               712.2881               731.4152
 Red. masses --      6.9652                 5.2450                 7.0604
 Frc consts  --      1.9999                 1.5679                 2.2254
 IR Inten    --     71.1034                 1.9640                 3.5973

                     34                     35                     36
                      A                      A                      A
 Frequencies --    771.9379               828.0427               828.2859
 Red. masses --      4.2978                 2.2219                 3.6179
 Frc consts  --      1.5089                 0.8976                 1.4624
 IR Inten    --     12.6947                20.3054                11.9290

                     37                     38                     39
                      A                      A                      A
 Frequencies --    887.9957               905.4439               929.6794
 Red. masses --      1.3531                 1.3951                 7.3761
 Frc consts  --      0.6287                 0.6739                 3.7561
 IR Inten    --     18.1747                18.0118               126.7672

                     40                     41                     42
                      A                      A                      A
 Frequencies --    967.9480               980.7829               991.0485
 Red. masses --     13.5127                 1.3208                 6.2369
 Frc consts  --      7.4592                 0.7486                 3.6092
 IR Inten    --    359.2540                 4.6860               350.6740

                     43                     44                     45
                      A                      A                      A
 Frequencies --    997.6534              1100.0735              1101.8919
 Red. masses --      9.2915                 3.0340                11.7984
 Frc consts  --      5.4487                 2.1633                 8.4402
 IR Inten    --    133.0003               360.6308               598.3138

                     46                     47                     48
                      A                      A                      A
 Frequencies --   1104.4196              1117.7155              1121.1866
 Red. masses --     17.6736                16.1570                 7.8925
 Frc consts  --     12.7012                11.8925                 5.8455
 IR Inten    --    629.7421               230.9142               580.9475

                     49                     50                     51
                      A                      A                      A
 Frequencies --   1144.0572              1176.2097              1227.7240
 Red. masses --      1.7161                 2.4639                 3.0813
 Frc consts  --      1.3234                 2.0083                 2.7365
 IR Inten    --      8.1571                76.5882                23.9366

                     52                     53                     54
                      A                      A                      A
 Frequencies --   1246.4519              1290.2077              1327.3629
 Red. masses --      2.4782                 1.9269                 3.6677
 Frc consts  --      2.2685                 1.8898                 3.8073
 IR Inten    --     12.9322                 2.6872                 3.6158

                     55                     56                     57
                      A                      A                      A
 Frequencies --   1365.0654              1419.0190              1478.2113
 Red. masses --      3.7301                 4.6347                 3.7417
 Frc consts  --      4.0953                 5.4986                 4.8171
 IR Inten    --     15.0062                78.2471               465.7044

                     58                     59                     60
                      A                      A                      A
 Frequencies --   1501.7086              1503.8401              1571.2264
 Red. masses --      6.1570                 5.5450                 7.2226
 Frc consts  --      8.1807                 7.3885                10.5056
 IR Inten    --    550.9708               558.1743               171.5758

                     61                     62                     63
                      A                      A                      A
 Frequencies --   1584.8699              1621.9239              3181.3428
 Red. masses --      8.0637                 6.1336                 1.0874
 Frc consts  --     11.9336                 9.5067                 6.4842
 IR Inten    --    328.8448                24.0445                 1.7894

                     64                     65                     66
                      A                      A                      A
 Frequencies --   3190.4077              3197.8707              3232.3226
 Red. masses --      1.0888                 1.0934                 1.0901
 Frc consts  --      6.5297                 6.5880                 6.7103
 IR Inten    --      5.6025                15.0796                 9.4137

 - Thermochemistry -
 -------------------
 Temperature   298.150 Kelvin.  Pressure   1.00000 Atm.
 Atom     1 has atomic number  6 and mass  12.00000

 Molecular mass:   315.93476 amu.
 Principal axes and moments of inertia in atomic units:
                           1         2         3
     Eigenvalues --  4405.519298275.51183**********
           X            0.97641  -0.20464   0.06889
           Y            0.17443   0.93560   0.30696
           Z           -0.12726  -0.28770   0.94923
 This molecule is an asymmetric top.
 Rotational symmetry number  1.
 Warning -- assumption of classical behavior for rotation
           may cause significant error
 Rotational temperatures (Kelvin)      0.01966     0.01047     0.00723
 Rotational constants (GHZ):           0.40965     0.21808     0.15069
 Zero-point vibrational energy     354348.5 (Joules/Mol)
                                   84.69131 (Kcal/Mol)
 Warning -- explicit consideration of  28 degrees of freedom as
           vibrations may cause significant error
 Vibrational temperatures:     46.40    67.97    86.93   112.91   123.97
          (Kelvin)            144.84   220.95   241.61   296.41   306.20
                              360.62   372.49   397.26   466.94   474.79
                              537.12   554.68   606.15   629.23   675.56
                              705.23   709.04   714.17   746.67   757.42
                              785.59   836.72   871.07   911.90   924.33
                             1004.40  1024.82  1052.34  1110.65  1191.37
                             1191.72  1277.63  1302.73  1337.60  1392.66
                             1411.13  1425.90  1435.40  1582.76  1585.38
                             1589.01  1608.14  1613.14  1646.04  1692.30
                             1766.42  1793.37  1856.32  1909.78  1964.02
                             2041.65  2126.82  2160.62  2163.69  2260.64
                             2280.27  2333.59  4577.24  4590.29  4601.02
                             4650.59

 Zero-point correction=                           0.134964 (Hartree/Particle)
 Thermal correction to Energy=                    0.151612
 Thermal correction to Enthalpy=                  0.152556
 Thermal correction to Gibbs Free Energy=         0.088533
 Sum of electronic and zero-point Energies=          -1782.203940
 Sum of electronic and thermal Energies=             -1782.187292
 Sum of electronic and thermal Enthalpies=           -1782.186347
 Sum of electronic and thermal Free Energies=        -1782.250371

                     E (Thermal)             CV                S
                      KCal/Mol        Cal/Mol-Kelvin    Cal/Mol-Kelvin
 Total                   95.138             62.625            134.748
 Electronic               0.000              0.000              1.377
 Translational            0.889              2.981             43.147
 Rotational               0.889              2.981             34.434
 Vibrational             93.361             56.663             55.790
 Vibration     1          0.594              1.983              5.686
 Vibration     2          0.595              1.979              4.930
 Vibration     3          0.597              1.973              4.444
 Vibration     4          0.600              1.964              3.929
 Vibration     5          0.601              1.959              3.745
 Vibration     6          0.604              1.949              3.441
 Vibration     7          0.619              1.899              2.628
 Vibration     8          0.625              1.882              2.459
 Vibration     9          0.640              1.831              2.079
 Vibration    10          0.644              1.821              2.019
 Vibration    11          0.663              1.762              1.726
 Vibration    12          0.668              1.748              1.669
 Vibration    13          0.678              1.718              1.558
 Vibration    14          0.709              1.626              1.287
 Vibration    15          0.713              1.616              1.260
 Vibration    16          0.745              1.527              1.066
 Vibration    17          0.754              1.501              1.017
 Vibration    18          0.784              1.424              0.888
 Vibration    19          0.798              1.389              0.835
 Vibration    20          0.827              1.318              0.739
 Vibration    21          0.846              1.272              0.683
 Vibration    22          0.849              1.266              0.676
 Vibration    23          0.852              1.258              0.667
 Vibration    24          0.874              1.208              0.612
 Vibration    25          0.881              1.191              0.595
 Vibration    26          0.901              1.148              0.552
 Vibration    27          0.938              1.071              0.482
 Vibration    28          0.964              1.020              0.440

 Optimization completed.
    -- Stationary point found.
 Normal termination of Gaussian 16 at Sun Feb 11 20:45:43 2024.
