 Gaussian 16, Revision A.03,
 Gaussian 16:  ES64L-G16RevA.03 25-Dec-2016

 --------------------------------------
 #P UB3LYP/6-311++G(d,p) nosym opt freq
 --------------------------------------

 -------
 Reduced
 -------
 Symbolic Z-matrix:
 Charge = -2 Multiplicity = 1

 SCF Done:  E(UB3LYP) =  -573.565204361     A.U. after   27 cycles
 SCF Done:  E(UB3LYP) =  -573.565205124     A.U. after   16 cycles
 SCF Done:  E(UB3LYP) =  -573.565209438     A.U. after   17 cycles
 SCF Done:  E(UB3LYP) =  -573.565233473     A.U. after   22 cycles
 SCF Done:  E(UB3LYP) =  -573.565244935     A.U. after   22 cycles
 SCF Done:  E(UB3LYP) =  -573.565379682     A.U. after   20 cycles
 SCF Done:  E(UB3LYP) =  -573.536539187     A.U. after   24 cycles
 SCF Done:  E(UB3LYP) =  -573.567393823     A.U. after   24 cycles
 SCF Done:  E(UB3LYP) =  -573.567901386     A.U. after   20 cycles
 SCF Done:  E(UB3LYP) =  -573.565997924     A.U. after   22 cycles
 SCF Done:  E(UB3LYP) =  -573.569076167     A.U. after   22 cycles
 SCF Done:  E(UB3LYP) =  -573.569178899     A.U. after   22 cycles
 SCF Done:  E(UB3LYP) =  -573.569265247     A.U. after   22 cycles
 SCF Done:  E(UB3LYP) =  -573.569296610     A.U. after   22 cycles
 SCF Done:  E(UB3LYP) =  -573.569308714     A.U. after   19 cycles
 SCF Done:  E(UB3LYP) =  -573.569319201     A.U. after   17 cycles
 SCF Done:  E(UB3LYP) =  -573.569325481     A.U. after   17 cycles
 SCF Done:  E(UB3LYP) =  -573.569326119     A.U. after   16 cycles
 SCF Done:  E(UB3LYP) =  -573.569326160     A.U. after   15 cycles
 Optimization completed.
    -- Stationary point found.
 Normal termination of Gaussian 16 at Tue Jan 16 00:54:55 2024.

 ----------------------------------------------------------------------
 #P Geom=AllCheck Guess=TCheck SCRF=Check GenChk UB3LYP/6-311++G(d,p) F
 req
 ----------------------------------------------------------------------

 Structure from the checkpoint file:  "059-an.chk"
 -------
 Reduced
 -------
 Charge = -2 Multiplicity = 1

                          Input orientation:
 ---------------------------------------------------------------------
 Center     Atomic      Atomic             Coordinates (Angstroms)
 Number     Number       Type             X           Y           Z
 ---------------------------------------------------------------------
      1          6           0       -0.564322    1.219172   -0.288188
      2          6           0       -1.445483    0.165104   -0.792281
      3          6           0       -1.152563   -1.173749   -0.655844
      4          6           0        0.035395   -1.696203   -0.011941
      5          6           0        0.886680   -0.686547    0.475029
      6          6           0        0.647270    0.735030    0.369526
      7          8           0       -0.903221    2.435436   -0.452266
      8          8           0        0.247182   -2.978362    0.080889
      9          6           0        1.619771    1.656922    0.921964
     10          6           0        2.877433    1.050964    1.603602
     11          8           0        1.572739    2.903056    0.918853
     12          1           0        2.613657    0.409381    2.452713
     13          1           0        3.487532    1.887158    1.954331
     14          1           0        3.463296    0.436726    0.909590
     15          1           0        1.788655   -1.039497    0.964599
     16          6           0       -2.709499    0.619422   -1.479189
     17          1           0       -1.847466   -1.919250   -1.051782
     18          1           0       -3.329321    1.234574   -0.811763
     19          1           0       -3.299720   -0.240726   -1.820608
     20          1           0       -2.487468    1.264051   -2.341261
 ---------------------------------------------------------------------

 SCF Done:  E(UB3LYP) =  -573.569326160     A.U. after    1 cycles

 Alpha  occ. eigenvalues --  -18.80481 -18.76183 -18.74073  -9.96150  -9.92349
 Alpha  occ. eigenvalues --   -9.91547  -9.91268  -9.90413  -9.88383  -9.87757
 Alpha  occ. eigenvalues --   -9.87046  -9.85429  -0.72884  -0.68029  -0.64926
 Alpha  occ. eigenvalues --   -0.53021  -0.49534  -0.46057  -0.41798  -0.37615
 Alpha  occ. eigenvalues --   -0.32990  -0.26866  -0.23523  -0.18982  -0.18210
 Alpha  occ. eigenvalues --   -0.17513  -0.16317  -0.15893  -0.14706  -0.13506
 Alpha  occ. eigenvalues --   -0.11642  -0.10116  -0.09230  -0.08784  -0.06797
 Alpha  occ. eigenvalues --   -0.06484  -0.05421  -0.04161   0.03054   0.04011
 Alpha  occ. eigenvalues --    0.04450   0.07724   0.08224   0.14392
 Alpha virt. eigenvalues --    0.17752   0.17847   0.20515   0.20986   0.21719
 Alpha virt. eigenvalues --    0.22002   0.22770   0.24208   0.24617   0.25324
 Alpha virt. eigenvalues --    0.27129   0.28133   0.29161   0.30110   0.30320

  Beta  occ. eigenvalues --  -18.80481 -18.76183 -18.74073  -9.96150  -9.92349
  Beta  occ. eigenvalues --   -9.91547  -9.91268  -9.90413  -9.88383  -9.87757
  Beta  occ. eigenvalues --   -9.87046  -9.85429  -0.72884  -0.68029  -0.64926
  Beta  occ. eigenvalues --   -0.53021  -0.49534  -0.46057  -0.41798  -0.37615
  Beta  occ. eigenvalues --   -0.32990  -0.26866  -0.23523  -0.18982  -0.18210
  Beta  occ. eigenvalues --   -0.17513  -0.16317  -0.15893  -0.14706  -0.13506
  Beta  occ. eigenvalues --   -0.11642  -0.10116  -0.09230  -0.08784  -0.06797
  Beta  occ. eigenvalues --   -0.06484  -0.05421  -0.04161   0.03054   0.04011
  Beta  occ. eigenvalues --    0.04450   0.07724   0.08224   0.14392
  Beta virt. eigenvalues --    0.17752   0.17847   0.20515   0.20986   0.21719
  Beta virt. eigenvalues --    0.22002   0.22770   0.24208   0.24617   0.25324
  Beta virt. eigenvalues --    0.27129   0.28133   0.29161   0.30110   0.30320

 Mulliken charges and spin densities:
               1          2
     1  C   -1.930754   0.000000
     2  C    1.727465  -0.000000
     3  C   -0.271748  -0.000000
     4  C   -1.076422  -0.000000
     5  C   -0.714454   0.000000
     6  C    2.273556  -0.000000
     7  O   -0.437374  -0.000000
     8  O   -0.597317   0.000000
     9  C   -0.402229   0.000000
    10  C   -0.367442  -0.000000
    11  O   -0.379716  -0.000000
    12  H    0.098241   0.000000
    13  H    0.099364  -0.000000
    14  H    0.098254   0.000000
    15  H    0.052319   0.000000
    16  C   -0.494894   0.000000
    17  H    0.017872   0.000000
    18  H    0.108397   0.000000
    19  H    0.088247   0.000000
    20  H    0.108634   0.000000
 Sum of Mulliken charges =  -2.00000   0.00000

 Dipole moment (field-independent basis, Debye):
    X=             -1.2260    Y=             -2.1359    Z=             -0.7131  Tot=              2.5640
 Quadrupole moment (field-independent basis, Debye-Ang):
   XX=            -97.9579   YY=           -152.9456   ZZ=            -85.4706
   XY=             -1.2999   XZ=             -9.9195   YZ=             -2.0616

  Exact polarizability: 234.982   7.435 194.690  62.748   5.448 155.757
 Approx polarizability: 329.718  17.406 313.625  98.112  12.562 206.157

                      1                      2                      3
                      A                      A                      A
 Frequencies --     31.1170                66.5379               132.5383
 Red. masses --      3.8921                 5.9700                 1.1167
 Frc consts  --      0.0022                 0.0156                 0.0116
 IR Inten    --      6.6661                 2.3769                 1.1116

                      4                      5                      6
                      A                      A                      A
 Frequencies --    146.7960               161.9644               191.5907
 Red. masses --      5.6074                 1.0478                 5.5270
 Frc consts  --      0.0712                 0.0162                 0.1195
 IR Inten    --      4.6576                 0.0339                 3.6778

                      7                      8                      9
                      A                      A                      A
 Frequencies --    196.6561               289.7078               325.8421
 Red. masses --      3.2105                 3.4096                 5.7105
 Frc consts  --      0.0732                 0.1686                 0.3572
 IR Inten    --      0.0008                 1.3890                 2.8614

                     10                     11                     12
                      A                      A                      A
 Frequencies --    334.0918               387.9247               404.9280
 Red. masses --      6.9600                 4.0569                 4.9610
 Frc consts  --      0.4577                 0.3597                 0.4793
 IR Inten    --      0.6389                12.8484                 2.8310

                     13                     14                     15
                      A                      A                      A
 Frequencies --    414.7440               472.2548               527.8842
 Red. masses --      9.2954                 9.2590                 5.4136
 Frc consts  --      0.9421                 1.2167                 0.8888
 IR Inten    --     23.5295                15.5091                12.0585

                     16                     17                     18
                      A                      A                      A
 Frequencies --    561.5795               592.5143               599.1463
 Red. masses --      2.3260                 4.0344                 2.4093
 Frc consts  --      0.4322                 0.8345                 0.5096
 IR Inten    --     11.1665                 2.1559                 3.1609

                     19                     20                     21
                      A                      A                      A
 Frequencies --    651.5581               760.3051               773.0277
 Red. masses --      4.2263                 2.8065                 2.2989
 Frc consts  --      1.0571                 0.9558                 0.8094
 IR Inten    --      5.9291                10.7104                10.8985

                     22                     23                     24
                      A                      A                      A
 Frequencies --    797.2307               844.0527               854.0915
 Red. masses --      5.1251                 6.0032                 1.5393
 Frc consts  --      1.9192                 2.5198                 0.6616
 IR Inten    --     28.2952                39.8923                24.4405

                     25                     26                     27
                      A                      A                      A
 Frequencies --    945.8419               989.3841               996.7210
 Red. masses --      2.2068                 2.2262                 1.7678
 Frc consts  --      1.1632                 1.2839                 1.0348
 IR Inten    --     84.3445                68.9567                 1.0526

                     28                     29                     30
                      A                      A                      A
 Frequencies --   1012.3593              1036.4835              1085.3788
 Red. masses --      2.0130                 1.4466                 2.6010
 Frc consts  --      1.2155                 0.9157                 1.8053
 IR Inten    --     58.7939                 1.9436                 9.8545

                     31                     32                     33
                      A                      A                      A
 Frequencies --   1172.1000              1219.5749              1248.1582
 Red. masses --      2.5632                 1.8640                 4.1509
 Frc consts  --      2.0748                 1.6335                 3.8101
 IR Inten    --    162.3273               184.4143               157.6138

                     34                     35                     36
                      A                      A                      A
 Frequencies --   1309.5566              1335.3753              1353.2192
 Red. masses --      3.0350                 1.4145                 3.8493
 Frc consts  --      3.0666                 1.4862                 4.1531
 IR Inten    --     53.5070                15.8262               142.7355

                     37                     38                     39
                      A                      A                      A
 Frequencies --   1371.5749              1406.7738              1446.3944
 Red. masses --      1.3141                 4.7751                 1.0511
 Frc consts  --      1.4565                 5.5677                 1.2956
 IR Inten    --     14.8413               264.2006                 0.0079

                     40                     41                     42
                      A                      A                      A
 Frequencies --   1451.9515              1469.0765              1469.2426
 Red. masses --      3.3102                 1.0533                 1.2668
 Frc consts  --      4.1116                 1.3394                 1.6112
 IR Inten    --    472.8834                 0.8619                79.8456

                     43                     44                     45
                      A                      A                      A
 Frequencies --   1481.5410              1496.1485              1592.9041
 Red. masses --      1.7406                 2.0970                 5.9759
 Frc consts  --      2.2510                 2.7657                 8.9337
 IR Inten    --    127.4037                52.3607               733.7357

                     46                     47                     48
                      A                      A                      A
 Frequencies --   1631.6249              2961.6309              2981.2029
 Red. masses --      7.7723                 1.0333                 1.0982
 Frc consts  --     12.1910                 5.3399                 5.7507
 IR Inten    --    126.0726               295.6880               209.4751

                     49                     50                     51
                      A                      A                      A
 Frequencies --   2988.8238              3025.0167              3041.7622
 Red. masses --      1.0341                 1.1008                 1.0997
 Frc consts  --      5.4429                 5.9350                 5.9948
 IR Inten    --    117.1467                46.1236                94.0879

                     52                     53                     54
                      A                      A                      A
 Frequencies --   3058.7302              3077.6154              3149.4296
 Red. masses --      1.0868                 1.1014                 1.0848
 Frc consts  --      5.9906                 6.1466                 6.3393
 IR Inten    --    150.6669                37.8433                41.3687

 - Thermochemistry -
 -------------------
 Temperature   298.150 Kelvin.  Pressure   1.00000 Atm.
 Atom     1 has atomic number  6 and mass  12.00000

 Molecular mass:   164.04734 amu.
 Principal axes and moments of inertia in atomic units:
                           1         2         3
     Eigenvalues --  1488.074622136.956493602.88701
           X            0.65545  -0.58138  -0.48207
           Y            0.65680   0.75389  -0.01618
           Z            0.37283  -0.30602   0.87599
 This molecule is an asymmetric top.
 Rotational symmetry number  1.
 Warning -- assumption of classical behavior for rotation
           may cause significant error
 Rotational temperatures (Kelvin)      0.05821     0.04053     0.02404
 Rotational constants (GHZ):           1.21280     0.84454     0.50092
 Zero-point vibrational energy     378759.7 (Joules/Mol)
                                   90.52575 (Kcal/Mol)
 Warning -- explicit consideration of  18 degrees of freedom as
           vibrations may cause significant error
 Vibrational temperatures:     44.77    95.73   190.69   211.21   233.03
          (Kelvin)            275.66   282.94   416.82   468.81   480.68
                              558.14   582.60   596.72   679.47   759.51
                              807.99   852.50   862.04   937.45  1093.91
                             1112.21  1147.04  1214.40  1228.85  1360.86
                             1423.50  1434.06  1456.56  1491.27  1561.62
                             1686.39  1754.70  1795.82  1884.16  1921.31
                             1946.98  1973.39  2024.03  2081.04  2089.03
                             2113.67  2113.91  2131.61  2152.62  2291.83
                             2347.54  4261.13  4289.29  4300.25  4352.32
                             4376.42  4400.83  4428.00  4531.33

 Zero-point correction=                           0.144262 (Hartree/Particle)
 Thermal correction to Energy=                    0.155804
 Thermal correction to Enthalpy=                  0.156748
 Thermal correction to Gibbs Free Energy=         0.106183
 Sum of electronic and zero-point Energies=           -573.425064
 Sum of electronic and thermal Energies=              -573.413523
 Sum of electronic and thermal Enthalpies=            -573.412578
 Sum of electronic and thermal Free Energies=         -573.463144

                     E (Thermal)             CV                S
                      KCal/Mol        Cal/Mol-Kelvin    Cal/Mol-Kelvin
 Total                   97.768             42.502            106.423
 Electronic               0.000              0.000              0.000
 Translational            0.889              2.981             41.193
 Rotational               0.889              2.981             30.817
 Vibrational             95.991             36.541             34.413
 Vibration     1          0.594              1.983              5.757
 Vibration     2          0.598              1.970              4.253
 Vibration     3          0.613              1.921              2.909
 Vibration     4          0.617              1.906              2.713
 Vibration     5          0.622              1.889              2.527
 Vibration     6          0.634              1.851              2.212
 Vibration     7          0.636              1.845              2.164
 Vibration     8          0.686              1.693              1.476
 Vibration     9          0.710              1.624              1.281
 Vibration    10          0.716              1.607              1.240
 Vibration    11          0.756              1.496              1.008
 Vibration    12          0.770              1.459              0.945
 Vibration    13          0.778              1.438              0.910
 Vibration    14          0.829              1.312              0.731
 Vibration    15          0.883              1.188              0.592
 Vibration    16          0.917              1.114              0.521
 Vibration    17          0.950              1.048              0.463
 Vibration    18          0.957              1.034              0.451

 Optimization completed.
    -- Stationary point found.
 Normal termination of Gaussian 16 at Tue Jan 16 01:01:09 2024.
