 Gaussian 16, Revision A.03,
 Gaussian 16:  ES64L-G16RevA.03 25-Dec-2016

 ----------------------------------------------------------------
 #P UB3LYP/6-311++G(d,p) SCRF=(PCM,Solvent=n,n-DiMethylFormamide)
 ----------------------------------------------------------------

 -------
 Reduced
 -------
 Symbolic Z-matrix:
 Charge = -2 Multiplicity = 1

                         Standard orientation:
 ---------------------------------------------------------------------
 Center     Atomic      Atomic             Coordinates (Angstroms)
 Number     Number       Type             X           Y           Z
 ---------------------------------------------------------------------
      1          6           0        0.204211   -1.113825   -0.000167
      2          6           0        1.619873   -0.742995    0.000089
      3          6           0        2.042466    0.567867    0.000064
      4          6           0        1.161497    1.717957   -0.000108
      5          6           0       -0.201635    1.367094   -0.000243
      6          6           0       -0.720081    0.017819   -0.000254
      7          8           0       -0.108737   -2.347979   -0.000206
      8          8           0        1.633153    2.932429   -0.000138
      9          6           0       -2.155054   -0.186345   -0.000054
     10          6           0       -3.060160    1.076316    0.000579
     11          8           0       -2.768048   -1.272305   -0.000271
     12          1           0       -2.885388    1.704708    0.881927
     13          1           0       -4.096477    0.729187    0.000174
     14          1           0       -2.885109    1.705901   -0.879851
     15          1           0       -0.893593    2.203159   -0.000488
     16          6           0        2.610921   -1.880452    0.000356
     17          1           0        3.113534    0.787508    0.000280
     18          1           0        2.471785   -2.532904    0.873853
     19          1           0        3.641036   -1.501448   -0.000277
     20          1           0        2.471036   -2.533879   -0.872271
 ---------------------------------------------------------------------

 SCF Done:  E(UB3LYP) =  -573.855063696     A.U. after   18 cycles

 The electronic state is 1-A.
 Alpha  occ. eigenvalues --  -19.06539 -19.02868 -19.01347 -10.21921 -10.18580
 Alpha  occ. eigenvalues --  -10.16843 -10.14502 -10.14317 -10.13877 -10.13316
 Alpha  occ. eigenvalues --  -10.13113 -10.11589  -0.99005  -0.94797  -0.92235
 Alpha  occ. eigenvalues --   -0.78726  -0.74422  -0.70050  -0.66750  -0.63350
 Alpha  occ. eigenvalues --   -0.58579  -0.52201  -0.48881  -0.44341  -0.43601
 Alpha  occ. eigenvalues --   -0.42147  -0.41206  -0.39578  -0.38763  -0.38436
 Alpha  occ. eigenvalues --   -0.36493  -0.35980  -0.34846  -0.34589  -0.32862
 Alpha  occ. eigenvalues --   -0.32691  -0.31641  -0.30984  -0.23198  -0.22777
 Alpha  occ. eigenvalues --   -0.21574  -0.19507  -0.18511  -0.12449
 Alpha virt. eigenvalues --   -0.02257   0.00138   0.01019   0.02004   0.03375
 Alpha virt. eigenvalues --    0.03462   0.03990   0.04589   0.05362   0.05946
 Alpha virt. eigenvalues --    0.06118   0.06603   0.07461   0.07806   0.09085

  Beta  occ. eigenvalues --  -19.06539 -19.02868 -19.01347 -10.21921 -10.18580
  Beta  occ. eigenvalues --  -10.16843 -10.14502 -10.14317 -10.13877 -10.13316
  Beta  occ. eigenvalues --  -10.13113 -10.11589  -0.99005  -0.94797  -0.92235
  Beta  occ. eigenvalues --   -0.78726  -0.74422  -0.70050  -0.66750  -0.63350
  Beta  occ. eigenvalues --   -0.58579  -0.52201  -0.48881  -0.44341  -0.43601
  Beta  occ. eigenvalues --   -0.42147  -0.41206  -0.39578  -0.38763  -0.38436
  Beta  occ. eigenvalues --   -0.36493  -0.35980  -0.34846  -0.34589  -0.32862
  Beta  occ. eigenvalues --   -0.32691  -0.31641  -0.30984  -0.23198  -0.22777
  Beta  occ. eigenvalues --   -0.21574  -0.19507  -0.18511  -0.12449
  Beta virt. eigenvalues --   -0.02257   0.00138   0.01019   0.02004   0.03375
  Beta virt. eigenvalues --    0.03462   0.03990   0.04589   0.05362   0.05946
  Beta virt. eigenvalues --    0.06118   0.06603   0.07461   0.07806   0.09085

 Mulliken charges and spin densities:
               1          2
     1  C   -1.449759   0.000000
     2  C    1.184256   0.000000
     3  C   -0.452139  -0.000000
     4  C   -0.470776   0.000000
     5  C   -0.894888  -0.000000
     6  C    1.787039   0.000000
     7  O   -0.577567   0.000000
     8  O   -0.742381   0.000000
     9  C   -0.169416  -0.000000
    10  C   -0.468392   0.000000
    11  O   -0.470393   0.000000
    12  H    0.151516   0.000000
    13  H    0.164647  -0.000000
    14  H    0.151444   0.000000
    15  H    0.119402  -0.000000
    16  C   -0.403227   0.000000
    17  H    0.117910  -0.000000
    18  H    0.145697   0.000000
    19  H    0.131335   0.000000
    20  H    0.145690   0.000000
 Sum of Mulliken charges =  -2.00000  -0.00000

 Dipole moment (field-independent basis, Debye):
    X=             -0.6425    Y=             -1.1530    Z=              0.0023  Tot=              1.3199
 Quadrupole moment (field-independent basis, Debye-Ang):
   XX=           -106.1770   YY=           -137.8269   ZZ=            -78.5238
   XY=            -30.8082   XZ=             -0.0013   YZ=             -0.0012

 Normal termination of Gaussian 16 at Sun Jan 21 07:47:06 2024.
