 Q-Chem 5.4, Q-Chem, Inc., Pleasanton, CA (2021)
 Q-Chem 5.4.0 for Intel X86 EM64T Linux

User input:
--------------------------------------------------------------
$molecule
0 1
C                 -6.3733680000      0.9728590000     -1.7877950000
C                 -6.4883440000      1.2609390000     -3.1442460000
C                 -5.5355660000      0.7782260000     -4.0432480000
C                 -5.3021630000      0.2005070000     -1.3323880000
C                 -4.3420410000     -0.2866430000     -2.2344590000
C                 -4.4663540000      0.0069360000     -3.5912230000
C                 -5.1663740000     -0.1136030000      0.1014350000
C                 -4.0014680000     -0.9373070000      0.5356130000
C                 -3.0680530000     -1.4268420000     -0.3171590000
C                 -3.1854200000     -1.1195520000     -1.7580560000
O                 -5.9532900000      0.2605170000      0.9638300000
O                 -2.3595650000     -1.5365340000     -2.5582610000
O                 -3.9573760000     -1.1639180000      1.8584430000
C                 -1.8971980000     -2.2441130000      0.1502940000
H                 -7.1000560000      1.3357420000     -1.0712660000
H                 -7.3177030000      1.8601620000     -3.5017070000
H                 -5.6268120000      1.0039550000     -5.0996710000
H                 -3.7187050000     -0.3754330000     -4.2749590000
H                 -4.7412050000     -0.7201230000      2.2348030000
C                 -0.6510770000     -1.3816630000      0.4434200000
C                  0.5486420000     -2.2332580000      0.8985670000
C                  1.7798760000     -1.4075900000      1.1957120000
C                  2.6831120000     -1.0665070000      0.1823030000
C                  2.0400490000     -0.9313540000      2.4832300000
C                  3.1594700000     -0.1431520000      2.7466100000
C                  4.0625950000      0.1999730000      1.7360280000
C                  3.8005890000     -0.2795490000      0.4460380000
C                  5.2813520000      1.0523740000      2.0409280000
C                  6.6073210000      0.2988000000      1.7931880000
C                  5.2756530000      2.3936300000      1.2739750000
C                  6.4985460000      3.2553590000      1.6195010000
C                  7.8294030000      1.1618540000      2.1379160000
C                  7.8119340000      2.4976160000      1.3822840000
H                 -1.6499770000     -2.9716310000     -0.6269080000
H                 -2.1789980000     -2.7916310000      1.0534280000
H                 -0.8892200000     -0.6456990000      1.2181430000
H                 -0.3778580000     -0.8214990000     -0.4557990000
H                  0.7785220000     -2.9678560000      0.1188810000
H                  0.2656370000     -2.8020400000      1.7911990000
H                  2.5119350000     -1.4266800000     -0.8278740000
H                  1.3627300000     -1.1834700000      3.2938800000
H                  3.3364280000      0.2076750000      3.7589480000
H                  4.4784690000     -0.0423510000     -0.3672720000
H                  5.2435840000      1.2938020000      3.1117360000
H                  6.6605490000     -0.0001510000      0.7388530000
H                  6.6169640000     -0.6266330000      2.3779610000
H                  4.3514300000      2.9374160000      1.4944630000
H                  5.2675370000      2.1927830000      0.1953760000
H                  6.4413570000      3.5570890000      2.6736970000
H                  6.4815880000      4.1794770000      1.0321810000
H                  8.7495740000      0.6113830000      1.9155020000
H                  7.8392870000      1.3585170000      3.2181290000
H                  7.9287870000      2.3057520000      0.3074760000
H                  8.6654240000      3.1145360000      1.6824150000
$end
$rem
MAX_SCF_CYCLES=200
BASIS  =  6-311++G(d,p)
GUI  =  2
JOB_TYPE  =  SP
METHOD  =  B3LYP
SCF_CONVERGENCE = 8
SCF_ALGORITHM = RCA_DIIS
THRESH = 14
scf_guess = GWH
SOLVENT_METHOD = PCM
$end
$pcm
theory = CPCM
$end
$solvent
dielectric 37.219
opticaldielectric 1.43
$end

--------------------------------------------------------------

             Standard Nuclear Orientation (Angstroms)
    I     Atom           X                Y                Z
 ----------------------------------------------------------------
    1      C      -6.3733680000     0.9728590000    -1.7877950000
    2      C      -6.4883440000     1.2609390000    -3.1442460000
    3      C      -5.5355660000     0.7782260000    -4.0432480000
    4      C      -5.3021630000     0.2005070000    -1.3323880000
    5      C      -4.3420410000    -0.2866430000    -2.2344590000
    6      C      -4.4663540000     0.0069360000    -3.5912230000
    7      C      -5.1663740000    -0.1136030000     0.1014350000
    8      C      -4.0014680000    -0.9373070000     0.5356130000
    9      C      -3.0680530000    -1.4268420000    -0.3171590000
   10      C      -3.1854200000    -1.1195520000    -1.7580560000
   11      O      -5.9532900000     0.2605170000     0.9638300000
   12      O      -2.3595650000    -1.5365340000    -2.5582610000
   13      O      -3.9573760000    -1.1639180000     1.8584430000
   14      C      -1.8971980000    -2.2441130000     0.1502940000
   15      H      -7.1000560000     1.3357420000    -1.0712660000
   16      H      -7.3177030000     1.8601620000    -3.5017070000
   17      H      -5.6268120000     1.0039550000    -5.0996710000
   18      H      -3.7187050000    -0.3754330000    -4.2749590000
   19      H      -4.7412050000    -0.7201230000     2.2348030000
   20      C      -0.6510770000    -1.3816630000     0.4434200000
   21      C       0.5486420000    -2.2332580000     0.8985670000
   22      C       1.7798760000    -1.4075900000     1.1957120000
   23      C       2.6831120000    -1.0665070000     0.1823030000
   24      C       2.0400490000    -0.9313540000     2.4832300000
   25      C       3.1594700000    -0.1431520000     2.7466100000
   26      C       4.0625950000     0.1999730000     1.7360280000
   27      C       3.8005890000    -0.2795490000     0.4460380000
   28      C       5.2813520000     1.0523740000     2.0409280000
   29      C       6.6073210000     0.2988000000     1.7931880000
   30      C       5.2756530000     2.3936300000     1.2739750000
   31      C       6.4985460000     3.2553590000     1.6195010000
   32      C       7.8294030000     1.1618540000     2.1379160000
   33      C       7.8119340000     2.4976160000     1.3822840000
   34      H      -1.6499770000    -2.9716310000    -0.6269080000
   35      H      -2.1789980000    -2.7916310000     1.0534280000
   36      H      -0.8892200000    -0.6456990000     1.2181430000
   37      H      -0.3778580000    -0.8214990000    -0.4557990000
   38      H       0.7785220000    -2.9678560000     0.1188810000
   39      H       0.2656370000    -2.8020400000     1.7911990000
   40      H       2.5119350000    -1.4266800000    -0.8278740000
   41      H       1.3627300000    -1.1834700000     3.2938800000
   42      H       3.3364280000     0.2076750000     3.7589480000
   43      H       4.4784690000    -0.0423510000    -0.3672720000
   44      H       5.2435840000     1.2938020000     3.1117360000
   45      H       6.6605490000    -0.0001510000     0.7388530000
   46      H       6.6169640000    -0.6266330000     2.3779610000
   47      H       4.3514300000     2.9374160000     1.4944630000
   48      H       5.2675370000     2.1927830000     0.1953760000
   49      H       6.4413570000     3.5570890000     2.6736970000
   50      H       6.4815880000     4.1794770000     1.0321810000
   51      H       8.7495740000     0.6113830000     1.9155020000
   52      H       7.8392870000     1.3585170000     3.2181290000
   53      H       7.9287870000     2.3057520000     0.3074760000
   54      H       8.6654240000     3.1145360000     1.6824150000
 ----------------------------------------------------------------

   98   -1194.3609121498      4.39E-09 Convergence criterion met
 Total energy in the final basis set = -1194.36091215

                    Orbital Energies (a.u.)
 --------------------------------------------------------------

 Alpha MOs
 -- Occupied --
-19.1784 -19.1497 -19.1302 -10.2937 -10.2815 -10.2674 -10.2106 -10.2094
-10.2039 -10.2006 -10.1986 -10.1970 -10.1968 -10.1786 -10.1767 -10.1766
-10.1710 -10.1705 -10.1704 -10.1701 -10.1696 -10.1695 -10.1687 -10.1587
-10.1587 -10.1576 -10.1575 -10.1568  -1.1085  -1.0674  -1.0639  -0.8925
 -0.8644  -0.8442  -0.8291  -0.8027  -0.7832  -0.7796  -0.7582  -0.7450
 -0.7362  -0.7279  -0.7011  -0.6778  -0.6545  -0.6353  -0.6132  -0.6075
 -0.6049  -0.6038  -0.5912  -0.5737  -0.5693  -0.5461  -0.5428  -0.5195
 -0.5001  -0.4976  -0.4805  -0.4762  -0.4718  -0.4690  -0.4668  -0.4537
 -0.4521  -0.4493  -0.4387  -0.4349  -0.4335  -0.4306  -0.4263  -0.4207
 -0.4159  -0.4113  -0.4055  -0.3998  -0.3886  -0.3849  -0.3776  -0.3769
 -0.3738  -0.3712  -0.3686  -0.3608  -0.3474  -0.3433  -0.3391  -0.3388
 -0.3332  -0.3276  -0.3116  -0.3038  -0.2990  -0.2969  -0.2900  -0.2804
 -0.2801  -0.2587  -0.2560  -0.2371

          Ground-State Mulliken Net Atomic Charges

     Atom                 Charge (a.u.)
  ----------------------------------------
      1 C                     0.165011
      2 C                    -0.417097
      3 C                    -0.455324
      4 C                     0.203856
      5 C                     0.286364
      6 C                     0.169150
      7 C                    -0.589086
      8 C                    -0.616093
      9 C                     1.723393
     10 C                    -0.843786
     11 O                    -0.322300
     12 O                    -0.290831
     13 O                    -0.230745
     14 C                    -0.407153
     15 H                     0.210944
     16 H                     0.221930
     17 H                     0.223984
     18 H                     0.202923
     19 H                     0.322336
     20 C                    -0.421758
     21 C                    -0.654973
     22 C                     1.000085
     23 C                    -0.373166
     24 C                    -0.539887
     25 C                    -0.395134
     26 C                     0.488355
     27 C                    -0.562759
     28 C                     0.283412
     29 C                    -0.463350
     30 C                    -0.458797
     31 C                    -0.414347
     32 C                    -0.400921
     33 C                    -0.395533
     34 H                     0.214971
     35 H                     0.237485
     36 H                     0.192664
     37 H                     0.197252
     38 H                     0.173863
     39 H                     0.163378
     40 H                     0.202912
     41 H                     0.203927
     42 H                     0.192967
     43 H                     0.204522
     44 H                     0.193178
     45 H                     0.148288
     46 H                     0.177057
     47 H                     0.176803
     48 H                     0.147793
     49 H                     0.135175
     50 H                     0.177296
     51 H                     0.176915
     52 H                     0.134794
     53 H                     0.120282
     54 H                     0.179774
  ----------------------------------------
  Sum of atomic charges =     0.000000

                    Cartesian Multipole Moments
 -----------------------------------------------------------------
    Charge (ESU x 10^10)
                 0.0000
    Dipole Moment (Debye)
         X      -2.1079      Y       2.0627      Z      -1.2085
       Tot       3.1872
    Quadrupole Moments (Debye-Ang)
        XX    -142.7528     XY      -3.0766     YY    -169.0287
        XZ      17.7272     YZ      -7.3292     ZZ    -155.5939

 Total job time:  4398.97s(wall), 26999.50s(cpu)
        *  Thank you very much for using Q-Chem.  Have a nice day.  *
