 Gaussian 16, Revision A.03,
 Gaussian 16:  ES64L-G16RevA.03 25-Dec-2016

 --------------------------------------
 #P UB3LYP/6-311++G(d,p) nosym opt freq
 --------------------------------------

 --------
 Oxidized
 --------
 Symbolic Z-matrix:
 Charge =  0 Multiplicity = 1

 SCF Done:  E(UB3LYP) =  -917.863879972     A.U. after   16 cycles
 SCF Done:  E(UB3LYP) =  -917.873269316     A.U. after   14 cycles
 SCF Done:  E(UB3LYP) =  -917.873902627     A.U. after   13 cycles
 SCF Done:  E(UB3LYP) =  -917.874440217     A.U. after   12 cycles
 SCF Done:  E(UB3LYP) =  -917.874453098     A.U. after   10 cycles
 SCF Done:  E(UB3LYP) =  -917.874453895     A.U. after   10 cycles
 SCF Done:  E(UB3LYP) =  -917.874454470     A.U. after    9 cycles
 Optimization completed.
    -- Stationary point found.
 Normal termination of Gaussian 16 at Thu Dec 21 19:28:00 2023.

 ----------------------------------------------------------------------
 #P Geom=AllCheck Guess=TCheck SCRF=Check GenChk UB3LYP/6-311++G(d,p) F
 req
 ----------------------------------------------------------------------

 Structure from the checkpoint file:  "211.chk"
 --------
 Oxidized
 --------
 Charge =  0 Multiplicity = 1

                          Input orientation:
 ---------------------------------------------------------------------
 Center     Atomic      Atomic             Coordinates (Angstroms)
 Number     Number       Type             X           Y           Z
 ---------------------------------------------------------------------
      1          6           0        5.277595   -2.321827    0.367436
      2          6           0        6.033532   -1.489417   -0.449854
      3          6           0        5.402977   -0.601487   -1.326131
      4          6           0        3.880394   -2.275387    0.317354
      5          6           0        3.251829   -1.384514   -0.561764
      6          6           0        4.015634   -0.548961   -1.382142
      7          6           0        3.099085   -3.187547    1.212995
      8          6           0        1.601300   -3.135427    1.156899
      9          6           0        0.995266   -2.236995    0.270806
     10          6           0        1.771065   -1.325833   -0.624006
     11          6           0        0.773301   -3.976935    1.982485
     12          6           0       -0.654241   -3.864558    1.867740
     13          6           0       -0.412294   -2.146136    0.177293
     14          6           0       -1.212972   -2.936417    0.952782
     15          8           0        3.711660   -3.940154    1.956295
     16          8           0        1.200379   -0.556809   -1.382757
     17          1           0        5.748312   -3.015680    1.052097
     18          1           0        7.116044   -1.530122   -0.406405
     19          1           0        5.995768    0.046168   -1.962024
     20          1           0       -2.292845   -2.862579    0.877011
     21          1           0        3.501553    0.129388   -2.051685
     22          1           0       -0.827213   -1.434448   -0.524389
     23          6           0       -1.503564   -4.673250    2.660971
     24          6           0       -0.976094   -5.577683    3.552340
     25          6           0        0.425242   -5.701819    3.678469
     26          6           0        1.269357   -4.929982    2.921537
     27          8           0       -1.732464   -6.387319    4.346734
     28          1           0       -2.578996   -4.566077    2.552383
     29          1           0        0.818248   -6.420990    4.387109
     30          1           0        2.334178   -5.042884    3.035626
     31          1           0       -2.668845   -6.226885    4.186190
 ---------------------------------------------------------------------

 SCF Done:  E(UB3LYP) =  -917.874454470     A.U. after    1 cycles

 Alpha  occ. eigenvalues --  -19.17638 -19.12559 -19.12411 -10.28145 -10.27566
 Alpha  occ. eigenvalues --  -10.25821 -10.21637 -10.21093 -10.20887 -10.20804
 Alpha  occ. eigenvalues --  -10.20662 -10.20494 -10.20032 -10.19979 -10.19884
 Alpha  occ. eigenvalues --  -10.19707 -10.19636 -10.19233 -10.19183 -10.19004
 Alpha  occ. eigenvalues --  -10.18749  -1.08811  -1.06186  -1.05792  -0.90027
 Alpha  occ. eigenvalues --   -0.88741  -0.85012  -0.81226  -0.78764  -0.77722
 Alpha  occ. eigenvalues --   -0.76744  -0.74711  -0.69298  -0.66595  -0.66008
 Alpha  occ. eigenvalues --   -0.63652  -0.62348  -0.58939  -0.58020  -0.56031
 Alpha  occ. eigenvalues --   -0.54387  -0.52570  -0.50671  -0.49351  -0.49090
 Alpha  occ. eigenvalues --   -0.47935  -0.46104  -0.45693  -0.45394  -0.45035
 Alpha  occ. eigenvalues --   -0.44387  -0.43498  -0.43498  -0.43053  -0.41618
 Alpha  occ. eigenvalues --   -0.41397  -0.39637  -0.39552  -0.39000  -0.37705
 Alpha  occ. eigenvalues --   -0.37274  -0.36923  -0.35898  -0.32907  -0.30568
 Alpha  occ. eigenvalues --   -0.28320  -0.27959  -0.27718  -0.26698  -0.25762
 Alpha  occ. eigenvalues --   -0.23777
 Alpha virt. eigenvalues --   -0.11927  -0.07055  -0.05189  -0.03066  -0.02123
 Alpha virt. eigenvalues --   -0.01196  -0.00735   0.00142   0.00921   0.01495
 Alpha virt. eigenvalues --    0.02235   0.02676   0.03137   0.03633   0.03642

  Beta  occ. eigenvalues --  -19.17638 -19.12559 -19.12411 -10.28145 -10.27566
  Beta  occ. eigenvalues --  -10.25821 -10.21637 -10.21093 -10.20887 -10.20804
  Beta  occ. eigenvalues --  -10.20662 -10.20494 -10.20032 -10.19979 -10.19884
  Beta  occ. eigenvalues --  -10.19707 -10.19636 -10.19233 -10.19183 -10.19004
  Beta  occ. eigenvalues --  -10.18749  -1.08811  -1.06186  -1.05792  -0.90027
  Beta  occ. eigenvalues --   -0.88741  -0.85012  -0.81226  -0.78764  -0.77722
  Beta  occ. eigenvalues --   -0.76744  -0.74711  -0.69298  -0.66595  -0.66008
  Beta  occ. eigenvalues --   -0.63652  -0.62348  -0.58939  -0.58020  -0.56031
  Beta  occ. eigenvalues --   -0.54387  -0.52570  -0.50671  -0.49351  -0.49090
  Beta  occ. eigenvalues --   -0.47935  -0.46104  -0.45693  -0.45394  -0.45035
  Beta  occ. eigenvalues --   -0.44387  -0.43498  -0.43498  -0.43053  -0.41618
  Beta  occ. eigenvalues --   -0.41397  -0.39637  -0.39552  -0.39000  -0.37705
  Beta  occ. eigenvalues --   -0.37274  -0.36923  -0.35898  -0.32907  -0.30568
  Beta  occ. eigenvalues --   -0.28320  -0.27959  -0.27718  -0.26698  -0.25762
  Beta  occ. eigenvalues --   -0.23777
  Beta virt. eigenvalues --   -0.11927  -0.07055  -0.05189  -0.03066  -0.02123
  Beta virt. eigenvalues --   -0.01196  -0.00735   0.00142   0.00921   0.01495
  Beta virt. eigenvalues --    0.02235   0.02676   0.03137   0.03633   0.03642

 Mulliken charges and spin densities:
               1          2
     1  C    0.063104  -0.000000
     2  C   -0.378837  -0.000000
     3  C   -0.397413   0.000000
     4  C    0.193567   0.000000
     5  C    0.134509   0.000000
     6  C   -0.008987  -0.000000
     7  C   -0.791363   0.000000
     8  C    0.758063  -0.000000
     9  C    0.782677   0.000000
    10  C   -0.995331  -0.000000
    11  C    0.969903  -0.000000
    12  C    0.701337   0.000000
    13  C   -0.210461  -0.000000
    14  C   -0.415918   0.000000
    15  O   -0.175996   0.000000
    16  O   -0.203505   0.000000
    17  H    0.177682  -0.000000
    18  H    0.176873  -0.000000
    19  H    0.175621  -0.000000
    20  H    0.153178  -0.000000
    21  H    0.180520   0.000000
    22  H    0.181813  -0.000000
    23  C   -0.307701  -0.000000
    24  C   -0.434833  -0.000000
    25  C   -0.388688   0.000000
    26  C   -0.458365   0.000000
    27  O   -0.220153   0.000000
    28  H    0.097328   0.000000
    29  H    0.209890  -0.000000
    30  H    0.158708   0.000000
    31  H    0.272778   0.000000
 Sum of Mulliken charges =  -0.00000   0.00000

 Dipole moment (field-independent basis, Debye):
    X=             -1.1746    Y=             -0.2297    Z=              0.2214  Tot=              1.2171
 Quadrupole moment (field-independent basis, Debye-Ang):
   XX=            -94.7011   YY=           -123.1755   ZZ=           -124.1642
   XY=             15.1225   XZ=            -12.5309   YZ=             -0.5238

  Exact polarizability: 292.334  44.617 210.370 -43.334-107.338 206.691
 Approx polarizability: 463.979  16.969 369.162 -15.797-199.433 362.739

                      1                      2                      3
                      A                      A                      A
 Frequencies --     15.1803                48.6577                75.5418
 Red. masses --      8.6773                 5.3941                 6.4116
 Frc consts  --      0.0012                 0.0075                 0.0216
 IR Inten    --      3.5603                 2.0660                 0.6167

                      4                      5                      6
                      A                      A                      A
 Frequencies --    110.3530               154.4003               161.6300
 Red. masses --      4.7761                 6.2948                 7.2336
 Frc consts  --      0.0343                 0.0884                 0.1113
 IR Inten    --      0.0673                 1.4409                 1.6626

                      7                      8                      9
                      A                      A                      A
 Frequencies --    177.8859               241.6961               271.5231
 Red. masses --      4.7828                 4.9526                 6.4411
 Frc consts  --      0.0892                 0.1705                 0.2798
 IR Inten    --      0.2668                 0.5003                 0.4505

                     10                     11                     12
                      A                      A                      A
 Frequencies --    286.8180               320.3573               340.1000
 Red. masses --      6.8631                 2.6830                 8.4891
 Frc consts  --      0.3326                 0.1622                 0.5785
 IR Inten    --      0.8754                19.6646                 0.1102

                     13                     14                     15
                      A                      A                      A
 Frequencies --    357.5006               390.3757               405.6466
 Red. masses --      1.4520                 7.0602                 3.5381
 Frc consts  --      0.1093                 0.6339                 0.3430
 IR Inten    --     88.3175                11.2690                 1.0442

                     16                     17                     18
                      A                      A                      A
 Frequencies --    410.9501               428.4311               453.1965
 Red. masses --      9.8094                 3.2661                 4.6581
 Frc consts  --      0.9760                 0.3532                 0.5637
 IR Inten    --      8.9072                 0.1675                 2.7046

                     19                     20                     21
                      A                      A                      A
 Frequencies --    466.6721               477.0548               505.0650
 Red. masses --      5.5474                 8.7119                 3.3653
 Frc consts  --      0.7118                 1.1682                 0.5058
 IR Inten    --      7.9170                18.6148                17.7635

                     22                     23                     24
                      A                      A                      A
 Frequencies --    521.5364               553.7346               558.6374
 Red. masses --      7.8706                 7.0043                 4.6403
 Frc consts  --      1.2613                 1.2654                 0.8532
 IR Inten    --     19.9094                12.9937                 1.3379

                     25                     26                     27
                      A                      A                      A
 Frequencies --    627.8617               641.9714               661.4456
 Red. masses --      6.6747                 3.6722                 6.8667
 Frc consts  --      1.5503                 0.8917                 1.7700
 IR Inten    --      6.9746                 0.2036                 7.1367

                     28                     29                     30
                      A                      A                      A
 Frequencies --    691.5549               696.5014               734.8846
 Red. masses --      7.2490                 4.6351                 2.2619
 Frc consts  --      2.0426                 1.3248                 0.7197
 IR Inten    --      0.0647                 1.2717                58.6863

                     31                     32                     33
                      A                      A                      A
 Frequencies --    741.1823               743.7845               792.0141
 Red. masses --      4.8005                 6.9637                 4.5491
 Frc consts  --      1.5538                 2.2698                 1.6813
 IR Inten    --      5.2770                 3.7345                 1.2506

                     34                     35                     36
                      A                      A                      A
 Frequencies --    796.5175               805.3237               826.0500
 Red. masses --      6.2818                 1.6691                 1.5425
 Frc consts  --      2.3481                 0.6378                 0.6201
 IR Inten    --      9.2181                15.1194                 0.0006

                     37                     38                     39
                      A                      A                      A
 Frequencies --    831.2645               847.7796               868.6617
 Red. masses --      6.3767                 1.6195                 1.5906
 Frc consts  --      2.5961                 0.6858                 0.7071
 IR Inten    --     13.1946                27.1338                45.9560

                     40                     41                     42
                      A                      A                      A
 Frequencies --    909.3947               914.9166               972.6834
 Red. masses --      6.8623                 1.3734                 3.9231
 Frc consts  --      3.3437                 0.6773                 2.1869
 IR Inten    --      5.0326                 0.0760                 2.3041

                     43                     44                     45
                      A                      A                      A
 Frequencies --   1001.6014              1003.8759              1007.4286
 Red. masses --      1.3387                 1.3099                 5.0426
 Frc consts  --      0.7913                 0.7778                 3.0153
 IR Inten    --      0.3811                 2.3350               145.6248

                     46                     47                     48
                      A                      A                      A
 Frequencies --   1008.5184              1017.1321              1056.2514
 Red. masses --      1.3095                 1.3223                 2.2710
 Frc consts  --      0.7847                 0.8060                 1.4928
 IR Inten    --      0.1222                 0.0005                 1.1646

                     49                     50                     51
                      A                      A                      A
 Frequencies --   1074.8341              1115.9116              1167.7212
 Red. masses --      3.3221                 2.1154                 1.3846
 Frc consts  --      2.2613                 1.5520                 1.1124
 IR Inten    --     21.4170                 5.0083                35.4177

                     52                     53                     54
                      A                      A                      A
 Frequencies --   1175.8252              1182.8150              1193.0730
 Red. masses --      1.4658                 1.2307                 1.6047
 Frc consts  --      1.1940                 1.0145                 1.3458
 IR Inten    --     82.0678                16.5049                38.8842

                     55                     56                     57
                      A                      A                      A
 Frequencies --   1198.6888              1208.0054              1239.1023
 Red. masses --      1.8656                 1.7219                 2.1064
 Frc consts  --      1.5793                 1.4805                 1.9055
 IR Inten    --    178.3248                51.1055                95.4636

                     58                     59                     60
                      A                      A                      A
 Frequencies --   1275.8320              1285.9821              1314.7137
 Red. masses --      2.2020                 2.1335                 2.1930
 Frc consts  --      2.1118                 2.0788                 2.2334
 IR Inten    --    129.5221               264.5583                 2.7935

                     61                     62                     63
                      A                      A                      A
 Frequencies --   1320.0615              1360.4391              1365.6722
 Red. masses --      3.7641                 7.4798                 3.8974
 Frc consts  --      3.8645                 8.1564                 4.2827
 IR Inten    --    345.0147                10.6906                 9.0614

                     64                     65                     66
                      A                      A                      A
 Frequencies --   1390.8184              1411.1478              1446.6902
 Red. masses --      6.5489                 3.9665                 3.0493
 Frc consts  --      7.4638                 4.6538                 3.7602
 IR Inten    --     66.3173                17.5937                15.5566

                     67                     68                     69
                      A                      A                      A
 Frequencies --   1480.5712              1498.3368              1510.0841
 Red. masses --      2.3890                 2.7240                 2.6075
 Frc consts  --      3.0856                 3.6030                 3.5033
 IR Inten    --      2.1917               197.8567                 2.5849

                     70                     71                     72
                      A                      A                      A
 Frequencies --   1548.5301              1596.8366              1620.7614
 Red. masses --      3.6428                 7.3584                 7.3007
 Frc consts  --      5.1467                11.0549                11.2994
 IR Inten    --     35.1813                 4.2075                 3.6165

                     73                     74                     75
                      A                      A                      A
 Frequencies --   1627.6080              1634.3045              1656.4502
 Red. masses --      5.8910                 6.2623                 6.1096
 Frc consts  --      9.1948                 9.8548                 9.8769
 IR Inten    --     85.0365                 7.9774               212.3055

                     76                     77                     78
                      A                      A                      A
 Frequencies --   1705.6968              1717.0782              3150.1073
 Red. masses --     12.0369                12.1780                 1.0905
 Frc consts  --     20.6332                21.1547                 6.3757
 IR Inten    --     15.4466               318.8270                17.7410

                     79                     80                     81
                      A                      A                      A
 Frequencies --   3165.5291              3169.8028              3184.4908
 Red. masses --      1.0897                 1.0870                 1.0922
 Frc consts  --      6.4333                 6.4351                 6.5256
 IR Inten    --     13.6751                 3.6438                12.9693

                     82                     83                     84
                      A                      A                      A
 Frequencies --   3190.5871              3201.4123              3205.6781
 Red. masses --      1.0912                 1.0932                 1.0936
 Frc consts  --      6.5446                 6.6011                 6.6216
 IR Inten    --      3.3242                 3.8695                10.2000

                     85                     86                     87
                      A                      A                      A
 Frequencies --   3207.3227              3260.9564              3826.0998
 Red. masses --      1.0928                 1.0916                 1.0661
 Frc consts  --      6.6235                 6.8395                 9.1950
 IR Inten    --      4.4559                17.4402                97.0559

 - Thermochemistry -
 -------------------
 Temperature   298.150 Kelvin.  Pressure   1.00000 Atm.
 Atom     1 has atomic number  6 and mass  12.00000

 Molecular mass:   274.06299 amu.
 Principal axes and moments of inertia in atomic units:
                           1         2         3
     Eigenvalues --  2294.480789446.98228**********
           X            0.68156   0.73176  -0.00218
           Y            0.52257  -0.48462   0.70147
           Z           -0.51225   0.47923   0.71270
 This molecule is an asymmetric top.
 Rotational symmetry number  1.
 Warning -- assumption of classical behavior for rotation
           may cause significant error
 Rotational temperatures (Kelvin)      0.03775     0.00917     0.00738
 Rotational constants (GHZ):           0.78656     0.19104     0.15371
 Zero-point vibrational energy     603020.3 (Joules/Mol)
                                  144.12531 (Kcal/Mol)
 Warning -- explicit consideration of  24 degrees of freedom as
           vibrations may cause significant error
 Vibrational temperatures:     21.84    70.01   108.69   158.77   222.15
          (Kelvin)            232.55   255.94   347.75   390.66   412.67
                              460.92   489.33   514.36   561.66   583.63
                              591.27   616.42   652.05   671.44   686.38
                              726.68   750.37   796.70   803.75   903.35
                              923.65   951.67   994.99  1002.11  1057.34
                             1066.40  1070.14  1139.53  1146.01  1158.68
                             1188.50  1196.00  1219.77  1249.81  1308.42
                             1316.36  1399.47  1441.08  1444.35  1449.47
                             1451.03  1463.43  1519.71  1546.45  1605.55
                             1680.09  1691.75  1701.81  1716.57  1724.65
                             1738.05  1782.79  1835.64  1850.24  1891.58
                             1899.27  1957.37  1964.90  2001.08  2030.33
                             2081.46  2130.21  2155.77  2172.67  2227.99
                             2297.49  2331.91  2341.76  2351.40  2383.26
                             2454.12  2470.49  4532.30  4554.49  4560.64
                             4581.77  4590.54  4606.12  4612.26  4614.62
                             4691.79  5504.90

 Zero-point correction=                           0.229678 (Hartree/Particle)
 Thermal correction to Energy=                    0.244966
 Thermal correction to Enthalpy=                  0.245911
 Thermal correction to Gibbs Free Energy=         0.186162
 Sum of electronic and zero-point Energies=           -917.644776
 Sum of electronic and thermal Energies=              -917.629488
 Sum of electronic and thermal Enthalpies=            -917.628544
 Sum of electronic and thermal Free Energies=         -917.688293

                     E (Thermal)             CV                S
                      KCal/Mol        Cal/Mol-Kelvin    Cal/Mol-Kelvin
 Total                  153.719             62.319            125.752
 Electronic               0.000              0.000              0.000
 Translational            0.889              2.981             42.723
 Rotational               0.889              2.981             33.897
 Vibrational            151.941             56.358             49.131
 Vibration     1          0.593              1.986              7.182
 Vibration     2          0.595              1.978              4.871
 Vibration     3          0.599              1.965              4.003
 Vibration     4          0.606              1.941              3.263
 Vibration     5          0.620              1.898              2.617
 Vibration     6          0.622              1.889              2.531
 Vibration     7          0.628              1.870              2.350
 Vibration     8          0.658              1.776              1.790
 Vibration     9          0.675              1.726              1.586
 Vibration    10          0.684              1.698              1.493
 Vibration    11          0.706              1.635              1.308
 Vibration    12          0.720              1.595              1.212
 Vibration    13          0.733              1.560              1.133
 Vibration    14          0.758              1.491              0.999
 Vibration    15          0.771              1.458              0.942
 Vibration    16          0.775              1.446              0.923
 Vibration    17          0.790              1.408              0.864
 Vibration    18          0.812              1.354              0.786
 Vibration    19          0.824              1.324              0.747
 Vibration    20          0.834              1.301              0.718
 Vibration    21          0.860              1.239              0.646
 Vibration    22          0.877              1.202              0.606
 Vibration    23          0.909              1.132              0.536
 Vibration    24          0.914              1.121              0.527

                           ! Non-Optimized Parameters !
 Normal termination of Gaussian 16 at Thu Dec 21 20:22:31 2023.
