 Gaussian 16, Revision A.03,
 Gaussian 16:  ES64L-G16RevA.03 25-Dec-2016

 ----------------------------------------------------------------------
 #P UB3LYP/6-311++G(d,p) nosym opt freq SCRF=(PCM,Solvent=n,n-DiMethylF
 ormamide)
 ----------------------------------------------------------------------

 -------
 Radical
 -------
 Symbolic Z-matrix:
 Charge = -1 Multiplicity = 2

 SCF Done:  E(UB3LYP) =  -914.848902064     A.U. after   20 cycles
 SCF Done:  E(UB3LYP) =  -914.849266187     A.U. after   15 cycles
 SCF Done:  E(UB3LYP) =  -914.849314170     A.U. after   14 cycles
 SCF Done:  E(UB3LYP) =  -914.849292309     A.U. after   14 cycles
 SCF Done:  E(UB3LYP) =  -914.849313063     A.U. after   14 cycles
 SCF Done:  E(UB3LYP) =  -914.849319497     A.U. after   14 cycles
 SCF Done:  E(UB3LYP) =  -914.849321820     A.U. after   13 cycles
 SCF Done:  E(UB3LYP) =  -914.849323178     A.U. after   11 cycles
 SCF Done:  E(UB3LYP) =  -914.849323823     A.U. after   11 cycles
 SCF Done:  E(UB3LYP) =  -914.849324077     A.U. after   12 cycles
 SCF Done:  E(UB3LYP) =  -914.849324484     A.U. after   11 cycles
 SCF Done:  E(UB3LYP) =  -914.849324562     A.U. after    9 cycles
 SCF Done:  E(UB3LYP) =  -914.849324579     A.U. after    9 cycles
 Optimization completed.
    -- Stationary point found.
 Normal termination of Gaussian 16 at Sun Feb 11 00:05:50 2024.

 ----------------------------------------------------------------------
 #P Geom=AllCheck Guess=TCheck SCRF=Check GenChk UB3LYP/6-311++G(d,p) F
 req
 ----------------------------------------------------------------------

 Structure from the checkpoint file:  "200-rad.chk"
 -------
 Radical
 -------
 Charge = -1 Multiplicity = 2

                          Input orientation:
 ---------------------------------------------------------------------
 Center     Atomic      Atomic             Coordinates (Angstroms)
 Number     Number       Type             X           Y           Z
 ---------------------------------------------------------------------
      1          8           0        4.396039   -1.505395   -0.412564
      2          6           0        3.255831   -0.757974   -0.315254
      3          6           0        3.336977    0.633257   -0.373899
      4          6           0        2.190740    1.415266   -0.276130
      5          8           0        2.315917    2.778355   -0.344038
      6          6           0        0.905814    0.827732   -0.112382
      7          6           0       -0.320289    1.618243    0.003933
      8          8           0       -0.340682    2.873090   -0.009943
      9          6           0       -1.583642    0.872238    0.145910
     10          6           0       -2.794334    1.589542    0.242130
     11          6           0       -4.006736    0.939416    0.377726
     12          6           0       -4.046191   -0.470365    0.423810
     13          6           0       -2.876739   -1.196599    0.331793
     14          6           0       -1.625592   -0.548030    0.190358
     15          6           0       -0.411686   -1.320366    0.093001
     16          8           0       -0.439260   -2.613910    0.137434
     17          6           0        0.839648   -0.612723   -0.059825
     18          6           0        2.024447   -1.382262   -0.161197
     19          8           0        2.017711   -2.742446   -0.115366
     20          1           0        4.136783   -2.437154   -0.352754
     21          1           0        4.309345    1.098524   -0.498474
     22          1           0        3.249953    2.992101   -0.459701
     23          1           0       -2.747260    2.670849    0.204872
     24          1           0       -4.926250    1.510031    0.448431
     25          1           0       -4.996798   -0.981732    0.530868
     26          1           0       -2.891373   -2.278869    0.364937
     27          1           0        1.027626   -2.970818   -0.003673
 ---------------------------------------------------------------------

 SCF Done:  E(UB3LYP) =  -914.849324579     A.U. after    1 cycles

 Alpha  occ. eigenvalues --  -19.15867 -19.15306 -19.13148 -19.08835 -19.07408
 Alpha  occ. eigenvalues --  -10.24242 -10.23559 -10.23251 -10.22877 -10.22785
 Alpha  occ. eigenvalues --  -10.18261 -10.17846 -10.17590 -10.17446 -10.17437
 Alpha  occ. eigenvalues --  -10.17416 -10.17297 -10.17192 -10.17109  -1.07671
 Alpha  occ. eigenvalues --   -1.06517  -1.04535  -1.00205  -0.99807  -0.86324
 Alpha  occ. eigenvalues --   -0.84901  -0.78908  -0.75322  -0.74483  -0.73945
 Alpha  occ. eigenvalues --   -0.67447  -0.65280  -0.63306  -0.60591  -0.58474
 Alpha  occ. eigenvalues --   -0.57089  -0.53789  -0.52521  -0.50809  -0.49423
 Alpha  occ. eigenvalues --   -0.48032  -0.46450  -0.45308  -0.44823  -0.43783
 Alpha  occ. eigenvalues --   -0.42531  -0.41889  -0.41431  -0.41099  -0.40793
 Alpha  occ. eigenvalues --   -0.40559  -0.38165  -0.37910  -0.37385  -0.36803
 Alpha  occ. eigenvalues --   -0.36465  -0.35563  -0.34781  -0.33887  -0.30418
 Alpha  occ. eigenvalues --   -0.26572  -0.25822  -0.25811  -0.24443  -0.23568
 Alpha  occ. eigenvalues --   -0.21484  -0.14223
 Alpha virt. eigenvalues --   -0.04971  -0.02202  -0.00489   0.00280   0.00453
 Alpha virt. eigenvalues --    0.00792   0.01916   0.02243   0.03880   0.04211
 Alpha virt. eigenvalues --    0.04428   0.04539   0.05097   0.06155   0.06255

  Beta  occ. eigenvalues --  -19.15838 -19.15287 -19.13075 -19.08316 -19.06962
  Beta  occ. eigenvalues --  -10.24236 -10.23484 -10.23158 -10.22676 -10.22559
  Beta  occ. eigenvalues --  -10.18283 -10.17807 -10.17572 -10.17439 -10.17338
  Beta  occ. eigenvalues --  -10.17320 -10.17208 -10.17138 -10.17136  -1.07563
  Beta  occ. eigenvalues --   -1.06475  -1.04316  -0.99438  -0.98932  -0.86068
  Beta  occ. eigenvalues --   -0.84774  -0.78534  -0.75073  -0.74330  -0.73706
  Beta  occ. eigenvalues --   -0.66776  -0.65122  -0.63031  -0.60480  -0.58384
  Beta  occ. eigenvalues --   -0.56906  -0.53582  -0.52413  -0.50693  -0.49277
  Beta  occ. eigenvalues --   -0.47783  -0.46349  -0.45152  -0.44202  -0.43658
  Beta  occ. eigenvalues --   -0.42483  -0.41564  -0.41004  -0.40663  -0.40437
  Beta  occ. eigenvalues --   -0.39774  -0.38056  -0.37309  -0.37046  -0.36676
  Beta  occ. eigenvalues --   -0.35429  -0.35128  -0.33826  -0.33766  -0.29625
  Beta  occ. eigenvalues --   -0.25395  -0.25181  -0.24969  -0.23947  -0.23152
  Beta  occ. eigenvalues --   -0.20433
  Beta virt. eigenvalues --   -0.08647  -0.03965  -0.01243  -0.00469   0.00285
  Beta virt. eigenvalues --    0.00469   0.01304   0.01919   0.02261   0.03897
  Beta virt. eigenvalues --    0.04225   0.04441   0.04640   0.05892   0.06170

 Mulliken charges and spin densities:
               1          2
     1  O   -0.306184   0.008673
     2  C   -0.391408   0.048045
     3  C    0.117007   0.057818
     4  C   -0.182928   0.015127
     5  O   -0.238554   0.004327
     6  C    0.441395   0.019103
     7  C   -0.272200   0.040667
     8  O   -0.449592   0.166950
     9  C   -0.197345   0.071268
    10  C    0.096664  -0.008053
    11  C   -0.528418   0.080486
    12  C   -0.488789  -0.004190
    13  C    0.062409   0.075474
    14  C    0.209089  -0.020604
    15  C   -0.280279   0.192335
    16  O   -0.509958   0.187628
    17  C    0.850880  -0.031535
    18  C   -0.334359   0.093096
    19  O   -0.492052   0.022928
    20  H    0.308927  -0.000332
    21  H    0.194123  -0.005495
    22  H    0.295495  -0.000630
    23  H    0.162417   0.000939
    24  H    0.180644  -0.005759
    25  H    0.182177  -0.000443
    26  H    0.167863  -0.003261
    27  H    0.402975  -0.004562
 Sum of Mulliken charges =  -1.00000   1.00000

 Dipole moment (field-independent basis, Debye):
    X=              0.2437    Y=             -0.4943    Z=             -0.1599  Tot=              0.5738
 Quadrupole moment (field-independent basis, Debye-Ang):
   XX=           -111.6637   YY=           -144.4651   ZZ=           -115.4830
   XY=              8.6072   XZ=             -0.6855   YZ=             -0.3484

  Exact polarizability: 488.665 -19.090 358.943 -36.525  -4.624 134.885
 Approx polarizability: 509.731 -21.481 437.241 -36.572  -6.062 155.047

                      1                      2                      3
                      A                      A                      A
 Frequencies --     41.7553                63.7675               110.3801
 Red. masses --      7.5896                 7.3672                 6.3981
 Frc consts  --      0.0078                 0.0177                 0.0459
 IR Inten    --     14.3914                 1.0499                 0.7907

                      4                      5                      6
                      A                      A                      A
 Frequencies --    133.9148               166.0744               197.6150
 Red. masses --      6.7272                 7.7106                 5.9367
 Frc consts  --      0.0711                 0.1253                 0.1366
 IR Inten    --      0.2405                 0.2142                 7.4800

                      7                      8                      9
                      A                      A                      A
 Frequencies --    204.4159               279.2053               286.3915
 Red. masses --      5.9358                 5.4133                 5.7233
 Frc consts  --      0.1461                 0.2486                 0.2766
 IR Inten    --      1.7211                 0.0005                13.7865

                     10                     11                     12
                      A                      A                      A
 Frequencies --    312.0838               344.2075               353.9229
 Red. masses --      7.2272                 6.7682                 1.2824
 Frc consts  --      0.4147                 0.4725                 0.0946
 IR Inten    --      4.4549                 0.1468                84.5670

                     13                     14                     15
                      A                      A                      A
 Frequencies --    361.8464               393.4241               409.4252
 Red. masses --      9.8855                 5.0514                 6.7027
 Frc consts  --      0.7626                 0.4607                 0.6620
 IR Inten    --      2.1598                31.1058                57.5693

                     16                     17                     18
                      A                      A                      A
 Frequencies --    414.7351               426.5783               429.8003
 Red. masses --      1.6035                 2.0428                10.7266
 Frc consts  --      0.1625                 0.2190                 1.1675
 IR Inten    --    137.1168                89.7586                65.7091

                     19                     20                     21
                      A                      A                      A
 Frequencies --    448.6988               470.9026               510.6462
 Red. masses --      4.0568                10.3252                 8.4326
 Frc consts  --      0.4812                 1.3490                 1.2956
 IR Inten    --      0.7669                 2.3379                 1.3843

                     22                     23                     24
                      A                      A                      A
 Frequencies --    518.3161               531.8432               586.4624
 Red. masses --      4.1699                 8.9313                 7.6007
 Frc consts  --      0.6600                 1.4884                 1.5402
 IR Inten    --      0.8685                24.6991                72.8309

                     25                     26                     27
                      A                      A                      A
 Frequencies --    628.5299               652.6104               657.4331
 Red. masses --      4.4032                 7.0012                 6.4433
 Frc consts  --      1.0249                 1.7568                 1.6408
 IR Inten    --      5.1254                 8.5048                18.8976

                     28                     29                     30
                      A                      A                      A
 Frequencies --    702.3357               717.7926               724.3009
 Red. masses --      6.9011                 5.3820                 2.7618
 Frc consts  --      2.0057                 1.6338                 0.8537
 IR Inten    --     10.5275                32.6342                52.2713

                     31                     32                     33
                      A                      A                      A
 Frequencies --    735.0517               777.8197               797.9342
 Red. masses --      6.6026                 2.4970                 2.5104
 Frc consts  --      2.1019                 0.8901                 0.9417
 IR Inten    --     33.2768                43.2298                39.7209

                     34                     35                     36
                      A                      A                      A
 Frequencies --    804.1020               840.0957               881.6311
 Red. masses --      1.6806                 7.6507                 1.4680
 Frc consts  --      0.6402                 3.1813                 0.6723
 IR Inten    --     25.3960               112.1016                 0.5719

                     37                     38                     39
                      A                      A                      A
 Frequencies --    902.9054               925.6954               944.8272
 Red. masses --      8.1919                 1.0518                 6.6054
 Frc consts  --      3.9348                 0.5310                 3.4742
 IR Inten    --     76.4434               123.6610               223.7218

                     40                     41                     42
                      A                      A                      A
 Frequencies --    986.6862              1000.1122              1033.7844
 Red. masses --      1.3667                 1.2916                 2.7508
 Frc consts  --      0.7839                 0.7612                 1.7321
 IR Inten    --      1.6562                 0.1136                71.6227

                     43                     44                     45
                      A                      A                      A
 Frequencies --   1065.9359              1110.4211              1131.3852
 Red. masses --      3.3016                 2.5642                 3.5761
 Frc consts  --      2.2103                 1.8628                 2.6970
 IR Inten    --    128.4992                 3.4706               168.4192

                     46                     47                     48
                      A                      A                      A
 Frequencies --   1156.0376              1192.3619              1199.1480
 Red. masses --      1.4011                 1.5009                 1.7299
 Frc consts  --      1.1032                 1.2572                 1.4656
 IR Inten    --      4.8881                42.9537                98.3388

                     49                     50                     51
                      A                      A                      A
 Frequencies --   1215.5198              1239.3509              1245.0846
 Red. masses --      1.8384                 2.3061                 3.2890
 Frc consts  --      1.6004                 2.0870                 3.0041
 IR Inten    --     72.6662               202.7118               140.8734

                     52                     53                     54
                      A                      A                      A
 Frequencies --   1287.9900              1297.0675              1330.0934
 Red. masses --      2.4079                 4.7189                 3.5745
 Frc consts  --      2.3535                 4.6775                 3.7259
 IR Inten    --    162.8165                89.9605               962.1221

                     55                     56                     57
                      A                      A                      A
 Frequencies --   1360.1767              1383.9810              1407.8214
 Red. masses --     10.1645                 3.6036                 2.6834
 Frc consts  --     11.0796                 4.0668                 3.1336
 IR Inten    --     17.7829               581.0233               422.8856

                     58                     59                     60
                      A                      A                      A
 Frequencies --   1409.9561              1472.0579              1480.3877
 Red. masses --      4.7733                 3.0352                 2.7819
 Frc consts  --      5.5909                 3.8751                 3.5921
 IR Inten    --    499.7938               151.2343                 4.8843

                     61                     62                     63
                      A                      A                      A
 Frequencies --   1489.4719              1530.4534              1549.5307
 Red. masses --      2.4812                 7.0356                 3.2362
 Frc consts  --      3.2432                 9.7094                 4.5780
 IR Inten    --    553.9113              1081.3378                50.8427

                     64                     65                     66
                      A                      A                      A
 Frequencies --   1581.8216              1619.9154              1623.2405
 Red. masses --      5.2402                 5.5210                 4.6173
 Frc consts  --      7.7253                 8.5360                 7.1680
 IR Inten    --    290.1267                69.2801               142.6130

                     67                     68                     69
                      A                      A                      A
 Frequencies --   1652.6080              2689.7006              3160.5171
 Red. masses --      4.8745                 1.0764                 1.0862
 Frc consts  --      7.8437                 4.5882                 6.3926
 IR Inten    --    129.7871               957.7952                14.5723

                     70                     71                     72
                      A                      A                      A
 Frequencies --   3166.3436              3174.8526              3193.0177
 Red. masses --      1.0911                 1.0908                 1.0917
 Frc consts  --      6.4453                 6.4779                 6.5579
 IR Inten    --     13.7693                24.2859                14.7657

                     73                     74                     75
                      A                      A                      A
 Frequencies --   3196.1323              3741.4028              3796.6561
 Red. masses --      1.0940                 1.0654                 1.0660
 Frc consts  --      6.5845                 8.7866                 9.0536
 IR Inten    --     38.9480               171.4089               119.3578

 - Thermochemistry -
 -------------------
 Temperature   298.150 Kelvin.  Pressure   1.00000 Atm.
 Atom     1 has atomic number  8 and mass  15.99491

 Molecular mass:   256.03717 amu.
 Principal axes and moments of inertia in atomic units:
                           1         2         3
     Eigenvalues --  2648.619895823.909878472.17943
           X            0.98472   0.14007   0.10352
           Y           -0.14388   0.98913   0.03028
           Z           -0.09815  -0.04471   0.99417
 This molecule is an asymmetric top.
 Rotational symmetry number  1.
 Warning -- assumption of classical behavior for rotation
           may cause significant error
 Rotational temperatures (Kelvin)      0.03270     0.01487     0.01022
 Rotational constants (GHZ):           0.68139     0.30988     0.21302
 Zero-point vibrational energy     495615.9 (Joules/Mol)
                                  118.45503 (Kcal/Mol)
 Warning -- explicit consideration of  24 degrees of freedom as
           vibrations may cause significant error
 Vibrational temperatures:     60.08    91.75   158.81   192.67   238.94
          (Kelvin)            284.32   294.11   401.71   412.05   449.02
                              495.24   509.22   520.62   566.05   589.07
                              596.71   613.75   618.39   645.58   677.52
                              734.71   745.74   765.20   843.79   904.31
                              938.96   945.90  1010.50  1032.74  1042.11
                             1057.58  1119.11  1148.05  1156.92  1208.71
                             1268.47  1299.08  1331.87  1359.40  1419.62
                             1438.94  1487.39  1533.64  1597.65  1627.81
                             1663.28  1715.54  1725.31  1748.86  1783.15
                             1791.40  1853.13  1866.19  1913.71  1956.99
                             1991.24  2025.54  2028.61  2117.96  2129.95
                             2143.02  2201.98  2229.43  2275.89  2330.70
                             2335.48  2377.73  3869.88  4547.28  4555.66
                             4567.90  4594.04  4598.52  5383.04  5462.54

 Zero-point correction=                           0.188770 (Hartree/Particle)
 Thermal correction to Energy=                    0.203255
 Thermal correction to Enthalpy=                  0.204199
 Thermal correction to Gibbs Free Energy=         0.147034
 Sum of electronic and zero-point Energies=           -914.660554
 Sum of electronic and thermal Energies=              -914.646070
 Sum of electronic and thermal Enthalpies=            -914.645126
 Sum of electronic and thermal Free Energies=         -914.702291

                     E (Thermal)             CV                S
                      KCal/Mol        Cal/Mol-Kelvin    Cal/Mol-Kelvin
 Total                  127.544             58.718            120.313
 Electronic               0.000              0.000              1.377
 Translational            0.889              2.981             42.520
 Rotational               0.889              2.981             33.235
 Vibrational            125.767             52.756             43.180
 Vibration     1          0.594              1.980              5.174
 Vibration     2          0.597              1.972              4.337
 Vibration     3          0.606              1.941              3.262
 Vibration     4          0.613              1.919              2.889
 Vibration     5          0.624              1.884              2.479
 Vibration     6          0.637              1.843              2.155
 Vibration     7          0.640              1.834              2.093
 Vibration     8          0.680              1.712              1.539
 Vibration     9          0.684              1.699              1.495
 Vibration    10          0.700              1.651              1.351
 Vibration    11          0.723              1.587              1.193
 Vibration    12          0.730              1.567              1.149
 Vibration    13          0.736              1.551              1.114
 Vibration    14          0.761              1.484              0.987
 Vibration    15          0.774              1.450              0.929
 Vibration    16          0.778              1.438              0.910
 Vibration    17          0.788              1.412              0.870
 Vibration    18          0.791              1.405              0.859
 Vibration    19          0.808              1.364              0.800
 Vibration    20          0.828              1.315              0.735
 Vibration    21          0.866              1.226              0.632
 Vibration    22          0.873              1.209              0.614
 Vibration    23          0.887              1.180              0.583
 Vibration    24          0.944              1.061              0.474

 Optimization completed.
    -- Stationary point found.
 Normal termination of Gaussian 16 at Sun Feb 11 01:53:46 2024.
