 Q-Chem 5.4, Q-Chem, Inc., Pleasanton, CA (2021)
 Q-Chem 5.4.0 for Intel X86 EM64T Linux

User input:
--------------------------------------------------------------
$molecule
-1 2
Br                -3.1133590000     -1.1447470000      0.0155540000
C                 -1.3335950000     -0.4407140000      0.0067750000
C                 -1.0745290000      0.9043940000      0.0087030000
Br                -2.4654830000      2.2187780000      0.0203110000
C                  0.2804440000      1.4557670000      0.0020950000
O                  0.5153870000      2.6760700000      0.0038600000
C                  1.3336160000      0.4408940000     -0.0067730000
C                  1.0745130000     -0.9043550000     -0.0087040000
Br                 2.4652890000     -2.2187910000     -0.0203170000
C                 -0.2803830000     -1.4556370000     -0.0020930000
O                 -0.5153360000     -2.6760750000     -0.0038580000
Br                 3.1134380000      1.1444160000     -0.0155540000
$end
$rem
MAX_SCF_CYCLES=200
BASIS  =  6-311++G(d,p)
GUI  =  2
JOB_TYPE  =  SP
METHOD  =  B3LYP
SOLVENT_METHOD = PCM
$end
$pcm
theory = CPCM
$end
$solvent
dielectric 37.219
opticaldielectric 1.43
$end

--------------------------------------------------------------

             Standard Nuclear Orientation (Angstroms)
    I     Atom           X                Y                Z
 ----------------------------------------------------------------
    1      Br     -3.1133590000    -1.1447470000     0.0155540000
    2      C      -1.3335950000    -0.4407140000     0.0067750000
    3      C      -1.0745290000     0.9043940000     0.0087030000
    4      Br     -2.4654830000     2.2187780000     0.0203110000
    5      C       0.2804440000     1.4557670000     0.0020950000
    6      O       0.5153870000     2.6760700000     0.0038600000
    7      C       1.3336160000     0.4408940000    -0.0067730000
    8      C       1.0745130000    -0.9043550000    -0.0087040000
    9      Br      2.4652890000    -2.2187910000    -0.0203170000
   10      C      -0.2803830000    -1.4556370000    -0.0020930000
   11      O      -0.5153360000    -2.6760750000    -0.0038580000
   12      Br      3.1134380000     1.1444160000    -0.0155540000
 ----------------------------------------------------------------

    8  -10675.8850010477      8.20e-06  Convergence criterion met
 Total energy in the final basis set =   -10675.8850010477

                    Orbital Energies (a.u.)
 --------------------------------------------------------------

 Alpha MOs
 -- Occupied --
********-482.8377-482.8376-482.8376 -62.4905 -62.4905 -62.4904 -62.4904
-56.3110 -56.3110 -56.3110 -56.3109 -56.3072 -56.3072 -56.3072 -56.3072
-56.3068 -56.3068 -56.3067 -56.3067 -19.1052 -19.1052 -10.2621 -10.2621
-10.2456 -10.2456 -10.2450 -10.2450  -8.6992  -8.6992  -8.6992  -8.6991
 -6.5309  -6.5309  -6.5309  -6.5309  -6.5180  -6.5180  -6.5180  -6.5180
 -6.5169  -6.5169  -6.5168  -6.5168  -2.6419  -2.6419  -2.6419  -2.6419
 -2.6381  -2.6381  -2.6380  -2.6380  -2.6373  -2.6373  -2.6372  -2.6372
 -2.6272  -2.6272  -2.6272  -2.6272  -2.6272  -2.6272  -2.6271  -2.6271
 -1.0400  -1.0372  -0.8848  -0.8532  -0.8032  -0.8026  -0.7779  -0.7134
 -0.6972  -0.5949  -0.5915  -0.5296  -0.4776  -0.4534  -0.4500  -0.4237
 -0.4226  -0.4151  -0.4121  -0.3863  -0.3674  -0.3419  -0.3176  -0.3147
 -0.3093  -0.3088  -0.2916  -0.2860  -0.2810  -0.2766  -0.2592  -0.2513
 -0.1867

 Beta MOs
 -- Occupied --
********-482.8377-482.8376-482.8376 -62.4905 -62.4905 -62.4904 -62.4904
-56.3110 -56.3110 -56.3110 -56.3110 -56.3072 -56.3072 -56.3071 -56.3071
-56.3068 -56.3068 -56.3067 -56.3067 -19.0987 -19.0986 -10.2608 -10.2608
-10.2444 -10.2444 -10.2438 -10.2438  -8.6992  -8.6992  -8.6991  -8.6991
 -6.5309  -6.5309  -6.5309  -6.5309  -6.5179  -6.5179  -6.5179  -6.5179
 -6.5169  -6.5169  -6.5168  -6.5168  -2.6419  -2.6419  -2.6419  -2.6419
 -2.6381  -2.6381  -2.6380  -2.6380  -2.6373  -2.6373  -2.6372  -2.6372
 -2.6272  -2.6272  -2.6271  -2.6271  -2.6271  -2.6271  -2.6271  -2.6270
 -1.0288  -1.0258  -0.8798  -0.8515  -0.8018  -0.8011  -0.7759  -0.7118
 -0.6878  -0.5907  -0.5871  -0.5273  -0.4733  -0.4439  -0.4370  -0.4218
 -0.4204  -0.4113  -0.3860  -0.3846  -0.3629  -0.3228  -0.3171  -0.3131
 -0.3086  -0.3040  -0.2895  -0.2858  -0.2703  -0.2640  -0.2551  -0.2458

          Ground-State Mulliken Net Atomic Charges

     Atom                 Charge (a.u.)    Spin (a.u.)
  --------------------------------------------------------
      1 Br                   -0.132952       0.006955
      2 C                     0.491891       0.078862
      3 C                     0.493308       0.079257
      4 Br                   -0.132494       0.006964
      5 C                    -0.882409       0.085502
      6 O                    -0.337073       0.242337
      7 C                     0.491830       0.078967
      8 C                     0.492964       0.079261
      9 Br                   -0.132466       0.006972
     10 C                    -0.882569       0.085534
     11 O                    -0.337084       0.242421
     12 Br                   -0.132947       0.006969
  --------------------------------------------------------
  Sum of atomic charges =    -1.000000

                    Cartesian Multipole Moments
 -----------------------------------------------------------------
    Charge (ESU x 10^10)
                -4.8032
    Dipole Moment (Debye)
         X       0.0004      Y       0.0007      Z      -0.0000
       Tot       0.0008
    Quadrupole Moments (Debye-Ang)
        XX    -131.2781     XY      -5.3360     YY    -157.9229
        XZ       0.0475     YZ      -0.0642     ZZ    -120.9461

 Total job time:  29.08s(wall), 176.81s(cpu)
        *  Thank you very much for using Q-Chem.  Have a nice day.  *
