 Q-Chem 5.4, Q-Chem, Inc., Pleasanton, CA (2021)
 Q-Chem 5.4.0 for Intel X86 EM64T Linux

User input:
--------------------------------------------------------------
$molecule
-2 1
C                  4.3662360000      2.6797810000     -0.3371340000
C                  3.7321200000      1.3844810000     -0.4698910000
C                  3.2363290000      0.6942070000      0.6330370000
C                  3.2994480000      1.2266030000      1.9751590000
C                  3.9641620000      2.5036900000      2.1087640000
C                  4.4673820000      3.1902880000      1.0137770000
O                  4.8191360000      3.3385000000     -1.3398470000
O                  2.8085710000      0.6028540000      2.9831330000
C                  6.3739880000      4.5803430000      0.8253370000
C                  4.7381310000      2.3631680000      4.3420210000
H                  6.6517660000      5.6233300000      1.0105620000
H                  6.4893630000      4.3408350000     -0.2350510000
H                  7.0241800000      3.9285840000      1.4307330000
H                  4.6766260000      2.9412220000      5.2699780000
H                  5.7985970000      2.2505340000      4.0651960000
C                  2.5953770000     -0.6782160000      0.5035720000
C                  1.0987320000     -0.6313050000      0.3225280000
C                  0.3322160000     -1.2625550000     -0.5807700000
C                 -1.1773210000     -1.1084600000     -0.5624520000
C                 -1.9287390000     -2.3894320000     -0.1178940000
C                 -3.4261380000     -2.2412470000     -0.1229050000
C                 -4.3490510000     -3.0017780000     -0.7318970000
C                 -5.8281280000     -2.7028940000     -0.5770690000
C                 -6.5455340000     -2.2453960000     -1.8727680000
C                 -8.0415720000     -2.1985410000     -1.7151380000
C                 -8.8723770000     -1.1524480000     -1.8215140000
C                -10.3608490000     -1.3190270000     -1.6301500000
C                  0.8705530000     -2.1646650000     -1.6686440000
C                 -4.0279240000     -4.2208850000     -1.5652960000
C                 -8.4438720000      0.2598400000     -2.1348820000
H                  2.7822970000     -1.1973590000      1.4527280000
H                  3.0711950000     -1.2532630000     -0.2950270000
H                  0.6011450000      0.0010040000      1.0558510000
H                 -1.5366400000     -0.8299930000     -1.5636300000
H                 -1.4507130000     -0.2880040000      0.1087110000
H                 -1.5967410000     -2.6252410000      0.9022000000
H                 -1.6177570000     -3.2294910000     -0.7423910000
H                 -3.7948650000     -1.3989750000      0.4640640000
H                 -5.9722200000     -1.9359930000      0.1898020000
H                 -6.3351180000     -3.6070190000     -0.2097990000
H                 -6.3090160000     -2.9516900000     -2.6788560000
H                 -6.1368380000     -1.2807200000     -2.1815600000
H                 -8.4944590000     -3.1627310000     -1.4818830000
H                -10.6402640000     -2.3566570000     -1.4268710000
H                -10.9124100000     -0.9911000000     -2.5212900000
H                  1.9557380000     -2.1082000000     -1.7505440000
H                  0.4459320000     -1.8901370000     -2.6433350000
H                  0.6070240000     -3.2170270000     -1.4978530000
H                 -2.9592520000     -4.4264490000     -1.6222930000
H                 -4.4006520000     -4.1150800000     -2.5900750000
H                 -4.5207720000     -5.1085550000     -1.1476630000
H                 -7.3641170000      0.3731290000     -2.2383810000
H                 -8.7845250000      0.9450350000     -1.3483130000
H                 -8.9129920000      0.6038420000     -3.0660570000
H                -10.7250100000     -0.6997780000     -0.7994060000
O                  4.0390220000      3.1094270000      3.3565370000
O                  5.0183500000      4.4479180000      1.2258090000
C                  3.6295150000      0.8280350000     -1.8706120000
H                  4.2824920000      1.3788690000      4.4780970000
H                  4.2599600000     -0.0632870000     -2.0116310000
H                  3.9681520000      1.5917340000     -2.5732350000
H                  2.6035860000      0.5370910000     -2.1250910000
$end

$rem
BASIS  =  6-311++G(d,p)
GUI  =  2
JOB_TYPE  =  SP
METHOD  =  B3LYP
SCF_CONVERGENCE  = 8
SOLVENT_METHOD = sm12
$end

$smx
solvent dimethylformamide
charges CM5
$end

--------------------------------------------------------------

             Standard Nuclear Orientation (Angstroms)
    I     Atom           X                Y                Z
 ----------------------------------------------------------------
    1      C       4.3662360000     2.6797810000    -0.3371340000
    2      C       3.7321200000     1.3844810000    -0.4698910000
    3      C       3.2363290000     0.6942070000     0.6330370000
    4      C       3.2994480000     1.2266030000     1.9751590000
    5      C       3.9641620000     2.5036900000     2.1087640000
    6      C       4.4673820000     3.1902880000     1.0137770000
    7      O       4.8191360000     3.3385000000    -1.3398470000
    8      O       2.8085710000     0.6028540000     2.9831330000
    9      C       6.3739880000     4.5803430000     0.8253370000
   10      C       4.7381310000     2.3631680000     4.3420210000
   11      H       6.6517660000     5.6233300000     1.0105620000
   12      H       6.4893630000     4.3408350000    -0.2350510000
   13      H       7.0241800000     3.9285840000     1.4307330000
   14      H       4.6766260000     2.9412220000     5.2699780000
   15      H       5.7985970000     2.2505340000     4.0651960000
   16      C       2.5953770000    -0.6782160000     0.5035720000
   17      C       1.0987320000    -0.6313050000     0.3225280000
   18      C       0.3322160000    -1.2625550000    -0.5807700000
   19      C      -1.1773210000    -1.1084600000    -0.5624520000
   20      C      -1.9287390000    -2.3894320000    -0.1178940000
   21      C      -3.4261380000    -2.2412470000    -0.1229050000
   22      C      -4.3490510000    -3.0017780000    -0.7318970000
   23      C      -5.8281280000    -2.7028940000    -0.5770690000
   24      C      -6.5455340000    -2.2453960000    -1.8727680000
   25      C      -8.0415720000    -2.1985410000    -1.7151380000
   26      C      -8.8723770000    -1.1524480000    -1.8215140000
   27      C     -10.3608490000    -1.3190270000    -1.6301500000
   28      C       0.8705530000    -2.1646650000    -1.6686440000
   29      C      -4.0279240000    -4.2208850000    -1.5652960000
   30      C      -8.4438720000     0.2598400000    -2.1348820000
   31      H       2.7822970000    -1.1973590000     1.4527280000
   32      H       3.0711950000    -1.2532630000    -0.2950270000
   33      H       0.6011450000     0.0010040000     1.0558510000
   34      H      -1.5366400000    -0.8299930000    -1.5636300000
   35      H      -1.4507130000    -0.2880040000     0.1087110000
   36      H      -1.5967410000    -2.6252410000     0.9022000000
   37      H      -1.6177570000    -3.2294910000    -0.7423910000
   38      H      -3.7948650000    -1.3989750000     0.4640640000
   39      H      -5.9722200000    -1.9359930000     0.1898020000
   40      H      -6.3351180000    -3.6070190000    -0.2097990000
   41      H      -6.3090160000    -2.9516900000    -2.6788560000
   42      H      -6.1368380000    -1.2807200000    -2.1815600000
   43      H      -8.4944590000    -3.1627310000    -1.4818830000
   44      H     -10.6402640000    -2.3566570000    -1.4268710000
   45      H     -10.9124100000    -0.9911000000    -2.5212900000
   46      H       1.9557380000    -2.1082000000    -1.7505440000
   47      H       0.4459320000    -1.8901370000    -2.6433350000
   48      H       0.6070240000    -3.2170270000    -1.4978530000
   49      H      -2.9592520000    -4.4264490000    -1.6222930000
   50      H      -4.4006520000    -4.1150800000    -2.5900750000
   51      H      -4.5207720000    -5.1085550000    -1.1476630000
   52      H      -7.3641170000     0.3731290000    -2.2383810000
   53      H      -8.7845250000     0.9450350000    -1.3483130000
   54      H      -8.9129920000     0.6038420000    -3.0660570000
   55      H     -10.7250100000    -0.6997780000    -0.7994060000
   56      O       4.0390220000     3.1094270000     3.3565370000
   57      O       5.0183500000     4.4479180000     1.2258090000
   58      C       3.6295150000     0.8280350000    -1.8706120000
   59      H       4.2824920000     1.3788690000     4.4780970000
   60      H       4.2599600000    -0.0632870000    -2.0116310000
   61      H       3.9681520000     1.5917340000    -2.5732350000
   62      H       2.6035860000     0.5370910000    -2.1250910000
 ----------------------------------------------------------------

   18   -1236.1375307088      7.45e-09  Convergence criterion met
 Total energy in the final basis set =    -1236.4180148826

                    Orbital Energies (a.u.)
 --------------------------------------------------------------

 Alpha MOs
 -- Occupied --
-19.1133 -19.1130 -19.0064 -19.0064 -10.2015 -10.2011 -10.1781 -10.1772
-10.1720 -10.1716 -10.1713 -10.1708 -10.1706 -10.1705 -10.1700 -10.1681
-10.1644 -10.1638 -10.1637 -10.1631 -10.1630 -10.1627 -10.1625 -10.1613
-10.1582 -10.1549 -10.1261 -10.1243  -1.0328  -1.0157  -0.9268  -0.9244
 -0.8311  -0.8209  -0.8084  -0.7889  -0.7674  -0.7488  -0.7371  -0.7212
 -0.6922  -0.6894  -0.6875  -0.6849  -0.6799  -0.6590  -0.6303  -0.6147
 -0.6078  -0.5925  -0.5384  -0.5307  -0.5247  -0.5194  -0.5120  -0.4873
 -0.4810  -0.4710  -0.4703  -0.4635  -0.4530  -0.4514  -0.4464  -0.4418
 -0.4322  -0.4315  -0.4291  -0.4249  -0.4195  -0.4143  -0.4121  -0.4094
 -0.4045  -0.3949  -0.3921  -0.3835  -0.3816  -0.3763  -0.3752  -0.3725
 -0.3698  -0.3682  -0.3651  -0.3608  -0.3525  -0.3504  -0.3480  -0.3409
 -0.3358  -0.3327  -0.3301  -0.3229  -0.3192  -0.3180  -0.3151  -0.3013
 -0.2665  -0.2555  -0.2490  -0.2393  -0.2315  -0.2114  -0.1934  -0.1834
 -0.1820  -0.1043

          Ground-State Mulliken Net Atomic Charges

     Atom                 Charge (a.u.)
  ----------------------------------------
      1 C                    -2.213608
      2 C                    -0.561591
      3 C                    -1.074246
      4 C                    -1.470538
      5 C                     0.028660
      6 C                    -0.491643
      7 O                    -0.381993
      8 O                    -0.319740
      9 C                     0.199736
     10 C                     0.209946
     11 H                     0.259701
     12 H                     0.113940
     13 H                     0.040964
     14 H                     0.273386
     15 H                     0.037771
     16 C                    -1.278212
     17 C                    -0.324079
     18 C                    -0.424498
     19 C                     1.505853
     20 C                    -0.783189
     21 C                    -1.741760
     22 C                     1.481454
     23 C                     0.776736
     24 C                    -0.838838
     25 C                     0.211006
     26 C                     0.169471
     27 C                    -0.069627
     28 C                     0.618369
     29 C                     0.133653
     30 C                    -0.548760
     31 H                     0.103128
     32 H                    -0.277716
     33 H                     0.035629
     34 H                     0.272677
     35 H                     0.205681
     36 H                     0.203037
     37 H                    -0.128141
     38 H                     0.121885
     39 H                     0.280668
     40 H                     0.182221
     41 H                     0.151510
     42 H                     0.047947
     43 H                     0.181241
     44 H                     0.222755
     45 H                     0.181423
     46 H                     0.385572
     47 H                     0.214384
     48 H                     0.295570
     49 H                     0.272706
     50 H                     0.182987
     51 H                     0.218694
     52 H                     0.159722
     53 H                     0.165414
     54 H                     0.177289
     55 H                     0.182441
     56 O                    -0.053521
     57 O                    -0.047585
     58 C                     0.111871
     59 H                     0.094877
     60 H                     0.173876
     61 H                     0.127417
     62 H                     0.016016
  ----------------------------------------
  Sum of atomic charges =    -2.000001

                    Cartesian Multipole Moments
 -----------------------------------------------------------------
    Charge (ESU x 10^10)
                -9.6064
    Dipole Moment (Debye)
         X     -35.2149      Y     -19.3839      Z      -8.0232
       Tot      40.9902
    Quadrupole Moments (Debye-Ang)
        XX    -327.1071     XY     -91.8067     YY    -254.9685
        XZ     -17.1922     YZ      -5.4375     ZZ    -234.7698

 Total job time:  4965.12s(wall), 31489.42s(cpu)
        *  Thank you very much for using Q-Chem.  Have a nice day.  *
