 Gaussian 16, Revision A.03,
 Gaussian 16:  ES64L-G16RevA.03 25-Dec-2016

 ----------------------------------------------------------------------
 #P UB3LYP/6-311++G(d,p) nosym opt freq SCRF=(PCM,Solvent=n,n-DiMethylF
 ormamide)
 ----------------------------------------------------------------------

 -------
 Radical
 -------
 Symbolic Z-matrix:
 Charge = -1 Multiplicity = 2

 SCF Done:  E(UB3LYP) =  -5991.02661098     A.U. after   22 cycles
 SCF Done:  E(UB3LYP) =  -5991.02762946     A.U. after   20 cycles
 SCF Done:  E(UB3LYP) =  -5991.02797403     A.U. after   20 cycles
 SCF Done:  E(UB3LYP) =  -5991.02831078     A.U. after   16 cycles
 SCF Done:  E(UB3LYP) =  -5991.02840882     A.U. after   16 cycles
 SCF Done:  E(UB3LYP) =  -5991.02848762     A.U. after   16 cycles
 SCF Done:  E(UB3LYP) =  -5990.98348818     A.U. after   20 cycles
 SCF Done:  E(UB3LYP) =  -5991.02798639     A.U. after   19 cycles
 SCF Done:  E(UB3LYP) =  -5991.02856605     A.U. after   16 cycles
 SCF Done:  E(UB3LYP) =  -5991.02576397     A.U. after   18 cycles
 SCF Done:  E(UB3LYP) =  -5991.02858979     A.U. after   13 cycles
 SCF Done:  E(UB3LYP) =  -5991.02859296     A.U. after   12 cycles
 SCF Done:  E(UB3LYP) =  -5991.02859394     A.U. after   11 cycles
 SCF Done:  E(UB3LYP) =  -5991.02859419     A.U. after   10 cycles
 SCF Done:  E(UB3LYP) =  -5991.02859434     A.U. after   11 cycles
 SCF Done:  E(UB3LYP) =  -5991.02859451     A.U. after   11 cycles
 SCF Done:  E(UB3LYP) =  -5991.02859469     A.U. after   11 cycles
 SCF Done:  E(UB3LYP) =  -5991.02859478     A.U. after   11 cycles
 SCF Done:  E(UB3LYP) =  -5991.02859480     A.U. after    9 cycles
 Optimization completed.
    -- Stationary point found.
 Normal termination of Gaussian 16 at Sat Feb 10 14:27:45 2024.

 ----------------------------------------------------------------------
 #P Geom=AllCheck Guess=TCheck SCRF=Check GenChk UB3LYP/6-311++G(d,p) F
 req
 ----------------------------------------------------------------------

 Structure from the checkpoint file:  "021-rad.chk"
 -------
 Radical
 -------
 Charge = -1 Multiplicity = 2

                          Input orientation:
 ---------------------------------------------------------------------
 Center     Atomic      Atomic             Coordinates (Angstroms)
 Number     Number       Type             X           Y           Z
 ---------------------------------------------------------------------
      1         35           0       -1.678464    2.391869    1.485912
      2          6           0       -0.737587    0.981236    0.564671
      3          6           0       -1.433287   -0.029212   -0.045616
      4          6           0       -0.711678   -1.092707   -0.746114
      5          8           0       -1.319919   -2.032169   -1.317192
      6          6           0        0.737569   -0.981036   -0.730540
      7          6           0        1.433280    0.029361   -0.120197
      8          6           0        0.711663    1.092907    0.580243
      9          8           0        1.319903    2.032397    1.151274
     10          6           0        2.923913    0.116130   -0.125240
     11          6           0        3.593493    0.792196   -1.151180
     12          6           0        4.985252    0.880334   -1.152198
     13          6           0        5.725462    0.296395   -0.123987
     14          6           0        5.064987   -0.373936    0.905848
     15          6           0        3.673170   -0.461330    0.905716
     16         35           0        1.678458   -2.391610   -1.651869
     17          6           0       -2.923915   -0.116072   -0.040388
     18          6           0       -3.673389    0.461258   -1.071257
     19          6           0       -5.065200    0.373755   -1.071155
     20          6           0       -5.725450   -0.296577   -0.041180
     21          6           0       -4.985023   -0.880418    0.986932
     22          6           0       -3.593273   -0.792167    0.985681
     23          1           0        3.022391    1.247481   -1.952838
     24          1           0        5.490208    1.404993   -1.955832
     25          1           0        6.807591    0.364244   -0.124524
     26          1           0        5.632263   -0.829008    1.710327
     27          1           0        3.164257   -0.983333    1.708609
     28          1           0       -3.164652    0.983266   -1.874258
     29          1           0       -5.632644    0.828760   -1.875554
     30          1           0       -6.807574   -0.364518   -0.040461
     31          1           0       -5.489804   -1.405104    1.790658
     32          1           0       -3.022001   -1.247386    1.787257
 ---------------------------------------------------------------------

 SCF Done:  E(UB3LYP) =  -5991.02859480     A.U. after    2 cycles

 Alpha  occ. eigenvalues -- -482.82621-482.82621 -62.47898 -62.47898 -56.29923
 Alpha  occ. eigenvalues --  -56.29923 -56.29566 -56.29566 -56.29528 -56.29528
 Alpha  occ. eigenvalues --  -19.09099 -19.09098 -10.24314 -10.24313 -10.22815
 Alpha  occ. eigenvalues --  -10.22813 -10.19593 -10.19592 -10.19145 -10.19145
 Alpha  occ. eigenvalues --  -10.17856 -10.17856 -10.17845 -10.17845 -10.17787
 Alpha  occ. eigenvalues --  -10.17787 -10.17779 -10.17779 -10.17740 -10.17740
 Alpha  occ. eigenvalues --   -8.68866  -8.68866  -6.51969  -6.51969  -6.50776
 Alpha  occ. eigenvalues --   -6.50776  -6.50666  -6.50666  -2.63071  -2.63071
 Alpha  occ. eigenvalues --   -2.62748  -2.62748  -2.62665  -2.62665  -2.61714
 Alpha  occ. eigenvalues --   -2.61714  -2.61713  -2.61713  -1.01902  -1.01609
 Alpha  occ. eigenvalues --   -0.87543  -0.86809  -0.85041  -0.82486  -0.77956
 Alpha  occ. eigenvalues --   -0.77475  -0.75440  -0.75156  -0.75155  -0.71197
 Alpha  occ. eigenvalues --   -0.68356  -0.64054  -0.61091  -0.61072  -0.59948
 Alpha  occ. eigenvalues --   -0.57300  -0.57058  -0.52557  -0.51692  -0.51056
 Alpha  occ. eigenvalues --   -0.47400  -0.46654  -0.46537  -0.46083  -0.44507
 Alpha  occ. eigenvalues --   -0.43486  -0.42763  -0.42562  -0.42236  -0.42085
 Alpha  occ. eigenvalues --   -0.40838  -0.40654  -0.39306  -0.38843  -0.37149
 Alpha  occ. eigenvalues --   -0.36612  -0.35504  -0.35295  -0.35084  -0.35060
 Alpha  occ. eigenvalues --   -0.32923  -0.32177  -0.29344  -0.28914  -0.27793
 Alpha  occ. eigenvalues --   -0.26260  -0.26184  -0.26128  -0.26074  -0.25396
 Alpha  occ. eigenvalues --   -0.24956  -0.24441  -0.17566
 Alpha virt. eigenvalues --   -0.02691  -0.02548  -0.01915  -0.01818  -0.01674
 Alpha virt. eigenvalues --   -0.01403  -0.01135   0.00166   0.00174   0.01250
 Alpha virt. eigenvalues --    0.01335   0.01533   0.01873   0.02463   0.03064

  Beta  occ. eigenvalues -- -482.82620-482.82620 -62.47897 -62.47897 -56.29925
  Beta  occ. eigenvalues --  -56.29925 -56.29561 -56.29561 -56.29528 -56.29527
  Beta  occ. eigenvalues --  -19.08398 -19.08398 -10.24188 -10.24187 -10.22699
  Beta  occ. eigenvalues --  -10.22698 -10.19476 -10.19474 -10.19153 -10.19152
  Beta  occ. eigenvalues --  -10.17855 -10.17855 -10.17843 -10.17843 -10.17781
  Beta  occ. eigenvalues --  -10.17781 -10.17774 -10.17774 -10.17740 -10.17740
  Beta  occ. eigenvalues --   -8.68865  -8.68865  -6.51973  -6.51973  -6.50768
  Beta  occ. eigenvalues --   -6.50768  -6.50666  -6.50666  -2.63072  -2.63072
  Beta  occ. eigenvalues --   -2.62745  -2.62745  -2.62668  -2.62667  -2.61710
  Beta  occ. eigenvalues --   -2.61710  -2.61709  -2.61709  -1.00715  -1.00382
  Beta  occ. eigenvalues --   -0.87280  -0.86767  -0.84768  -0.82350  -0.77846
  Beta  occ. eigenvalues --   -0.77282  -0.75320  -0.75148  -0.75147  -0.71032
  Beta  occ. eigenvalues --   -0.67490  -0.63858  -0.61066  -0.61050  -0.59880
  Beta  occ. eigenvalues --   -0.57060  -0.56690  -0.52522  -0.51585  -0.50832
  Beta  occ. eigenvalues --   -0.47179  -0.46594  -0.46306  -0.46018  -0.44363
  Beta  occ. eigenvalues --   -0.43180  -0.42602  -0.42555  -0.41855  -0.40669
  Beta  occ. eigenvalues --   -0.40503  -0.40415  -0.38744  -0.37136  -0.36690
  Beta  occ. eigenvalues --   -0.36509  -0.35467  -0.35236  -0.34988  -0.34985
  Beta  occ. eigenvalues --   -0.32274  -0.30820  -0.29294  -0.28897  -0.26111
  Beta  occ. eigenvalues --   -0.26093  -0.25936  -0.25876  -0.25509  -0.25109
  Beta  occ. eigenvalues --   -0.24354  -0.24056
  Beta virt. eigenvalues --   -0.10423  -0.02490  -0.01992  -0.01898  -0.01809
  Beta virt. eigenvalues --   -0.01354  -0.01041  -0.00786   0.00185   0.00210
  Beta virt. eigenvalues --    0.01274   0.01355   0.01874   0.02505   0.03068

 Mulliken charges and spin densities:
               1          2
     1  Br  -0.102352   0.005286
     2  C   -0.312143   0.063435
     3  C    0.590570   0.101375
     4  C   -0.564057   0.081287
     5  O   -0.370821   0.259610
     6  C   -0.312151   0.063424
     7  C    0.590609   0.101377
     8  C   -0.564047   0.081280
     9  O   -0.370815   0.259607
    10  C    0.994027  -0.043170
    11  C   -0.329116   0.017959
    12  C   -0.355949  -0.000431
    13  C   -0.381225  -0.002421
    14  C   -0.355279  -0.000476
    15  C   -0.313753   0.018390
    16  Br  -0.102355   0.005285
    17  C    0.994031  -0.043172
    18  C   -0.313565   0.018394
    19  C   -0.355308  -0.000474
    20  C   -0.381219  -0.002421
    21  C   -0.355913  -0.000432
    22  C   -0.329316   0.017957
    23  H    0.208792  -0.000585
    24  H    0.202678   0.000150
    25  H    0.176932  -0.000016
    26  H    0.202580   0.000159
    27  H    0.209090  -0.000543
    28  H    0.209094  -0.000543
    29  H    0.202578   0.000159
    30  H    0.176933  -0.000016
    31  H    0.202679   0.000150
    32  H    0.208789  -0.000585
 Sum of Mulliken charges =  -1.00000   1.00000

 Dipole moment (field-independent basis, Debye):
    X=              0.0001    Y=             -0.0006    Z=              0.3986  Tot=              0.3986
 Quadrupole moment (field-independent basis, Debye-Ang):
   XX=           -153.9614   YY=           -184.4474   ZZ=           -159.7392
   XY=             -7.6794   XZ=             -4.5377   YZ=            -24.6487

  Exact polarizability: 477.246  15.498 369.675   2.856  44.948 328.883
 Approx polarizability: 489.442  30.420 426.239  14.314  39.897 390.239

                      1                      2                      3
                      A                      A                      A
 Frequencies --     23.3151                28.5341                29.6401
 Red. masses --      5.4854                 4.0218                 4.3618
 Frc consts  --      0.0018                 0.0019                 0.0023
 IR Inten    --      0.5405                 0.0000                 1.8465

                      4                      5                      6
                      A                      A                      A
 Frequencies --     50.9804                53.1509                62.6483
 Red. masses --     11.3216                 6.6374                 9.1338
 Frc consts  --      0.0173                 0.0110                 0.0211
 IR Inten    --      5.2990                 3.7063                 0.0000

                      7                      8                      9
                      A                      A                      A
 Frequencies --     66.7628               126.7704               132.7723
 Red. masses --      9.3090                 8.4578                16.3984
 Frc consts  --      0.0244                 0.0801                 0.1703
 IR Inten    --      0.0000                 7.6236                 0.9637

                     10                     11                     12
                      A                      A                      A
 Frequencies --    153.6056               183.4091               201.9213
 Red. masses --      6.1496                 9.5758                 8.9683
 Frc consts  --      0.0855                 0.1898                 0.2154
 IR Inten    --      0.0000                 0.0000                 0.0000

                     13                     14                     15
                      A                      A                      A
 Frequencies --    208.1368               236.2782               297.3675
 Red. masses --     11.2209                 5.4188                 7.0217
 Frc consts  --      0.2864                 0.1782                 0.3658
 IR Inten    --      0.0000                 0.8849                 0.0000

                     16                     17                     18
                      A                      A                      A
 Frequencies --    298.6787               320.9537               330.6156
 Red. masses --      7.1269                11.0757                10.4422
 Frc consts  --      0.3746                 0.6722                 0.6725
 IR Inten    --      0.5632                20.5675                 0.9118

                     19                     20                     21
                      A                      A                      A
 Frequencies --    341.0033               412.0890               412.2851
 Red. masses --     11.3279                 2.8743                 2.8835
 Frc consts  --      0.7761                 0.2876                 0.2888
 IR Inten    --      0.0000                 0.0040                 0.0000

                     22                     23                     24
                      A                      A                      A
 Frequencies --    485.9266               497.2240               509.2139
 Red. masses --      8.2397                 8.4853                 4.7864
 Frc consts  --      1.1463                 1.2360                 0.7312
 IR Inten    --      0.0000                 0.0000                 0.0000

                     25                     26                     27
                      A                      A                      A
 Frequencies --    511.8726               568.0463               604.2165
 Red. masses --      4.1911                 6.6961                 9.3416
 Frc consts  --      0.6470                 1.2730                 2.0094
 IR Inten    --     17.8935               138.8444                 1.6959

                     28                     29                     30
                      A                      A                      A
 Frequencies --    632.2798               634.1186               635.8077
 Red. masses --      6.5068                 7.6854                 7.0558
 Frc consts  --      1.5326                 1.8208                 1.6805
 IR Inten    --      0.0000                 0.0000                 3.2177

                     31                     32                     33
                      A                      A                      A
 Frequencies --    700.9678               711.8425               715.3521
 Red. masses --      5.3989                 1.9356                 1.3590
 Frc consts  --      1.5630                 0.5779                 0.4097
 IR Inten    --      0.0000                59.7005                 0.0000

                     34                     35                     36
                      A                      A                      A
 Frequencies --    717.9489               732.8834               769.1519
 Red. masses --      4.0817                10.9862                 2.1700
 Frc consts  --      1.2396                 3.4767                 0.7564
 IR Inten    --    291.0200                12.2186                55.8249

                     37                     38                     39
                      A                      A                      A
 Frequencies --    779.4216               800.0470               812.5567
 Red. masses --     11.4703                 6.8854                 3.3269
 Frc consts  --      4.1055                 2.5966                 1.2942
 IR Inten    --      0.0000                 0.0000                 0.0000

                     40                     41                     42
                      A                      A                      A
 Frequencies --    859.1843               859.2121               895.5077
 Red. masses --      1.2492                 1.2490                 5.7586
 Frc consts  --      0.5433                 0.5433                 2.7209
 IR Inten    --      0.0359                 0.0000               211.8394

                     43                     44                     45
                      A                      A                      A
 Frequencies --    934.1810               935.8653               944.9365
 Red. masses --      1.5514                 1.7460                 4.6597
 Frc consts  --      0.7977                 0.9010                 2.4514
 IR Inten    --     21.4471                 0.0000                 0.0000

                     46                     47                     48
                      A                      A                      A
 Frequencies --    991.4843               991.5099              1008.1893
 Red. masses --      1.3744                 1.3745                 1.2893
 Frc consts  --      0.7961                 0.7961                 0.7721
 IR Inten    --      0.0291                 0.0000                 0.1386

                     49                     50                     51
                      A                      A                      A
 Frequencies --   1008.6716              1013.2940              1014.1102
 Red. masses --      1.2908                 6.2796                 6.3085
 Frc consts  --      0.7738                 3.7989                 3.8225
 IR Inten    --      0.0000                 2.5491                 0.0000

                     52                     53                     54
                      A                      A                      A
 Frequencies --   1043.3897              1047.6589              1094.1557
 Red. masses --      2.5940                 2.1361                 1.5930
 Frc consts  --      1.6639                 1.3814                 1.1236
 IR Inten    --     38.0748                 0.0000                 0.0001

                     55                     56                     57
                      A                      A                      A
 Frequencies --   1094.3277              1095.0460              1134.3542
 Red. masses --      1.7685                 3.4685                11.9546
 Frc consts  --      1.2478                 2.4505                 9.0632
 IR Inten    --     35.2238                67.7064               144.1794

                     58                     59                     60
                      A                      A                      A
 Frequencies --   1174.8613              1174.8682              1194.7787
 Red. masses --      1.1069                 1.1068                 1.1307
 Frc consts  --      0.9002                 0.9001                 0.9510
 IR Inten    --      0.0000                 0.0053                 0.5301

                     61                     62                     63
                      A                      A                      A
 Frequencies --   1194.8107              1229.6003              1253.8662
 Red. masses --      1.1363                 4.4550                 5.4126
 Frc consts  --      0.9558                 3.9685                 5.0137
 IR Inten    --      0.0003                 0.0000               187.4896

                     64                     65                     66
                      A                      A                      A
 Frequencies --   1306.8162              1307.3199              1347.6625
 Red. masses --      4.6502                 4.7017                 1.5177
 Frc consts  --      4.6790                 4.7344                 1.6241
 IR Inten    --      0.0000                 0.3244                 0.0000

                     67                     68                     69
                      A                      A                      A
 Frequencies --   1347.7872              1349.9562              1467.3126
 Red. masses --      1.4995                 9.2398                 2.1166
 Frc consts  --      1.6048                 9.9209                 2.6849
 IR Inten    --      0.4746                 0.0000                 0.0000

                     70                     71                     72
                      A                      A                      A
 Frequencies --   1467.5820              1486.9477              1502.4546
 Red. masses --      2.1198                 4.8938                 8.9308
 Frc consts  --      2.6899                 6.3751                11.8780
 IR Inten    --     12.1161                24.5773              1006.2026

                     73                     74                     75
                      A                      A                      A
 Frequencies --   1513.8193              1525.3777              1532.7255
 Red. masses --      3.5537                 4.1817                 3.2652
 Frc consts  --      4.7981                 5.7326                 4.5194
 IR Inten    --      0.0000                 0.0000               154.9173

                     76                     77                     78
                      A                      A                      A
 Frequencies --   1601.5742              1610.9139              1611.0646
 Red. masses --     10.8784                 5.4635                 5.4695
 Frc consts  --     16.4402                 8.3535                 8.3643
 IR Inten    --      0.0000                 0.0000                 2.9327

                     79                     80                     81
                      A                      A                      A
 Frequencies --   1636.3150              1637.8395              3160.1473
 Red. masses --      5.7162                 5.8479                 1.0853
 Frc consts  --      9.0177                 9.2426                 6.3860
 IR Inten    --     43.4861                 0.0000                 0.0077

                     82                     83                     84
                      A                      A                      A
 Frequencies --   3160.1500              3165.2787              3165.2893
 Red. masses --      1.0853                 1.0875                 1.0875
 Frc consts  --      6.3861                 6.4197                 6.4198
 IR Inten    --      5.6526                 0.0001                 0.1091

                     85                     86                     87
                      A                      A                      A
 Frequencies --   3173.6254              3173.6413              3179.6561
 Red. masses --      1.0913                 1.0913                 1.0948
 Frc consts  --      6.4762                 6.4763                 6.5216
 IR Inten    --     35.2869                 0.0135                 0.0550

                     88                     89                     90
                      A                      A                      A
 Frequencies --   3179.6694              3188.5790              3188.6360
 Red. masses --      1.0948                 1.0983                 1.0983
 Frc consts  --      6.5217                 6.5790                 6.5792
 IR Inten    --    102.6827                47.1620                 0.0000

 - Thermochemistry -
 -------------------
 Temperature   298.150 Kelvin.  Pressure   1.00000 Atm.
 Atom     1 has atomic number 35 and mass  78.91834

 Molecular mass:   415.90475 amu.
 Principal axes and moments of inertia in atomic units:
                           1         2         3
     Eigenvalues --  5694.28435********************
           X            0.97174   0.23374   0.03309
           Y           -0.18054   0.82614  -0.53375
           Z           -0.15210   0.51269   0.84499
 This molecule is an asymmetric top.
 Rotational symmetry number  1.
 Warning -- assumption of classical behavior for rotation
           may cause significant error
 Rotational temperatures (Kelvin)      0.01521     0.00609     0.00464
 Rotational constants (GHZ):           0.31694     0.12697     0.09678
 Zero-point vibrational energy     585965.6 (Joules/Mol)
                                  140.04914 (Kcal/Mol)
 Warning -- explicit consideration of  27 degrees of freedom as
           vibrations may cause significant error
 Vibrational temperatures:     33.55    41.05    42.65    73.35    76.47
          (Kelvin)             90.14    96.06   182.39   191.03   221.00
                              263.88   290.52   299.46   339.95   427.85
                              429.73   461.78   475.68   490.63   592.90
                              593.19   699.14   715.39   732.65   736.47
                              817.29   869.33   909.71   912.36   914.79
                             1008.54  1024.18  1029.23  1032.97  1054.46
                             1106.64  1121.41  1151.09  1169.09  1236.17
                             1236.21  1288.44  1344.08  1346.50  1359.55
                             1426.52  1426.56  1450.56  1451.25  1457.90
                             1459.08  1501.21  1507.35  1574.25  1574.49
                             1575.53  1632.08  1690.36  1690.37  1719.02
                             1719.07  1769.12  1804.03  1880.22  1880.94
                             1938.99  1939.17  1942.29  2111.14  2111.52
                             2139.39  2161.70  2178.05  2194.68  2205.25
                             2304.31  2317.75  2317.96  2354.29  2356.49
                             4546.75  4546.75  4554.13  4554.15  4566.14
                             4566.16  4574.82  4574.84  4587.65  4587.74

 Zero-point correction=                           0.223183 (Hartree/Particle)
 Thermal correction to Energy=                    0.242132
 Thermal correction to Enthalpy=                  0.243076
 Thermal correction to Gibbs Free Energy=         0.170934
 Sum of electronic and zero-point Energies=          -5990.805412
 Sum of electronic and thermal Energies=             -5990.786463
 Sum of electronic and thermal Enthalpies=           -5990.785519
 Sum of electronic and thermal Free Energies=        -5990.857661

                     E (Thermal)             CV                S
                      KCal/Mol        Cal/Mol-Kelvin    Cal/Mol-Kelvin
 Total                  151.940             70.246            151.835
 Electronic               0.000              0.000              1.377
 Translational            0.889              2.981             43.967
 Rotational               0.889              2.981             35.666
 Vibrational            150.162             64.284             70.825
 Vibration     1          0.593              1.985              6.330
 Vibration     2          0.593              1.984              5.929
 Vibration     3          0.593              1.984              5.853
 Vibration     4          0.595              1.977              4.779
 Vibration     5          0.596              1.976              4.697
 Vibration     6          0.597              1.972              4.372
 Vibration     7          0.598              1.970              4.247
 Vibration     8          0.611              1.926              2.994
 Vibration     9          0.613              1.921              2.905
 Vibration    10          0.619              1.899              2.627
 Vibration    11          0.631              1.862              2.293
 Vibration    12          0.639              1.837              2.116
 Vibration    13          0.641              1.828              2.060
 Vibration    14          0.655              1.785              1.831
 Vibration    15          0.691              1.679              1.432
 Vibration    16          0.692              1.676              1.424
 Vibration    17          0.706              1.633              1.305
 Vibration    18          0.713              1.614              1.257
 Vibration    19          0.721              1.594              1.207
 Vibration    20          0.776              1.444              0.919
 Vibration    21          0.776              1.444              0.919
 Vibration    22          0.842              1.281              0.694
 Vibration    23          0.853              1.256              0.665
 Vibration    24          0.864              1.230              0.635
 Vibration    25          0.867              1.224              0.629
 Vibration    26          0.924              1.100              0.508
 Vibration    27          0.963              1.023              0.442

 Optimization completed.
    -- Stationary point found.
 Normal termination of Gaussian 16 at Sat Feb 10 17:13:41 2024.
