 Q-Chem 5.4, Q-Chem, Inc., Pleasanton, CA (2021)
 Q-Chem 5.4.0 for Intel X86 EM64T Linux

User input:
--------------------------------------------------------------
$molecule
0 1
C                 -2.9130260000      1.3128800000     -0.7483670000
C                 -2.1963720000      0.0849140000     -0.1559250000
C                 -2.7339860000     -0.1330390000      1.2811000000
C                 -2.5402270000     -1.1401710000     -1.0404930000
C                 -0.6762270000      0.2860790000     -0.1162780000
C                 -0.0753000000      1.4115740000     -0.5545690000
C                  1.3820450000      1.6589300000     -0.5400590000
O                  1.8304110000      2.7149800000     -0.9614450000
C                  2.2571940000      0.5860680000     -0.0009800000
C                  3.6424910000      0.7575430000      0.0406240000
C                  4.4503610000     -0.2544300000      0.5477040000
C                  3.8769390000     -1.4402570000      1.0145230000
C                  2.4976520000     -1.6150270000      0.9747820000
C                  1.6782860000     -0.6026680000      0.4665950000
C                  0.1963240000     -0.8136830000      0.4340420000
O                 -0.2764410000     -1.8599230000      0.8477980000
H                 -2.6059550000      1.5115790000     -1.7789430000
H                 -3.9896480000      1.1267290000     -0.7570800000
H                 -2.7407500000      2.2157810000     -0.1559800000
H                 -2.3187320000     -1.0311130000      1.7348830000
H                 -3.8226590000     -0.2346110000      1.2480300000
H                 -2.4983320000      0.7242320000      1.9187690000
H                 -3.6269840000     -1.2519820000     -1.0960860000
H                 -2.1203720000     -2.0595820000     -0.6363770000
H                 -2.1667790000     -1.0013090000     -2.0594740000
H                 -0.6431360000      2.2386660000     -0.9610590000
H                  4.0621930000      1.6858600000     -0.3272740000
H                  5.5259300000     -0.1230680000      0.5808410000
H                  4.5087000000     -2.2277780000      1.4094500000
H                  2.0363990000     -2.5271750000      1.3321570000
$end

$rem
BASIS  =  6-311++G(d,p)
GUI  =  2
JOB_TYPE  =  SP
METHOD  =  B3LYP
SCF_CONVERGENCE  = 8
SOLVENT_METHOD = sm12
$end

$smx
solvent dimethylformamide
charges CM5
$end

--------------------------------------------------------------

             Standard Nuclear Orientation (Angstroms)
    I     Atom           X                Y                Z
 ----------------------------------------------------------------
    1      C      -2.9130260000     1.3128800000    -0.7483670000
    2      C      -2.1963720000     0.0849140000    -0.1559250000
    3      C      -2.7339860000    -0.1330390000     1.2811000000
    4      C      -2.5402270000    -1.1401710000    -1.0404930000
    5      C      -0.6762270000     0.2860790000    -0.1162780000
    6      C      -0.0753000000     1.4115740000    -0.5545690000
    7      C       1.3820450000     1.6589300000    -0.5400590000
    8      O       1.8304110000     2.7149800000    -0.9614450000
    9      C       2.2571940000     0.5860680000    -0.0009800000
   10      C       3.6424910000     0.7575430000     0.0406240000
   11      C       4.4503610000    -0.2544300000     0.5477040000
   12      C       3.8769390000    -1.4402570000     1.0145230000
   13      C       2.4976520000    -1.6150270000     0.9747820000
   14      C       1.6782860000    -0.6026680000     0.4665950000
   15      C       0.1963240000    -0.8136830000     0.4340420000
   16      O      -0.2764410000    -1.8599230000     0.8477980000
   17      H      -2.6059550000     1.5115790000    -1.7789430000
   18      H      -3.9896480000     1.1267290000    -0.7570800000
   19      H      -2.7407500000     2.2157810000    -0.1559800000
   20      H      -2.3187320000    -1.0311130000     1.7348830000
   21      H      -3.8226590000    -0.2346110000     1.2480300000
   22      H      -2.4983320000     0.7242320000     1.9187690000
   23      H      -3.6269840000    -1.2519820000    -1.0960860000
   24      H      -2.1203720000    -2.0595820000    -0.6363770000
   25      H      -2.1667790000    -1.0013090000    -2.0594740000
   26      H      -0.6431360000     2.2386660000    -0.9610590000
   27      H       4.0621930000     1.6858600000    -0.3272740000
   28      H       5.5259300000    -0.1230680000     0.5808410000
   29      H       4.5087000000    -2.2277780000     1.4094500000
   30      H       2.0363990000    -2.5271750000     1.3321570000
 ----------------------------------------------------------------

   14    -692.5555747408      9.78e-09  Convergence criterion met
 Total energy in the final basis set =     -692.5711808244

                    Orbital Energies (a.u.)
 --------------------------------------------------------------

 Alpha MOs
 -- Occupied --
-19.1337 -19.1306 -10.2847 -10.2789 -10.2183 -10.2077 -10.2060 -10.2034
-10.2024 -10.1976 -10.1973 -10.1969 -10.1966 -10.1610 -10.1604 -10.1604
 -1.0684  -1.0621  -0.8898  -0.8566  -0.8099  -0.7773  -0.7672  -0.7001
 -0.6905  -0.6876  -0.6495  -0.6409  -0.5923  -0.5637  -0.5402  -0.5238
 -0.4972  -0.4863  -0.4605  -0.4603  -0.4568  -0.4508  -0.4430  -0.4418
 -0.4361  -0.4214  -0.4154  -0.3924  -0.3826  -0.3816  -0.3776  -0.3689
 -0.3677  -0.3573  -0.3432  -0.3379  -0.2973  -0.2830  -0.2787  -0.2778
 -0.2709

          Ground-State Mulliken Net Atomic Charges

     Atom                 Charge (a.u.)
  ----------------------------------------
      1 C                    -0.029039
      2 C                     0.837118
      3 C                    -0.702609
      4 C                    -0.702300
      5 C                     0.896612
      6 C                    -0.137020
      7 C                    -1.316210
      8 O                    -0.308026
      9 C                    -0.125156
     10 C                    -0.131448
     11 C                     0.328669
     12 C                     0.411361
     13 C                     0.207792
     14 C                    -0.066705
     15 C                    -1.705506
     16 O                    -0.213343
     17 H                     0.160535
     18 H                     0.210054
     19 H                     0.160600
     20 H                     0.123712
     21 H                     0.194317
     22 H                     0.139751
     23 H                     0.194280
     24 H                     0.123603
     25 H                     0.139788
     26 H                     0.286363
     27 H                     0.177328
     28 H                     0.323889
     29 H                     0.322587
     30 H                     0.199001
  ----------------------------------------
  Sum of atomic charges =     0.000000

                    Cartesian Multipole Moments
 -----------------------------------------------------------------
    Charge (ESU x 10^10)
                 0.0000
    Dipole Moment (Debye)
         X       0.6156      Y      -1.2326      Z       0.5898
       Tot       1.4987
    Quadrupole Moments (Debye-Ang)
        XX     -76.9978     XY     -10.8687     YY    -105.4626
        XZ       6.4295     YZ       2.6773     ZZ     -97.5995

 Total job time:  678.10s(wall), 5269.14s(cpu)
        *  Thank you very much for using Q-Chem.  Have a nice day.  *
