 Gaussian 16, Revision A.03,
 Gaussian 16:  ES64L-G16RevA.03 25-Dec-2016

 --------------------------------------
 #P UB3LYP/6-311++G(d,p) nosym opt freq
 --------------------------------------

 --------
 Oxidized
 --------
 Symbolic Z-matrix:
 Charge =  0 Multiplicity = 1

 SCF Done:  E(UB3LYP) =  -692.556475648     A.U. after   15 cycles
 SCF Done:  E(UB3LYP) =  -692.556475650     A.U. after    8 cycles
 SCF Done:  E(UB3LYP) =  -692.556475680     A.U. after    8 cycles
 Optimization completed.
    -- Stationary point found.
 Normal termination of Gaussian 16 at Sun Jan  7 20:20:08 2024.

 ----------------------------------------------------------------------
 #P Geom=AllCheck Guess=TCheck SCRF=Check GenChk UB3LYP/6-311++G(d,p) F
 req
 ----------------------------------------------------------------------

 Structure from the checkpoint file:  "239.chk"
 --------
 Oxidized
 --------
 Charge =  0 Multiplicity = 1

                          Input orientation:
 ---------------------------------------------------------------------
 Center     Atomic      Atomic             Coordinates (Angstroms)
 Number     Number       Type             X           Y           Z
 ---------------------------------------------------------------------
      1          6           0       -2.913026    1.312880   -0.748367
      2          6           0       -2.196372    0.084914   -0.155925
      3          6           0       -2.733986   -0.133039    1.281100
      4          6           0       -2.540227   -1.140171   -1.040493
      5          6           0       -0.676227    0.286079   -0.116278
      6          6           0       -0.075300    1.411574   -0.554569
      7          6           0        1.382045    1.658930   -0.540059
      8          8           0        1.830411    2.714980   -0.961445
      9          6           0        2.257194    0.586068   -0.000980
     10          6           0        3.642491    0.757543    0.040624
     11          6           0        4.450361   -0.254430    0.547704
     12          6           0        3.876939   -1.440257    1.014523
     13          6           0        2.497652   -1.615027    0.974782
     14          6           0        1.678286   -0.602668    0.466595
     15          6           0        0.196324   -0.813683    0.434042
     16          8           0       -0.276441   -1.859923    0.847798
     17          1           0       -2.605955    1.511579   -1.778943
     18          1           0       -3.989648    1.126729   -0.757080
     19          1           0       -2.740750    2.215781   -0.155980
     20          1           0       -2.318732   -1.031113    1.734883
     21          1           0       -3.822659   -0.234611    1.248030
     22          1           0       -2.498332    0.724232    1.918769
     23          1           0       -3.626984   -1.251982   -1.096086
     24          1           0       -2.120372   -2.059582   -0.636377
     25          1           0       -2.166779   -1.001309   -2.059474
     26          1           0       -0.643136    2.238666   -0.961059
     27          1           0        4.062193    1.685860   -0.327274
     28          1           0        5.525930   -0.123068    0.580841
     29          1           0        4.508700   -2.227778    1.409450
     30          1           0        2.036399   -2.527175    1.332157
 ---------------------------------------------------------------------

 SCF Done:  E(UB3LYP) =  -692.556475680     A.U. after    1 cycles

 Alpha  occ. eigenvalues --  -19.13363 -19.12908 -10.28490 -10.27759 -10.21997
 Alpha  occ. eigenvalues --  -10.20990 -10.20802 -10.20771 -10.20414 -10.20351
 Alpha  occ. eigenvalues --  -10.20297 -10.20063 -10.20057 -10.16970 -10.16358
 Alpha  occ. eigenvalues --  -10.16357  -1.06817  -1.06006  -0.89302  -0.85946
 Alpha  occ. eigenvalues --   -0.81338  -0.78075  -0.77075  -0.70413  -0.69365
 Alpha  occ. eigenvalues --   -0.69163  -0.65360  -0.64405  -0.59499  -0.56749
 Alpha  occ. eigenvalues --   -0.54258  -0.52738  -0.49937  -0.49146  -0.46473
 Alpha  occ. eigenvalues --   -0.46108  -0.45826  -0.45393  -0.44605  -0.44418
 Alpha  occ. eigenvalues --   -0.43885  -0.42011  -0.41889  -0.39569  -0.39028
 Alpha  occ. eigenvalues --   -0.38731  -0.38111  -0.37332  -0.37194  -0.36060
 Alpha  occ. eigenvalues --   -0.34750  -0.34231  -0.29795  -0.28214  -0.28141
 Alpha  occ. eigenvalues --   -0.28081  -0.27016
 Alpha virt. eigenvalues --   -0.12404  -0.05911  -0.03525  -0.01172  -0.00613
 Alpha virt. eigenvalues --    0.01040   0.01369   0.01455   0.01713   0.02338
 Alpha virt. eigenvalues --    0.03232   0.03421   0.03729   0.04179   0.04597

  Beta  occ. eigenvalues --  -19.13363 -19.12908 -10.28490 -10.27759 -10.21997
  Beta  occ. eigenvalues --  -10.20990 -10.20802 -10.20771 -10.20414 -10.20351
  Beta  occ. eigenvalues --  -10.20297 -10.20063 -10.20057 -10.16970 -10.16358
  Beta  occ. eigenvalues --  -10.16357  -1.06817  -1.06006  -0.89302  -0.85946
  Beta  occ. eigenvalues --   -0.81338  -0.78075  -0.77075  -0.70413  -0.69365
  Beta  occ. eigenvalues --   -0.69163  -0.65360  -0.64405  -0.59499  -0.56749
  Beta  occ. eigenvalues --   -0.54258  -0.52738  -0.49937  -0.49146  -0.46473
  Beta  occ. eigenvalues --   -0.46108  -0.45826  -0.45393  -0.44605  -0.44418
  Beta  occ. eigenvalues --   -0.43885  -0.42011  -0.41889  -0.39569  -0.39028
  Beta  occ. eigenvalues --   -0.38731  -0.38111  -0.37332  -0.37194  -0.36060
  Beta  occ. eigenvalues --   -0.34750  -0.34231  -0.29795  -0.28214  -0.28141
  Beta  occ. eigenvalues --   -0.28081  -0.27016
  Beta virt. eigenvalues --   -0.12404  -0.05911  -0.03525  -0.01172  -0.00613
  Beta virt. eigenvalues --    0.01040   0.01369   0.01455   0.01713   0.02338
  Beta virt. eigenvalues --    0.03232   0.03421   0.03729   0.04179   0.04597

 Mulliken charges and spin densities:
               1          2
     1  C   -0.450437  -0.000000
     2  C    0.601086  -0.000000
     3  C   -0.666162   0.000000
     4  C   -0.666137   0.000000
     5  C    0.894607   0.000000
     6  C   -0.214882  -0.000000
     7  C   -0.824916  -0.000000
     8  O   -0.224334  -0.000000
     9  C    0.658802   0.000000
    10  C   -0.121336  -0.000000
    11  C   -0.348063   0.000000
    12  C   -0.327294  -0.000000
    13  C    0.185755  -0.000000
    14  C    0.398680   0.000000
    15  C   -1.090009  -0.000000
    16  O   -0.180636  -0.000000
    17  H    0.134903  -0.000000
    18  H    0.175169   0.000000
    19  H    0.134858  -0.000000
    20  H    0.196647  -0.000000
    21  H    0.157302  -0.000000
    22  H    0.138852  -0.000000
    23  H    0.157301  -0.000000
    24  H    0.196656  -0.000000
    25  H    0.138845   0.000000
    26  H    0.224186  -0.000000
    27  H    0.178817  -0.000000
    28  H    0.179817   0.000000
    29  H    0.177370  -0.000000
    30  H    0.184551   0.000000
 Sum of Mulliken charges =  -0.00000   0.00000

 Dipole moment (field-independent basis, Debye):
    X=              0.3234    Y=             -1.0460    Z=              0.4837  Tot=              1.1969
 Quadrupole moment (field-independent basis, Debye-Ang):
   XX=            -80.8568   YY=           -105.0720   ZZ=            -97.6257
   XY=             -9.0434   XZ=              5.2930   YZ=              2.7123

  Exact polarizability: 221.361   5.595 173.228   7.318 -29.167 118.243
 Approx polarizability: 308.482  36.375 325.952  -3.450 -68.471 190.645

                      1                      2                      3
                      A                      A                      A
 Frequencies --     33.1189                67.7436               117.9240
 Red. masses --      4.8436                 3.4815                 5.0158
 Frc consts  --      0.0031                 0.0094                 0.0411
 IR Inten    --      3.6044                 0.1162                 0.4837

                      4                      5                      6
                      A                      A                      A
 Frequencies --    137.6639               175.5681               188.7465
 Red. masses --      4.2096                 4.0223                 4.3968
 Frc consts  --      0.0470                 0.0730                 0.0923
 IR Inten    --      4.6189                 0.6021                 0.0032

                      7                      8                      9
                      A                      A                      A
 Frequencies --    210.4784               248.7588               265.8116
 Red. masses --      1.3058                 1.1441                 3.0134
 Frc consts  --      0.0341                 0.0417                 0.1254
 IR Inten    --      0.5696                 0.0728                 0.1567

                     10                     11                     12
                      A                      A                      A
 Frequencies --    271.2207               283.0377               319.3609
 Red. masses --      2.3839                 5.3448                 2.8983
 Frc consts  --      0.1033                 0.2523                 0.1742
 IR Inten    --      0.0138                 0.6776                 0.2088

                     13                     14                     15
                      A                      A                      A
 Frequencies --    332.6062               377.7940               385.7456
 Red. masses --      1.0627                 2.2792                 9.3024
 Frc consts  --      0.0693                 0.1917                 0.8155
 IR Inten    --      0.0667                 0.1494                16.4522

                     16                     17                     18
                      A                      A                      A
 Frequencies --    415.6065               417.1375               461.0108
 Red. masses --      3.1760                 2.8769                 4.3138
 Frc consts  --      0.3232                 0.2949                 0.5402
 IR Inten    --      0.3297                 1.0375                 0.0843

                     19                     20                     21
                      A                      A                      A
 Frequencies --    464.5702               470.0555               527.3018
 Red. masses --      6.0885                 6.3785                 3.7174
 Frc consts  --      0.7742                 0.8304                 0.6090
 IR Inten    --      5.2185                 2.3603                 0.7029

                     22                     23                     24
                      A                      A                      A
 Frequencies --    534.7130               633.0751               683.6641
 Red. masses --      3.7168                 5.4652                 5.7314
 Frc consts  --      0.6261                 1.2905                 1.5783
 IR Inten    --      5.8509                 9.5518                 0.1245

                     25                     26                     27
                      A                      A                      A
 Frequencies --    685.3314               719.9678               734.6963
 Red. masses --      3.7789                 6.2657                 2.9787
 Frc consts  --      1.0457                 1.9136                 0.9473
 IR Inten    --      7.4522                 2.2614                36.9266

                     28                     29                     30
                      A                      A                      A
 Frequencies --    789.2460               792.0727               818.2542
 Red. masses --      4.0182                 1.6707                 4.7512
 Frc consts  --      1.4747                 0.6175                 1.8742
 IR Inten    --      0.4146                34.3894                 1.8297

                     31                     32                     33
                      A                      A                      A
 Frequencies --    823.2516               903.0278               916.0228
 Red. masses --      4.4218                 3.3703                 1.3843
 Frc consts  --      1.7657                 1.6193                 0.6844
 IR Inten    --      0.6689                54.9435                 0.2087

                     34                     35                     36
                      A                      A                      A
 Frequencies --    925.3301               939.5471               941.0746
 Red. masses --      1.8479                 1.7453                 1.4762
 Frc consts  --      0.9322                 0.9077                 0.7703
 IR Inten    --      2.3859                 5.6801                11.4143

                     37                     38                     39
                      A                      A                      A
 Frequencies --    965.5428              1001.2863              1017.5953
 Red. masses --      1.1993                 1.3846                 1.3263
 Frc consts  --      0.6588                 0.8179                 0.8092
 IR Inten    --      0.0907                 0.8909                 0.0001

                     40                     41                     42
                      A                      A                      A
 Frequencies --   1044.3611              1047.1871              1048.8241
 Red. masses --      1.5024                 2.6189                 1.3833
 Frc consts  --      0.9655                 1.6920                 0.8965
 IR Inten    --      6.1710                 5.0854                 0.1437

                     43                     44                     45
                      A                      A                      A
 Frequencies --   1094.3184              1103.7720              1143.7945
 Red. masses --      2.9464                 2.8911                 1.7840
 Frc consts  --      2.0789                 2.0753                 1.3751
 IR Inten    --      4.8838                 6.9973                25.3977

                     46                     47                     48
                      A                      A                      A
 Frequencies --   1183.1470              1216.0989              1221.6035
 Red. masses --      1.1319                 2.6764                 2.3308
 Frc consts  --      0.9336                 2.3320                 2.0494
 IR Inten    --      7.2729                 2.3555                32.1774

                     49                     50                     51
                      A                      A                      A
 Frequencies --   1242.2639              1268.0865              1280.8557
 Red. masses --      2.3181                 2.5242                 2.2018
 Frc consts  --      2.1077                 2.3915                 2.1282
 IR Inten    --      3.7998               160.5052                36.8368

                     52                     53                     54
                      A                      A                      A
 Frequencies --   1324.3254              1352.5319              1361.4033
 Red. masses --      2.9969                 2.3061                 5.6161
 Frc consts  --      3.0968                 2.4855                 6.1328
 IR Inten    --    136.7534                25.3837                23.2638

                     55                     56                     57
                      A                      A                      A
 Frequencies --   1392.5274              1398.3506              1427.9754
 Red. masses --      1.1958                 1.2308                 1.2183
 Frc consts  --      1.3662                 1.4179                 1.4636
 IR Inten    --      9.3286                15.3743                 7.6905

                     58                     59                     60
                      A                      A                      A
 Frequencies --   1480.6151              1482.3239              1495.8769
 Red. masses --      1.0460                 2.3765                 1.0493
 Frc consts  --      1.3510                 3.0766                 1.3834
 IR Inten    --      0.0109                 0.4421                 1.3500

                     61                     62                     63
                      A                      A                      A
 Frequencies --   1498.7847              1503.1876              1507.0101
 Red. masses --      1.0449                 1.0556                 2.6120
 Frc consts  --      1.3829                 1.4054                 3.4950
 IR Inten    --      0.3520                13.8947                 3.0790

                     64                     65                     66
                      A                      A                      A
 Frequencies --   1512.9156              1529.6565              1614.1050
 Red. masses --      1.0489                 1.0600                 6.7711
 Frc consts  --      1.4145                 1.4614                10.3938
 IR Inten    --      7.8426                18.9173                 4.5143

                     67                     68                     69
                      A                      A                      A
 Frequencies --   1628.8933              1649.7182              1713.8753
 Red. masses --      5.8419                 8.6318                11.1533
 Frc consts  --      9.1325                13.8411                19.3024
 IR Inten    --     67.2041                63.9718                 8.9992

                     70                     71                     72
                      A                      A                      A
 Frequencies --   1719.0499              3023.0490              3025.3240
 Red. masses --     11.4723                 1.0358                 1.0383
 Frc consts  --     19.9746                 5.5772                 5.5990
 IR Inten    --    395.9439                13.2730                37.4894

                     73                     74                     75
                      A                      A                      A
 Frequencies --   3030.9746              3081.3113              3082.8568
 Red. masses --      1.0388                 1.1022                 1.1016
 Frc consts  --      5.6226                 6.1657                 6.1686
 IR Inten    --     32.4567                 7.2624                21.9650

                     76                     77                     78
                      A                      A                      A
 Frequencies --   3090.1066              3095.2183              3136.8036
 Red. masses --      1.1023                 1.1006                 1.0981
 Frc consts  --      6.2012                 6.2122                 6.3661
 IR Inten    --     33.1122                56.5614                 0.0615

                     79                     80                     81
                      A                      A                      A
 Frequencies --   3139.3582              3170.1766              3184.4357
 Red. masses --      1.0974                 1.0870                 1.0917
 Frc consts  --      6.3726                 6.4363                 6.5223
 IR Inten    --     13.8628                 3.2188                 9.3737

                     82                     83                     84
                      A                      A                      A
 Frequencies --   3199.0061              3200.9520              3202.8548
 Red. masses --      1.0932                 1.0900                 1.0944
 Frc consts  --      6.5914                 6.5799                 6.6144
 IR Inten    --      2.6333                 1.7046                 8.3047

 - Thermochemistry -
 -------------------
 Temperature   298.150 Kelvin.  Pressure   1.00000 Atm.
 Atom     1 has atomic number  6 and mass  12.00000

 Molecular mass:   214.09938 amu.
 Principal axes and moments of inertia in atomic units:
                           1         2         3
     Eigenvalues --  1786.882314672.973586056.58767
           X            0.99495   0.06490  -0.07653
           Y           -0.02930   0.91733   0.39704
           Z            0.09598  -0.39280   0.91460
 This molecule is an asymmetric top.
 Rotational symmetry number  1.
 Warning -- assumption of classical behavior for rotation
           may cause significant error
 Rotational temperatures (Kelvin)      0.04847     0.01854     0.01430
 Rotational constants (GHZ):           1.00999     0.38621     0.29798
 Zero-point vibrational energy     640868.4 (Joules/Mol)
                                  153.17122 (Kcal/Mol)
 Warning -- explicit consideration of  22 degrees of freedom as
           vibrations may cause significant error
 Vibrational temperatures:     47.65    97.47   169.67   198.07   252.60
          (Kelvin)            271.56   302.83   357.91   382.44   390.23
                              407.23   459.49   478.55   543.56   555.00
                              597.97   600.17   663.29   668.41   676.31
                              758.67   769.33   910.85   983.64   986.04
                             1035.87  1057.06  1135.55  1139.62  1177.29
                             1184.48  1299.26  1317.95  1331.34  1351.80
                             1354.00  1389.20  1440.63  1464.09  1502.60
                             1506.67  1509.02  1574.48  1588.08  1645.67
                             1702.28  1749.70  1757.61  1787.34  1824.49
                             1842.87  1905.41  1945.99  1958.76  2003.54
                             2011.91  2054.54  2130.27  2132.73  2152.23
                             2156.42  2162.75  2168.25  2176.75  2200.83
                             2322.34  2343.61  2373.58  2465.88  2473.33
                             4349.49  4352.77  4360.90  4433.32  4435.54
                             4445.97  4453.33  4513.16  4516.84  4561.18
                             4581.69  4602.66  4605.46  4608.19

 Zero-point correction=                           0.244094 (Hartree/Particle)
 Thermal correction to Energy=                    0.258319
 Thermal correction to Enthalpy=                  0.259263
 Thermal correction to Gibbs Free Energy=         0.203540
 Sum of electronic and zero-point Energies=           -692.312382
 Sum of electronic and thermal Energies=              -692.298157
 Sum of electronic and thermal Enthalpies=            -692.297213
 Sum of electronic and thermal Free Energies=         -692.352936

                     E (Thermal)             CV                S
                      KCal/Mol        Cal/Mol-Kelvin    Cal/Mol-Kelvin
 Total                  162.097             56.415            117.278
 Electronic               0.000              0.000              0.000
 Translational            0.889              2.981             41.987
 Rotational               0.889              2.981             32.292
 Vibrational            160.320             50.453             42.999
 Vibration     1          0.594              1.983              5.633
 Vibration     2          0.598              1.970              4.218
 Vibration     3          0.608              1.934              3.134
 Vibration     4          0.614              1.916              2.836
 Vibration     5          0.628              1.872              2.375
 Vibration     6          0.633              1.855              2.240
 Vibration     7          0.643              1.825              2.040
 Vibration     8          0.662              1.765              1.739
 Vibration     9          0.672              1.736              1.623
 Vibration    10          0.675              1.726              1.588
 Vibration    11          0.682              1.705              1.515
 Vibration    12          0.705              1.637              1.313
 Vibration    13          0.715              1.610              1.247
 Vibration    14          0.748              1.517              1.048
 Vibration    15          0.754              1.501              1.017
 Vibration    16          0.779              1.436              0.907
 Vibration    17          0.780              1.433              0.902
 Vibration    18          0.819              1.337              0.763
 Vibration    19          0.822              1.329              0.753
 Vibration    20          0.827              1.316              0.737
 Vibration    21          0.882              1.190              0.593
 Vibration    22          0.890              1.173              0.577

                           ! Non-Optimized Parameters !
 Normal termination of Gaussian 16 at Sun Jan  7 20:54:20 2024.
