 Gaussian 16, Revision A.03,
 Gaussian 16:  ES64L-G16RevA.03 25-Dec-2016

 ----------------------------------------------------------------
 #P UB3LYP/6-311++G(d,p) SCRF=(PCM,Solvent=n,n-DiMethylFormamide)
 ----------------------------------------------------------------

 -------
 Reduced
 -------
 Symbolic Z-matrix:
 Charge = -2 Multiplicity = 1

                         Standard orientation:
 ---------------------------------------------------------------------
 Center     Atomic      Atomic             Coordinates (Angstroms)
 Number     Number       Type             X           Y           Z
 ---------------------------------------------------------------------
      1         17           0        3.155397   -1.850105   -0.000127
      2          6           0        2.358174   -0.232504   -0.000044
      3          6           0        3.255753    0.812564   -0.000079
      4          6           0        2.772552    2.150544    0.000072
      5          6           0        1.417177    2.371036    0.000144
      6          6           0        0.470352    1.314760    0.000061
      7          6           0       -0.923672    1.690579    0.000008
      8          8           0       -1.314639    2.921168   -0.000139
      9          6           0       -1.848058    0.584878   -0.000016
     10          6           0       -3.245320    0.842643   -0.000059
     11          6           0       -4.180405   -0.170257   -0.000042
     12          6           0       -3.746026   -1.526619   -0.000047
     13          6           0       -2.394348   -1.807192   -0.000012
     14          6           0       -1.405379   -0.791172    0.000043
     15          6           0       -0.005300   -1.191545    0.000172
     16          8           0        0.323031   -2.428025    0.000219
     17          6           0        0.938063   -0.086687    0.000054
     18          1           0        4.319338    0.602189   -0.000185
     19          1           0        3.478347    2.978841    0.000129
     20          1           0        0.999034    3.372472    0.000285
     21          1           0       -3.539261    1.887948   -0.000045
     22          1           0       -5.244416    0.063213   -0.000048
     23          1           0       -4.475645   -2.335102   -0.000079
     24          1           0       -2.027651   -2.829092   -0.000060
 ---------------------------------------------------------------------

 SCF Done:  E(UB3LYP) =  -1148.80497808     A.U. after   18 cycles

 The electronic state is 1-A.
 Alpha  occ. eigenvalues -- -101.52843 -19.01943 -19.01847 -10.21462 -10.18239
 Alpha  occ. eigenvalues --  -10.17396 -10.15581 -10.15369 -10.15289 -10.15179
 Alpha  occ. eigenvalues --  -10.15064 -10.14704 -10.14677 -10.14675 -10.14211
 Alpha  occ. eigenvalues --  -10.13870 -10.13830  -9.44313  -7.20738  -7.19848
 Alpha  occ. eigenvalues --   -7.19749  -0.94290  -0.93553  -0.85656  -0.82578
 Alpha  occ. eigenvalues --   -0.80467  -0.75474  -0.72390  -0.71150  -0.70987
 Alpha  occ. eigenvalues --   -0.63956  -0.61067  -0.59363  -0.55437  -0.52427
 Alpha  occ. eigenvalues --   -0.51161  -0.49671  -0.44636  -0.44067  -0.43655
 Alpha  occ. eigenvalues --   -0.42596  -0.40507  -0.39939  -0.38835  -0.38140
 Alpha  occ. eigenvalues --   -0.37116  -0.36905  -0.35641  -0.35554  -0.33095
 Alpha  occ. eigenvalues --   -0.32641  -0.31984  -0.31509  -0.30459  -0.29883
 Alpha  occ. eigenvalues --   -0.29422  -0.23355  -0.22793  -0.22291  -0.21931
 Alpha  occ. eigenvalues --   -0.20115  -0.19136  -0.10753
 Alpha virt. eigenvalues --   -0.03046  -0.00238   0.00129   0.00804   0.01312
 Alpha virt. eigenvalues --    0.01634   0.02061   0.02612   0.03420   0.04777
 Alpha virt. eigenvalues --    0.04947   0.05020   0.05783   0.06414   0.06761

  Beta  occ. eigenvalues -- -101.52843 -19.01943 -19.01847 -10.21462 -10.18239
  Beta  occ. eigenvalues --  -10.17396 -10.15581 -10.15369 -10.15289 -10.15179
  Beta  occ. eigenvalues --  -10.15064 -10.14704 -10.14677 -10.14675 -10.14211
  Beta  occ. eigenvalues --  -10.13870 -10.13830  -9.44313  -7.20738  -7.19848
  Beta  occ. eigenvalues --   -7.19749  -0.94290  -0.93553  -0.85656  -0.82578
  Beta  occ. eigenvalues --   -0.80467  -0.75474  -0.72390  -0.71150  -0.70987
  Beta  occ. eigenvalues --   -0.63956  -0.61067  -0.59363  -0.55437  -0.52427
  Beta  occ. eigenvalues --   -0.51161  -0.49671  -0.44636  -0.44067  -0.43655
  Beta  occ. eigenvalues --   -0.42596  -0.40507  -0.39939  -0.38835  -0.38140
  Beta  occ. eigenvalues --   -0.37116  -0.36905  -0.35641  -0.35554  -0.33095
  Beta  occ. eigenvalues --   -0.32641  -0.31984  -0.31509  -0.30459  -0.29883
  Beta  occ. eigenvalues --   -0.29422  -0.23355  -0.22793  -0.22291  -0.21931
  Beta  occ. eigenvalues --   -0.20115  -0.19136  -0.10753
  Beta virt. eigenvalues --   -0.03046  -0.00238   0.00129   0.00804   0.01312
  Beta virt. eigenvalues --    0.01634   0.02061   0.02612   0.03420   0.04777
  Beta virt. eigenvalues --    0.04947   0.05020   0.05783   0.06414   0.06761

 Mulliken charges and spin densities:
               1          2
     1  Cl   0.289355   0.000000
     2  C    0.930790  -0.000000
     3  C   -0.140197   0.000000
     4  C   -0.661784  -0.000000
     5  C    0.194068   0.000000
     6  C    0.239270  -0.000000
     7  C   -0.733761  -0.000000
     8  O   -0.651575   0.000000
     9  C    0.079181  -0.000000
    10  C    0.025094   0.000000
    11  C   -0.460845  -0.000000
    12  C   -0.496690  -0.000000
    13  C    0.097715   0.000000
    14  C    0.085996   0.000000
    15  C   -1.298048   0.000000
    16  O   -0.540046  -0.000000
    17  C   -0.062117  -0.000000
    18  H    0.175010   0.000000
    19  H    0.160839  -0.000000
    20  H    0.152721  -0.000000
    21  H    0.146939  -0.000000
    22  H    0.158154  -0.000000
    23  H    0.158597  -0.000000
    24  H    0.151334   0.000000
 Sum of Mulliken charges =  -2.00000   0.00000

 Dipole moment (field-independent basis, Debye):
    X=              2.2779    Y=             -0.8300    Z=             -0.0001  Tot=              2.4244
 Quadrupole moment (field-independent basis, Debye-Ang):
   XX=           -140.5642   YY=           -165.8468   ZZ=           -117.6170
   XY=             18.3603   XZ=             -0.0007   YZ=              0.0038

 Normal termination of Gaussian 16 at Sun Jan 14 01:19:31 2024.
