 Gaussian 16, Revision A.03,
 Gaussian 16:  ES64L-G16RevA.03 25-Dec-2016

 --------------------------------------
 #P UB3LYP/6-311++G(d,p) nosym opt freq
 --------------------------------------

 -------
 Reduced
 -------
 Symbolic Z-matrix:
 Charge = -2 Multiplicity = 1

 SCF Done:  E(UB3LYP) =  -1148.54584377     A.U. after   22 cycles
 SCF Done:  E(UB3LYP) =  -1148.54584455     A.U. after   12 cycles
 Optimization completed.
    -- Stationary point found.
 Normal termination of Gaussian 16 at Wed Dec 27 19:55:26 2023.

 ----------------------------------------------------------------------
 #P Geom=AllCheck Guess=TCheck SCRF=Check GenChk UB3LYP/6-311++G(d,p) F
 req
 ----------------------------------------------------------------------

 Structure from the checkpoint file:  "117-an.chk"
 -------
 Reduced
 -------
 Charge = -2 Multiplicity = 1

                          Input orientation:
 ---------------------------------------------------------------------
 Center     Atomic      Atomic             Coordinates (Angstroms)
 Number     Number       Type             X           Y           Z
 ---------------------------------------------------------------------
      1         17           0        3.013071    2.880107    0.339298
      2          6           0        2.610684    1.123887    0.262000
      3          6           0        3.719943    0.311022    0.343304
      4          6           0        3.557920   -1.101476    0.295647
      5          6           0        2.294671   -1.624829    0.169300
      6          6           0        1.135103   -0.812273    0.083564
      7          6           0       -0.130058   -1.495634   -0.046553
      8          8           0       -0.227294   -2.782591   -0.085138
      9          6           0       -1.279187   -0.629854   -0.130167
     10          6           0       -2.574513   -1.199033   -0.260361
     11          6           0       -3.712763   -0.426025   -0.345193
     12          6           0       -3.602256    0.993250   -0.302177
     13          6           0       -2.356337    1.574248   -0.176162
     14          6           0       -1.165137    0.810478   -0.086406
     15          6           0        0.100277    1.519121    0.044247
     16          8           0        0.135444    2.797545    0.077128
     17          6           0        1.267595    0.658481    0.129766
     18          1           0        4.702679    0.758064    0.442573
     19          1           0        4.431667   -1.747008    0.359481
     20          1           0        2.118657   -2.694904    0.128358
     21          1           0       -2.620108   -2.283525   -0.289732
     22          1           0       -4.690634   -0.895648   -0.444436
     23          1           0       -4.494558    1.614069   -0.368288
     24          1           0       -2.234865    2.652528   -0.140049
 ---------------------------------------------------------------------

 SCF Done:  E(UB3LYP) =  -1148.54584455     A.U. after    2 cycles

 Alpha  occ. eigenvalues -- -101.29889 -18.77098 -18.77050  -9.98346  -9.94021
 Alpha  occ. eigenvalues --   -9.93139  -9.92755  -9.92707  -9.92640  -9.92548
 Alpha  occ. eigenvalues --   -9.91688  -9.91629  -9.91514  -9.91509  -9.90301
 Alpha  occ. eigenvalues --   -9.90068  -9.90015  -9.21342  -6.97763  -6.96879
 Alpha  occ. eigenvalues --   -6.96787  -0.69478  -0.68623  -0.62409  -0.59276
 Alpha  occ. eigenvalues --   -0.57232  -0.52021  -0.49127  -0.47863  -0.47694
 Alpha  occ. eigenvalues --   -0.40295  -0.37937  -0.36168  -0.32340  -0.29066
 Alpha  occ. eigenvalues --   -0.28098  -0.26669  -0.21940  -0.20915  -0.20389
 Alpha  occ. eigenvalues --   -0.19421  -0.17397  -0.16781  -0.14877  -0.14865
 Alpha  occ. eigenvalues --   -0.13772  -0.13213  -0.12153  -0.11040  -0.09495
 Alpha  occ. eigenvalues --   -0.09010  -0.08656  -0.07500  -0.06858  -0.06316
 Alpha  occ. eigenvalues --   -0.05886   0.00022   0.01029   0.01514   0.02085
 Alpha  occ. eigenvalues --    0.04842   0.05614   0.13643
 Alpha virt. eigenvalues --    0.16273   0.16645   0.18027   0.18548   0.20268
 Alpha virt. eigenvalues --    0.20475   0.21535   0.21769   0.22638   0.22897
 Alpha virt. eigenvalues --    0.24216   0.25479   0.26320   0.26623   0.27074

  Beta  occ. eigenvalues -- -101.29889 -18.77098 -18.77050  -9.98346  -9.94021
  Beta  occ. eigenvalues --   -9.93139  -9.92755  -9.92707  -9.92640  -9.92548
  Beta  occ. eigenvalues --   -9.91688  -9.91629  -9.91514  -9.91509  -9.90301
  Beta  occ. eigenvalues --   -9.90068  -9.90015  -9.21342  -6.97763  -6.96879
  Beta  occ. eigenvalues --   -6.96787  -0.69478  -0.68623  -0.62409  -0.59276
  Beta  occ. eigenvalues --   -0.57232  -0.52021  -0.49127  -0.47863  -0.47694
  Beta  occ. eigenvalues --   -0.40295  -0.37937  -0.36168  -0.32340  -0.29066
  Beta  occ. eigenvalues --   -0.28098  -0.26669  -0.21940  -0.20915  -0.20389
  Beta  occ. eigenvalues --   -0.19421  -0.17397  -0.16781  -0.14877  -0.14865
  Beta  occ. eigenvalues --   -0.13772  -0.13213  -0.12153  -0.11040  -0.09495
  Beta  occ. eigenvalues --   -0.09010  -0.08656  -0.07500  -0.06858  -0.06316
  Beta  occ. eigenvalues --   -0.05886   0.00022   0.01029   0.01514   0.02085
  Beta  occ. eigenvalues --    0.04842   0.05614   0.13643
  Beta virt. eigenvalues --    0.16273   0.16645   0.18027   0.18548   0.20268
  Beta virt. eigenvalues --    0.20475   0.21535   0.21769   0.22638   0.22897
  Beta virt. eigenvalues --    0.24216   0.25479   0.26320   0.26623   0.27074

 Mulliken charges and spin densities:
               1          2
     1  Cl   0.270813   0.000000
     2  C    1.138653  -0.000000
     3  C   -0.284172   0.000000
     4  C   -0.650831  -0.000000
     5  C    0.249866  -0.000000
     6  C    0.362161  -0.000000
     7  C   -1.062163   0.000000
     8  O   -0.514632  -0.000000
     9  C    0.226422  -0.000000
    10  C    0.015978  -0.000000
    11  C   -0.385437   0.000000
    12  C   -0.466312   0.000000
    13  C    0.118175  -0.000000
    14  C    0.211989  -0.000000
    15  C   -1.518793   0.000000
    16  O   -0.397564   0.000000
    17  C   -0.018775   0.000000
    18  H    0.092845   0.000000
    19  H    0.073124  -0.000000
    20  H    0.134794   0.000000
    21  H    0.125902  -0.000000
    22  H    0.070812  -0.000000
    23  H    0.070900   0.000000
    24  H    0.136245  -0.000000
 Sum of Mulliken charges =  -2.00000   0.00000

 Dipole moment (field-independent basis, Debye):
    X=             -1.7887    Y=             -1.9962    Z=             -0.2080  Tot=              2.6884
 Quadrupole moment (field-independent basis, Debye-Ang):
   XX=           -161.4481   YY=           -171.5347   ZZ=           -118.8895
   XY=             -9.1793   XZ=             -4.0948   YZ=             -2.0611

  Exact polarizability: 422.707  -4.878 265.540  25.980   2.645 135.993
 Approx polarizability: 743.431 -27.077 497.778  49.170   4.671 196.504

                      1                      2                      3
                      A                      A                      A
 Frequencies --     29.8673                56.8082               125.3804
 Red. masses --     12.2210                 6.5567                 4.2850
 Frc consts  --      0.0064                 0.0125                 0.0397
 IR Inten    --      2.3939                 4.3690                 0.0600

                      4                      5                      6
                      A                      A                      A
 Frequencies --    165.8550               174.3499               198.2975
 Red. masses --      7.7495                10.6497                 4.7673
 Frc consts  --      0.1256                 0.1907                 0.1104
 IR Inten    --      2.7749                 5.4204                 0.0127

                      7                      8                      9
                      A                      A                      A
 Frequencies --    251.6258               267.6484               314.1695
 Red. masses --      5.4840                 7.4759                11.2051
 Frc consts  --      0.2046                 0.3155                 0.6516
 IR Inten    --      0.0036                 0.9779                 0.8566

                     10                     11                     12
                      A                      A                      A
 Frequencies --    366.4875               370.5625               382.3483
 Red. masses --      7.0609                11.7086                 7.9148
 Frc consts  --      0.5588                 0.9473                 0.6817
 IR Inten    --      3.9390                 1.5461                 0.9307

                     13                     14                     15
                      A                      A                      A
 Frequencies --    407.8166               439.5814               456.7470
 Red. masses --      7.9757                 3.4448                 8.5037
 Frc consts  --      0.7815                 0.3922                 1.0452
 IR Inten    --      6.6182                 0.9776                 7.3970

                     16                     17                     18
                      A                      A                      A
 Frequencies --    486.2351               497.9136               533.6498
 Red. masses --      4.2676                12.0105                 4.5127
 Frc consts  --      0.5945                 1.7544                 0.7572
 IR Inten    --      0.0060                 0.6927                 4.8228

                     19                     20                     21
                      A                      A                      A
 Frequencies --    602.5793               615.8836               644.3084
 Red. masses --      6.5568                 4.6018                 6.9889
 Frc consts  --      1.4027                 1.0284                 1.7094
 IR Inten    --     34.7700                 1.3877                13.1988

                     22                     23                     24
                      A                      A                      A
 Frequencies --    673.6738               684.8372               700.7425
 Red. masses --      1.6443                 7.0357                 2.1447
 Frc consts  --      0.4397                 1.9442                 0.6205
 IR Inten    --    101.9793                 2.4904                 7.8092

                     25                     26                     27
                      A                      A                      A
 Frequencies --    721.4394               731.4156               753.8825
 Red. masses --      1.8573                 7.4465                 2.3159
 Frc consts  --      0.5696                 2.3471                 0.7755
 IR Inten    --      6.5599                67.3600                23.3193

                     28                     29                     30
                      A                      A                      A
 Frequencies --    770.7179               785.3107               818.3788
 Red. masses --      1.7684                 1.4491                 6.9208
 Frc consts  --      0.6189                 0.5266                 2.7309
 IR Inten    --      0.0395                 0.0260                 8.7024

                     31                     32                     33
                      A                      A                      A
 Frequencies --    829.2296               929.5905               939.7740
 Red. masses --      4.3898                 7.0515                 7.2648
 Frc consts  --      1.7785                 3.5902                 3.7803
 IR Inten    --      0.2653                 7.5023                11.3103

                     34                     35                     36
                      A                      A                      A
 Frequencies --    954.0403               961.4186               964.2807
 Red. masses --      1.2582                 1.2988                 1.3439
 Frc consts  --      0.6747                 0.7073                 0.7363
 IR Inten    --      0.2310                 0.1873                 4.5585

                     37                     38                     39
                      A                      A                      A
 Frequencies --   1012.0984              1057.1220              1084.1790
 Red. masses --      2.0787                 2.1704                 3.4269
 Frc consts  --      1.2545                 1.4290                 2.3733
 IR Inten    --    100.8097               139.5432                51.5783

                     40                     41                     42
                      A                      A                      A
 Frequencies --   1096.9649              1107.6661              1146.0875
 Red. masses --      1.9838                 1.7117                 1.3145
 Frc consts  --      1.4065                 1.2374                 1.0173
 IR Inten    --     25.6431               247.4739                24.3347

                     43                     44                     45
                      A                      A                      A
 Frequencies --   1180.0146              1190.3075              1210.2553
 Red. masses --      2.8699                 1.9279                 2.2943
 Frc consts  --      2.3544                 1.6094                 1.9800
 IR Inten    --      0.7956                56.5904               143.4011

                     46                     47                     48
                      A                      A                      A
 Frequencies --   1233.6198              1293.1570              1335.2349
 Red. masses --      2.3537                 4.6589                 2.4672
 Frc consts  --      2.1104                 4.5902                 2.5916
 IR Inten    --    164.1827               305.5271               314.2211

                     49                     50                     51
                      A                      A                      A
 Frequencies --   1348.8962              1359.3378              1420.6849
 Red. masses --      7.8935                 2.5880                 3.1979
 Frc consts  --      8.4621                 2.8176                 3.8029
 IR Inten    --    239.4309               523.3323               185.7761

                     52                     53                     54
                      A                      A                      A
 Frequencies --   1460.4446              1463.5495              1470.7108
 Red. masses --      3.4861                 4.5819                 3.8906
 Frc consts  --      4.3809                 5.7824                 4.9582
 IR Inten    --      7.9802               223.6491                23.7316

                     55                     56                     57
                      A                      A                      A
 Frequencies --   1482.8448              1514.4276              1567.2939
 Red. masses --      4.7284                 5.4927                 5.6013
 Frc consts  --      6.1257                 7.4222                 8.1066
 IR Inten    --    391.0464                84.5671                 3.9272

                     58                     59                     60
                      A                      A                      A
 Frequencies --   1576.5956              1588.0385              3085.8304
 Red. masses --      6.8504                 5.7288                 1.0824
 Frc consts  --     10.0324                 8.5121                 6.0729
 IR Inten    --      9.4220                16.1876                47.7313

                     61                     62                     63
                      A                      A                      A
 Frequencies --   3107.1154              3110.4878              3156.1374
 Red. masses --      1.0852                 1.0905                 1.0902
 Frc consts  --      6.1728                 6.2162                 6.3983
 IR Inten    --     80.5063               128.6529                26.1998

                     64                     65                     66
                      A                      A                      A
 Frequencies --   3158.9513              3159.7298              3164.1024
 Red. masses --      1.0910                 1.0895                 1.0923
 Frc consts  --      6.4147                 6.4090                 6.4430
 IR Inten    --     66.2224                25.4473                40.0432

 - Thermochemistry -
 -------------------
 Temperature   298.150 Kelvin.  Pressure   1.00000 Atm.
 Atom     1 has atomic number 17 and mass  34.96885

 Molecular mass:   242.01346 amu.
 Principal axes and moments of inertia in atomic units:
                           1         2         3
     Eigenvalues --  2422.584625166.300767588.88536
           X            0.95934  -0.26755  -0.08993
           Y            0.26655   0.96354  -0.02317
           Z            0.09285  -0.00174   0.99568
 This molecule is an asymmetric top.
 Rotational symmetry number  1.
 Warning -- assumption of classical behavior for rotation
           may cause significant error
 Rotational temperatures (Kelvin)      0.03575     0.01677     0.01141
 Rotational constants (GHZ):           0.74497     0.34933     0.23781
 Zero-point vibrational energy     429152.7 (Joules/Mol)
                                  102.56996 (Kcal/Mol)
 Warning -- explicit consideration of  20 degrees of freedom as
           vibrations may cause significant error
 Vibrational temperatures:     42.97    81.73   180.39   238.63   250.85
          (Kelvin)            285.31   362.03   385.09   452.02   527.29
                              533.16   550.11   586.76   632.46   657.16
                              699.58   716.39   767.80   866.98   886.12
                              927.02   969.27   985.33  1008.21  1037.99
                             1052.34  1084.67  1108.89  1129.89  1177.46
                             1193.08  1337.47  1352.13  1372.65  1383.27
                             1387.38  1456.18  1520.96  1559.89  1578.29
                             1593.68  1648.96  1697.78  1712.59  1741.29
                             1774.90  1860.56  1921.11  1940.76  1955.78
                             2044.05  2101.25  2105.72  2116.02  2133.48
                             2178.92  2254.99  2268.37  2284.83  4439.82
                             4470.45  4475.30  4540.98  4545.03  4546.15
                             4552.44

 Zero-point correction=                           0.163456 (Hartree/Particle)
 Thermal correction to Energy=                    0.176256
 Thermal correction to Enthalpy=                  0.177200
 Thermal correction to Gibbs Free Energy=         0.123394
 Sum of electronic and zero-point Energies=          -1148.382389
 Sum of electronic and thermal Energies=             -1148.369589
 Sum of electronic and thermal Enthalpies=           -1148.368644
 Sum of electronic and thermal Free Energies=        -1148.422451

                     E (Thermal)             CV                S
                      KCal/Mol        Cal/Mol-Kelvin    Cal/Mol-Kelvin
 Total                  110.602             51.455            113.245
 Electronic               0.000              0.000              0.000
 Translational            0.889              2.981             42.353
 Rotational               0.889              2.981             32.918
 Vibrational            108.825             45.493             37.975
 Vibration     1          0.594              1.984              5.838
 Vibration     2          0.596              1.975              4.565
 Vibration     3          0.610              1.928              3.016
 Vibration     4          0.624              1.884              2.482
 Vibration     5          0.627              1.874              2.388
 Vibration     6          0.637              1.842              2.149
 Vibration     7          0.664              1.760              1.719
 Vibration     8          0.673              1.733              1.611
 Vibration     9          0.702              1.647              1.340
 Vibration    10          0.739              1.541              1.094
 Vibration    11          0.743              1.533              1.077
 Vibration    12          0.752              1.508              1.030
 Vibration    13          0.772              1.453              0.934
 Vibration    14          0.800              1.384              0.828
 Vibration    15          0.815              1.346              0.776
 Vibration    16          0.842              1.281              0.693
 Vibration    17          0.853              1.255              0.663
 Vibration    18          0.889              1.176              0.579
 Vibration    19          0.961              1.026              0.445
 Vibration    20          0.975              0.998              0.423

 Optimization completed.
    -- Stationary point found.
 Normal termination of Gaussian 16 at Wed Dec 27 20:34:05 2023.
