 Q-Chem 5.4, Q-Chem, Inc., Pleasanton, CA (2021)
 Q-Chem 5.4.0 for Intel X86 EM64T Linux

User input:
--------------------------------------------------------------
$molecule
-2 1
C                  6.6726410000      0.5768660000      0.7367060000
C                  5.1915730000      0.4567720000      0.4604320000
C                  4.4640600000      1.4855120000     -0.1580840000
C                  3.1126930000      1.3638780000     -0.4444170000
C                  2.3791850000      0.1884310000     -0.1245230000
N                  1.0452250000      0.1749120000     -0.4171830000
C                  0.0941490000     -0.8534830000     -0.3393050000
C                  0.4207770000     -2.1914960000     -0.4439960000
C                 -0.5816550000     -3.1836500000     -0.3630660000
C                 -1.9073720000     -2.8471310000     -0.1692810000
O                 -2.8304560000     -3.8751390000     -0.0626540000
C                 -2.3316140000     -1.4866860000     -0.0935750000
C                 -3.7405030000     -1.1484360000      0.0845240000
O                 -4.6702420000     -1.9981290000      0.2165250000
C                 -4.0424280000      0.2821180000      0.0983020000
C                 -5.3832140000      0.6944260000      0.2650740000
C                 -5.7429600000      2.0285570000      0.2770170000
C                 -4.7406470000      3.0209100000      0.1156910000
C                 -3.4244050000      2.6486740000     -0.0515160000
C                 -3.0303220000      1.2821930000     -0.0633610000
C                 -1.6452600000      0.9450850000     -0.2390970000
O                 -0.7683530000      1.9055530000     -0.4238540000
C                 -1.3003630000     -0.4488310000     -0.2152400000
C                  3.1167220000     -0.8471330000      0.5081150000
C                  4.4731610000     -0.6999940000      0.7849890000
H                  7.2610740000     -0.1879640000      0.2076030000
H                  7.0598280000      1.5498950000      0.4166770000
H                  6.9086350000      0.4709170000      1.8024470000
H                  4.9740880000      2.4089810000     -0.4242220000
H                  2.5810280000      2.1826910000     -0.9181890000
H                  0.5205340000      1.1026170000     -0.4971190000
H                  1.4421150000     -2.4929440000     -0.6310310000
H                 -0.3038290000     -4.2344830000     -0.4444790000
H                 -2.3186800000     -4.6882500000     -0.1376900000
H                 -6.1198360000     -0.0937360000      0.3820960000
H                 -6.7835070000      2.3177150000      0.4078690000
H                 -5.0123500000      4.0748190000      0.1244210000
H                 -2.6383850000      3.3845280000     -0.1792330000
H                  2.6102710000     -1.7482510000      0.8222940000
H                  4.9886200000     -1.5203140000      1.2816030000
$end
$rem
MAX_SCF_CYCLES=200
BASIS  =  6-311++G(d,p)
GUI  =  2
JOB_TYPE  =  SP
THRESH = 14
SCF_CONVERGENCE  = 6
METHOD  =  B3LYP
SOLVENT_METHOD = COSMO
$end
$solvent
dielectric 37.219
opticaldielectric 1.43
$end

--------------------------------------------------------------

             Standard Nuclear Orientation (Angstroms)
    I     Atom           X                Y                Z
 ----------------------------------------------------------------
    1      C      -7.2231359440    -0.6548919412     0.5562419327
    2      C      -5.7352688324    -0.5419097413     0.3158281369
    3      C      -5.0000442075    -1.5693903695    -0.2956221920
    4      C      -3.6415945122    -1.4539143185    -0.5491057070
    5      C      -2.9083001138    -0.2864914056    -0.2006162887
    6      N      -1.5677933807    -0.2789466704    -0.4618952506
    7      C      -0.6122650488     0.7423425342    -0.3517100238
    8      C      -0.9278150913     2.0834348353    -0.4508284109
    9      C       0.0787515978     3.0681168254    -0.3367494128
   10      C       1.3973946749     2.7209888465    -0.1153768101
   11      O       2.3242635437     3.7417973741     0.0228906346
   12      C       1.8110657233     1.3571023216    -0.0431751355
   13      C       3.2132125986     1.0078462097     0.1644419132
   14      O       4.1450035074     1.8500621975     0.3264758555
   15      C       3.5056059422    -0.4247367362     0.1711888888
   16      C       4.8394629982    -0.8474862833     0.3651632665
   17      C       5.1903179976    -2.1840169054     0.3723751008
   18      C       4.1857517104    -3.1681197032     0.1779267459
   19      C       2.8761861443    -2.7855972656    -0.0163036224
   20      C       2.4912082022    -1.4164930689    -0.0239010599
   21      C       1.1128186913    -1.0685591180    -0.2286106377
   22      O       0.2343734422    -2.0213802144    -0.4432398929
   23      C       0.7763510984     0.3273074677    -0.1990988421
   24      C      -3.6538329892     0.7477421187     0.4247845528
   25      C      -5.0172942801     0.6068879637     0.6684426601
   26      H      -7.7941291857     0.1188977881     0.0210929051
   27      H      -7.6089177394    -1.6221964288     0.2176976913
   28      H      -7.4833424018    -0.5577178779     1.6171717317
   29      H      -5.5095768776    -2.4868492255    -0.5826739215
   30      H      -3.1042114718    -2.2715915135    -1.0183665959
   31      H      -1.0472993075    -1.2092782399    -0.5386811035
   32      H      -1.9425504830     2.3934188250    -0.6586896848
   33      H      -0.1903867720     4.1215010570    -0.4142836338
   34      H       1.8195792258     4.5589590740    -0.0560718194
   35      H       5.5781522966    -0.0653766640     0.5071073452
   36      H       6.2256507702    -2.4812942262     0.5246409816
   37      H       4.4504513571    -4.2238350570     0.1826280416
   38      H       2.0886973252    -3.5149726510    -0.1695781758
   39      H      -3.1491437771     1.6424096586     0.7595583594
   40      H      -5.5390013985     1.4257437188     1.1609315260
 ----------------------------------------------------------------

   20   -1089.9895892304      3.04e-07  Convergence criterion met
 Total energy in the final basis set =    -1089.9895892304
    8   -1090.2500625940      4.44e-07  Convergence criterion met
 Total energy in the final basis set =    -1090.2500625940

                    Orbital Energies (a.u.)
 --------------------------------------------------------------

 Alpha MOs
 -- Occupied --
-19.1302 -19.0356 -19.0275 -14.2955 -10.2090 -10.2043 -10.1900 -10.1891
-10.1811 -10.1637 -10.1623 -10.1619 -10.1570 -10.1565 -10.1565 -10.1534
-10.1525 -10.1513 -10.1496 -10.1490 -10.1488 -10.1436 -10.1428 -10.1426
-10.1402  -1.0396  -0.9590  -0.9552  -0.9175  -0.8411  -0.8318  -0.8145
 -0.7589  -0.7540  -0.7359  -0.7274  -0.7151  -0.7103  -0.6651  -0.6426
 -0.6166  -0.6078  -0.5969  -0.5811  -0.5592  -0.5417  -0.5322  -0.5225
 -0.4909  -0.4861  -0.4590  -0.4569  -0.4510  -0.4397  -0.4341  -0.4228
 -0.4165  -0.4108  -0.4086  -0.4041  -0.4032  -0.4008  -0.3821  -0.3813
 -0.3775  -0.3721  -0.3673  -0.3610  -0.3572  -0.3495  -0.3433  -0.3404
 -0.3280  -0.3268  -0.3192  -0.3138  -0.3106  -0.2849  -0.2482  -0.2358
 -0.2344  -0.2272  -0.2224  -0.2124  -0.2007  -0.1698  -0.1108

          Ground-State Mulliken Net Atomic Charges

     Atom                 Charge (a.u.)
  ----------------------------------------
      1 C                    -0.624705
      2 C                     0.381751
      3 C                    -0.704596
      4 C                    -0.465136
      5 C                    -0.119792
      6 N                    -0.064582
      7 C                     0.021169
      8 C                    -0.105402
      9 C                    -0.528828
     10 C                    -0.347590
     11 O                    -0.287013
     12 C                     0.487153
     13 C                    -0.241708
     14 O                    -0.647321
     15 C                     0.038113
     16 C                     0.018182
     17 C                    -0.602672
     18 C                    -0.563019
     19 C                    -0.097396
     20 C                     0.132290
     21 C                    -0.205341
     22 O                    -0.647334
     23 C                     0.180744
     24 C                     0.013732
     25 C                    -0.058309
     26 H                     0.163573
     27 H                     0.160605
     28 H                     0.161414
     29 H                     0.172991
     30 H                     0.171102
     31 H                     0.510671
     32 H                     0.176509
     33 H                     0.172925
     34 H                     0.301615
     35 H                     0.155599
     36 H                     0.180840
     37 H                     0.183146
     38 H                     0.152818
     39 H                     0.165691
     40 H                     0.208108
  ----------------------------------------
  Sum of atomic charges =    -2.000000

                    Cartesian Multipole Moments
 -----------------------------------------------------------------
    Charge (ESU x 10^10)
                -9.6064
    Dipole Moment (Debye)
         X     -17.6874      Y       0.4247      Z       0.3391
       Tot      17.6957
    Quadrupole Moments (Debye-Ang)
        XX    -242.5089     XY     -23.0886     YY    -174.1418
        XZ      -6.0445     YZ      -2.2508     ZZ    -162.2766

 Total job time:  495.66s(wall), 3885.65s(cpu)
        *  Thank you very much for using Q-Chem.  Have a nice day.  *
