 Gaussian 16, Revision A.03,
 Gaussian 16:  ES64L-G16RevA.03 25-Dec-2016

 ----------------------------------------------------------------
 #P UB3LYP/6-311++G(d,p) SCRF=(PCM,Solvent=n,n-DiMethylFormamide)
 ----------------------------------------------------------------

 ------------------
 Quinone PCM in DMF
 ------------------
 Symbolic Z-matrix:
 Charge =  0 Multiplicity = 1

                         Standard orientation:
 ---------------------------------------------------------------------
 Center     Atomic      Atomic             Coordinates (Angstroms)
 Number     Number       Type             X           Y           Z
 ---------------------------------------------------------------------
      1          6           0        2.291956   -2.937963   -0.000055
      2          6           0        2.168486   -1.433284   -0.000186
      3          6           0        3.353130   -0.691872   -0.000717
      4          6           0        3.353113    0.691972   -0.000702
      5          6           0        2.168439    1.433338   -0.000140
      6          6           0        2.291755    2.938019    0.000125
      7          6           0        0.950297    0.713380    0.000171
      8          6           0       -0.343736    1.465802    0.000455
      9          8           0       -0.381501    2.687997    0.000992
     10          6           0       -1.620946    0.698944   -0.000028
     11          6           0       -2.834798    1.395900   -0.000386
     12          6           0       -4.036071    0.699420   -0.000665
     13          6           0       -4.036039   -0.699533   -0.000522
     14          6           0       -2.834739   -1.395967   -0.000133
     15          6           0       -1.620917   -0.698966    0.000066
     16          6           0       -0.343695   -1.465816    0.000452
     17          8           0       -0.381438   -2.688007    0.001061
     18          6           0        0.950325   -0.713372    0.000152
     19          1           0        1.809181   -3.385746   -0.870299
     20          1           0        1.809599   -3.385550    0.870504
     21          1           0        3.348501   -3.215140   -0.000310
     22          1           0        4.299874   -1.221401   -0.001121
     23          1           0        4.299831    1.221544   -0.001095
     24          1           0        1.809483    3.385404    0.870839
     25          1           0        1.808666    3.385828   -0.869923
     26          1           0        3.348254    3.215367   -0.000303
     27          1           0       -2.809486    2.478229   -0.000397
     28          1           0       -4.975228    1.241104   -0.000971
     29          1           0       -4.975164   -1.241274   -0.000709
     30          1           0       -2.809350   -2.478294    0.000032
 ---------------------------------------------------------------------

 SCF Done:  E(UB3LYP) =  -767.606740094     A.U. after   14 cycles

 The electronic state is 1-A.
 Alpha  occ. eigenvalues --  -19.12538 -19.12537 -10.27978 -10.27977 -10.20990
 Alpha  occ. eigenvalues --  -10.20949 -10.20844 -10.20843 -10.20509 -10.20456
 Alpha  occ. eigenvalues --  -10.19727 -10.19676 -10.19539 -10.19539 -10.19157
 Alpha  occ. eigenvalues --  -10.19098 -10.16799 -10.16799  -1.06305  -1.06123
 Alpha  occ. eigenvalues --   -0.89206  -0.88220  -0.81099  -0.80687  -0.77621
 Alpha  occ. eigenvalues --   -0.76762  -0.72934  -0.69898  -0.66004  -0.65922
 Alpha  occ. eigenvalues --   -0.64267  -0.60313  -0.57046  -0.55834  -0.53977
 Alpha  occ. eigenvalues --   -0.49948  -0.49457  -0.48662  -0.47797  -0.45875
 Alpha  occ. eigenvalues --   -0.45731  -0.45011  -0.44473  -0.43784  -0.43001
 Alpha  occ. eigenvalues --   -0.42015  -0.41441  -0.40492  -0.40258  -0.38640
 Alpha  occ. eigenvalues --   -0.38226  -0.37715  -0.37173  -0.36940  -0.36252
 Alpha  occ. eigenvalues --   -0.35926  -0.28671  -0.27864  -0.27685  -0.27461
 Alpha  occ. eigenvalues --   -0.26752  -0.26024
 Alpha virt. eigenvalues --   -0.11434  -0.06913  -0.03626  -0.02431  -0.00772
 Alpha virt. eigenvalues --    0.00128   0.00479   0.01467   0.01920   0.03009
 Alpha virt. eigenvalues --    0.03067   0.03482   0.03757   0.03821   0.03845

  Beta  occ. eigenvalues --  -19.12538 -19.12537 -10.27978 -10.27977 -10.20990
  Beta  occ. eigenvalues --  -10.20949 -10.20844 -10.20843 -10.20509 -10.20456
  Beta  occ. eigenvalues --  -10.19727 -10.19676 -10.19539 -10.19539 -10.19157
  Beta  occ. eigenvalues --  -10.19098 -10.16799 -10.16799  -1.06305  -1.06123
  Beta  occ. eigenvalues --   -0.89206  -0.88220  -0.81099  -0.80687  -0.77621
  Beta  occ. eigenvalues --   -0.76762  -0.72934  -0.69898  -0.66004  -0.65922
  Beta  occ. eigenvalues --   -0.64267  -0.60313  -0.57046  -0.55834  -0.53977
  Beta  occ. eigenvalues --   -0.49948  -0.49457  -0.48662  -0.47797  -0.45875
  Beta  occ. eigenvalues --   -0.45731  -0.45011  -0.44473  -0.43784  -0.43001
  Beta  occ. eigenvalues --   -0.42015  -0.41441  -0.40492  -0.40258  -0.38640
  Beta  occ. eigenvalues --   -0.38226  -0.37715  -0.37173  -0.36940  -0.36252
  Beta  occ. eigenvalues --   -0.35926  -0.28671  -0.27864  -0.27685  -0.27461
  Beta  occ. eigenvalues --   -0.26752  -0.26024
  Beta virt. eigenvalues --   -0.11434  -0.06913  -0.03626  -0.02431  -0.00772
  Beta virt. eigenvalues --    0.00128   0.00479   0.01467   0.01920   0.03009
  Beta virt. eigenvalues --    0.03067   0.03482   0.03757   0.03821   0.03845

 Mulliken charges and spin densities:
               1          2
     1  C   -0.334076  -0.000000
     2  C    0.976174  -0.000000
     3  C   -0.490840  -0.000000
     4  C   -0.490768  -0.000000
     5  C    0.976227  -0.000000
     6  C   -0.334034  -0.000000
     7  C    0.324338   0.000000
     8  C   -1.080017   0.000000
     9  O   -0.238068  -0.000000
    10  C    0.149169   0.000000
    11  C    0.122983   0.000000
    12  C   -0.496576  -0.000000
    13  C   -0.496575  -0.000000
    14  C    0.123042   0.000000
    15  C    0.149283   0.000000
    16  C   -1.079965   0.000000
    17  O   -0.238073  -0.000000
    18  C    0.324394   0.000000
    19  H    0.175273   0.000000
    20  H    0.175306   0.000000
    21  H    0.161594  -0.000000
    22  H    0.157655   0.000000
    23  H    0.157663   0.000000
    24  H    0.175314  -0.000000
    25  H    0.175252  -0.000000
    26  H    0.161596  -0.000000
    27  H    0.192112   0.000000
    28  H    0.204753  -0.000000
    29  H    0.204756  -0.000000
    30  H    0.192106   0.000000
 Sum of Mulliken charges =  -0.00000  -0.00000

 Dipole moment (field-independent basis, Debye):
    X=              0.7745    Y=              0.0000    Z=             -0.0038  Tot=              0.7745
 Quadrupole moment (field-independent basis, Debye-Ang):
   XX=            -75.7949   YY=           -114.4245   ZZ=           -107.2384
   XY=              0.0001   XZ=              0.0014   YZ=              0.0001

 Normal termination of Gaussian 16 at Sun Jan 14 01:06:02 2024.
