 Q-Chem 5.4, Q-Chem, Inc., Pleasanton, CA (2021)
 Q-Chem 5.4.0 for Intel X86 EM64T Linux

User input:
--------------------------------------------------------------
$molecule
-1 2
C                 -1.2160590000      2.8516290000      0.0180900000
C                 -2.5012300000      2.3503070000      0.0165190000
C                 -2.7335720000      0.9630670000      0.0150150000
C                 -0.1039200000      1.9824140000      0.0182230000
C                 -0.3276150000      0.5796980000      0.0167090000
C                 -1.6503700000      0.1026540000      0.0151310000
C                  1.2426170000      2.5622400000      0.0199260000
C                  2.3236540000      1.5927330000      0.0199110000
C                  2.1113030000      0.2274670000      0.0184490000
C                  0.8011950000     -0.3656660000      0.0167700000
O                  1.4374270000      3.8075680000      0.0212080000
O                  0.6277920000     -1.6123550000      0.0154910000
H                 -1.0183570000      3.9202990000      0.0192670000
H                 -1.7921740000     -0.9723660000      0.0139940000
O                  3.5726410000      2.1627170000      0.0214890000
O                 -3.6148940000      3.1769170000      0.0163460000
H                 -3.7538730000      0.5958620000      0.0137970000
H                  2.9363850000     -0.4740110000      0.0184930000
C                  4.6940310000      1.3083840000      0.0214990000
H                 -3.3036680000      4.0878460000      0.0174640000
H                  5.5691170000      1.9606840000      0.0227880000
H                  4.7215540000      0.6683940000     -0.8700120000
H                  4.7202240000      0.6666640000      0.9118060000
$end

$rem
BASIS  =  6-311++G(d,p)
GUI  =  2
JOB_TYPE  =  SP
METHOD  =  B3LYP
SCF_CONVERGENCE  = 8
SOLVENT_METHOD = sm12
$end

$smx
solvent dimethylformamide
charges CM5
$end

--------------------------------------------------------------

             Standard Nuclear Orientation (Angstroms)
    I     Atom           X                Y                Z
 ----------------------------------------------------------------
    1      C      -1.2160590000     2.8516290000     0.0180900000
    2      C      -2.5012300000     2.3503070000     0.0165190000
    3      C      -2.7335720000     0.9630670000     0.0150150000
    4      C      -0.1039200000     1.9824140000     0.0182230000
    5      C      -0.3276150000     0.5796980000     0.0167090000
    6      C      -1.6503700000     0.1026540000     0.0151310000
    7      C       1.2426170000     2.5622400000     0.0199260000
    8      C       2.3236540000     1.5927330000     0.0199110000
    9      C       2.1113030000     0.2274670000     0.0184490000
   10      C       0.8011950000    -0.3656660000     0.0167700000
   11      O       1.4374270000     3.8075680000     0.0212080000
   12      O       0.6277920000    -1.6123550000     0.0154910000
   13      H      -1.0183570000     3.9202990000     0.0192670000
   14      H      -1.7921740000    -0.9723660000     0.0139940000
   15      O       3.5726410000     2.1627170000     0.0214890000
   16      O      -3.6148940000     3.1769170000     0.0163460000
   17      H      -3.7538730000     0.5958620000     0.0137970000
   18      H       2.9363850000    -0.4740110000     0.0184930000
   19      C       4.6940310000     1.3083840000     0.0214990000
   20      H      -3.3036680000     4.0878460000     0.0174640000
   21      H       5.5691170000     1.9606840000     0.0227880000
   22      H       4.7215540000     0.6683940000    -0.8700120000
   23      H       4.7202240000     0.6666640000     0.9118060000
 ----------------------------------------------------------------

   18    -725.1308251026      3.96e-09  Convergence criterion met
 Total energy in the final basis set =     -725.2222119447

                    Orbital Energies (a.u.)
 --------------------------------------------------------------

 Alpha MOs
 -- Occupied --
-19.1609 -19.1514 -19.0732 -19.0706 -10.2416 -10.2292 -10.2239 -10.2185
-10.2173 -10.1816 -10.1811 -10.1789 -10.1745 -10.1721 -10.1592  -1.0671
 -1.0666  -0.9954  -0.9933  -0.8619  -0.8051  -0.7583  -0.7462  -0.7144
 -0.6664  -0.6383  -0.6052  -0.5717  -0.5538  -0.5242  -0.5065  -0.4763
 -0.4706  -0.4675  -0.4417  -0.4344  -0.4250  -0.4203  -0.4077  -0.4023
 -0.4017  -0.3895  -0.3762  -0.3678  -0.3522  -0.3403  -0.3327  -0.3209
 -0.2674  -0.2509  -0.2413  -0.2354  -0.2316  -0.1475

 Beta MOs
 -- Occupied --
-19.1608 -19.1506 -19.0657 -19.0653 -10.2415 -10.2278 -10.2229 -10.2173
-10.2165 -10.1819 -10.1805 -10.1784 -10.1740 -10.1714 -10.1584  -1.0664
 -1.0653  -0.9859  -0.9806  -0.8599  -0.8004  -0.7564  -0.7443  -0.7121
 -0.6591  -0.6372  -0.6023  -0.5689  -0.5532  -0.5225  -0.5045  -0.4743
 -0.4690  -0.4641  -0.4403  -0.4339  -0.4200  -0.4185  -0.4048  -0.3955
 -0.3913  -0.3885  -0.3662  -0.3545  -0.3509  -0.3339  -0.3312  -0.3069
 -0.2538  -0.2351  -0.2334  -0.2296  -0.2261

          Ground-State Mulliken Net Atomic Charges

     Atom                 Charge (a.u.)    Spin (a.u.)
  --------------------------------------------------------
      1 C                     0.407547       0.088277
      2 C                     0.915017       0.004756
      3 C                     0.700737       0.041815
      4 C                    -0.195561       0.029827
      5 C                    -1.409990       0.025616
      6 C                     0.007746      -0.000369
      7 C                    -1.472151       0.104086
      8 C                     0.066883       0.125155
      9 C                     0.500035       0.050837
     10 C                    -1.489531       0.045532
     11 O                    -0.379701       0.285639
     12 O                    -0.387023       0.193027
     13 H                     0.147838      -0.006063
     14 H                     0.144927      -0.000658
     15 O                    -0.145133       0.017037
     16 O                    -0.134760       0.002685
     17 H                     0.326760      -0.003354
     18 H                     0.181167      -0.006471
     19 C                     0.146813       0.000477
     20 H                     0.349479      -0.000101
     21 H                     0.330966      -0.000058
     22 H                     0.193963       0.001154
     23 H                     0.193971       0.001155
  --------------------------------------------------------
  Sum of atomic charges =    -1.000000

                    Cartesian Multipole Moments
 -----------------------------------------------------------------
    Charge (ESU x 10^10)
                -4.8032
    Dipole Moment (Debye)
         X      -1.8583      Y      -5.1941      Z      -0.0856
       Tot       5.5172
    Quadrupole Moments (Debye-Ang)
        XX     -94.9557     XY     -11.4637     YY    -126.1574
        XZ      -0.0441     YZ      -0.1265     ZZ     -92.5420

 Total job time:  473.65s(wall), 3410.16s(cpu)
        *  Thank you very much for using Q-Chem.  Have a nice day.  *
