 Gaussian 16, Revision A.03,
 Gaussian 16:  ES64L-G16RevA.03 25-Dec-2016

 --------------------------------------
 #P UB3LYP/6-311++G(d,p) nosym opt freq
 --------------------------------------

 --------
 Oxidized
 --------
 Symbolic Z-matrix:
 Charge =  0 Multiplicity = 1

 SCF Done:  E(UB3LYP) =  -1124.17977931     A.U. after   16 cycles
 SCF Done:  E(UB3LYP) =  -1124.20452608     A.U. after   14 cycles
 SCF Done:  E(UB3LYP) =  -1124.20887236     A.U. after   13 cycles
 SCF Done:  E(UB3LYP) =  -1124.20896853     A.U. after   12 cycles
 SCF Done:  E(UB3LYP) =  -1124.20897627     A.U. after   11 cycles
 Optimization completed.
    -- Stationary point found.
 Normal termination of Gaussian 16 at Sat Jan  6 02:10:43 2024.

 ----------------------------------------------------------------------
 #P Geom=AllCheck Guess=TCheck SCRF=Check GenChk UB3LYP/6-311++G(d,p) F
 req
 ----------------------------------------------------------------------

 Structure from the checkpoint file:  "339.chk"
 --------
 Oxidized
 --------
 Charge =  0 Multiplicity = 1

                          Input orientation:
 ---------------------------------------------------------------------
 Center     Atomic      Atomic             Coordinates (Angstroms)
 Number     Number       Type             X           Y           Z
 ---------------------------------------------------------------------
      1          8           0       -0.021588   -2.554893    0.010932
      2          6           0       -0.021993   -1.348659    0.188437
      3          6           0        1.276856   -0.614004    0.302160
      4          6           0        2.457956   -1.365215    0.201163
      5          6           0        3.700530   -0.756464    0.296999
      6          6           0        3.791409    0.622760    0.496860
      7          6           0        2.636682    1.388962    0.600237
      8          6           0        1.393266    0.766641    0.502398
      9         16           0       -0.023016    1.861384    0.649663
     10          8           0       -0.017312    2.779820   -0.493223
     11          6           0       -1.438636    0.767652    0.489082
     12          6           0       -2.682472    1.390863    0.575209
     13          6           0       -3.836722    0.625483    0.460971
     14          6           0       -3.744950   -0.753807    0.261977
     15          6           0       -2.501964   -1.363446    0.177838
     16          6           0       -1.321331   -0.613078    0.289944
     17          1           0        2.365467   -2.432629    0.046519
     18          1           0        4.601196   -1.353585    0.216489
     19          1           0        4.760444    1.102015    0.572327
     20          1           0        2.695967    2.459444    0.755389
     21          1           0       -2.742451    2.461388    0.729794
     22          1           0       -4.806082    1.105431    0.527313
     23          1           0       -4.645245   -1.350285    0.172995
     24          1           0       -2.408789   -2.430926    0.024062
     25          8           0       -0.029168    2.428933    2.001546
 ---------------------------------------------------------------------

 SCF Done:  E(UB3LYP) =  -1124.20897627     A.U. after    2 cycles

 Alpha  occ. eigenvalues --  -89.06744 -19.13790 -19.12838 -19.12837 -10.29558
 Alpha  occ. eigenvalues --  -10.24276 -10.24276 -10.22837 -10.22837 -10.21767
 Alpha  occ. eigenvalues --  -10.21767 -10.21592 -10.21591 -10.21186 -10.21186
 Alpha  occ. eigenvalues --  -10.21128 -10.21128  -8.13165  -6.09377  -6.09341
 Alpha  occ. eigenvalues --   -6.09326  -1.12599  -1.07489  -1.01709  -0.91057
 Alpha  occ. eigenvalues --   -0.90191  -0.82606  -0.79995  -0.79657  -0.79078
 Alpha  occ. eigenvalues --   -0.71878  -0.68716  -0.66459  -0.63770  -0.61859
 Alpha  occ. eigenvalues --   -0.58490  -0.58422  -0.52932  -0.51319  -0.50724
 Alpha  occ. eigenvalues --   -0.50507  -0.49115  -0.47488  -0.47225  -0.46570
 Alpha  occ. eigenvalues --   -0.46324  -0.45700  -0.44890  -0.41892  -0.41494
 Alpha  occ. eigenvalues --   -0.40040  -0.39356  -0.39313  -0.39207  -0.34641
 Alpha  occ. eigenvalues --   -0.34445  -0.33343  -0.31627  -0.29515  -0.29466
 Alpha  occ. eigenvalues --   -0.28971  -0.28870  -0.28672
 Alpha virt. eigenvalues --   -0.11365  -0.06568  -0.05427  -0.04405  -0.01472
 Alpha virt. eigenvalues --   -0.01008   0.00682   0.01224   0.01277   0.02077
 Alpha virt. eigenvalues --    0.02478   0.03251   0.03443   0.03709   0.04289

  Beta  occ. eigenvalues --  -89.06744 -19.13790 -19.12838 -19.12837 -10.29558
  Beta  occ. eigenvalues --  -10.24276 -10.24276 -10.22837 -10.22837 -10.21767
  Beta  occ. eigenvalues --  -10.21767 -10.21592 -10.21591 -10.21186 -10.21186
  Beta  occ. eigenvalues --  -10.21128 -10.21128  -8.13165  -6.09377  -6.09341
  Beta  occ. eigenvalues --   -6.09326  -1.12599  -1.07489  -1.01709  -0.91057
  Beta  occ. eigenvalues --   -0.90191  -0.82606  -0.79995  -0.79657  -0.79078
  Beta  occ. eigenvalues --   -0.71878  -0.68716  -0.66459  -0.63770  -0.61859
  Beta  occ. eigenvalues --   -0.58490  -0.58422  -0.52932  -0.51319  -0.50724
  Beta  occ. eigenvalues --   -0.50507  -0.49115  -0.47488  -0.47225  -0.46570
  Beta  occ. eigenvalues --   -0.46324  -0.45700  -0.44890  -0.41892  -0.41494
  Beta  occ. eigenvalues --   -0.40040  -0.39356  -0.39313  -0.39207  -0.34641
  Beta  occ. eigenvalues --   -0.34445  -0.33343  -0.31627  -0.29515  -0.29466
  Beta  occ. eigenvalues --   -0.28971  -0.28870  -0.28672
  Beta virt. eigenvalues --   -0.11365  -0.06568  -0.05427  -0.04405  -0.01472
  Beta virt. eigenvalues --   -0.01008   0.00682   0.01224   0.01277   0.02077
  Beta virt. eigenvalues --    0.02478   0.03251   0.03443   0.03709   0.04289

 Mulliken charges and spin densities:
               1          2
     1  O   -0.200043  -0.000000
     2  C   -0.548344   0.000000
     3  C    2.515519  -0.000000
     4  C    0.300186   0.000000
     5  C   -0.335858   0.000000
     6  C   -0.027141  -0.000000
     7  C   -0.489290  -0.000000
     8  C   -2.700845   0.000000
     9  S    0.618195  -0.000000
    10  O   -0.026035  -0.000000
    11  C   -2.700880   0.000000
    12  C   -0.489287  -0.000000
    13  C   -0.027138  -0.000000
    14  C   -0.335855  -0.000000
    15  C    0.300190  -0.000000
    16  C    2.515532  -0.000000
    17  H    0.201036   0.000000
    18  H    0.183431  -0.000000
    19  H    0.178476   0.000000
    20  H    0.267412  -0.000000
    21  H    0.267411  -0.000000
    22  H    0.178476  -0.000000
    23  H    0.183431  -0.000000
    24  H    0.201036  -0.000000
    25  O   -0.029613  -0.000000
 Sum of Mulliken charges =  -0.00000  -0.00000

 Dipole moment (field-independent basis, Debye):
    X=              0.0005    Y=             -2.1145    Z=             -0.2780  Tot=              2.1327
 Quadrupole moment (field-independent basis, Debye-Ang):
   XX=            -71.3087   YY=           -118.1402   ZZ=           -114.5108
   XY=              0.0334   XZ=              0.2085   YZ=             -1.3789

  Exact polarizability: 247.165  -0.084 186.483   0.710  13.164  97.238
 Approx polarizability: 353.991  -0.127 349.499   0.878  26.652 169.497

 ******    1 imaginary frequencies (negative Signs) ******

                      1                      2                      3
                      A                      A                      A
 Frequencies --    -31.7147                79.3606                92.4641
 Red. masses --      7.7898                 5.8786                 4.3616
 Frc consts  --      0.0046                 0.0218                 0.0220
 IR Inten    --      6.9603                 0.5401                 0.0000

                      4                      5                      6
                      A                      A                      A
 Frequencies --    137.0334               154.8301               205.6898
 Red. masses --      6.7327                 7.6039                 5.5745
 Frc consts  --      0.0745                 0.1074                 0.1390
 IR Inten    --      0.3709                 0.0001                 1.8503

                      7                      8                      9
                      A                      A                      A
 Frequencies --    250.0902               274.5170               296.0749
 Red. masses --      7.9771                 5.2755                 9.6506
 Frc consts  --      0.2940                 0.2342                 0.4984
 IR Inten    --      6.5409                 0.0003                 0.5893

                     10                     11                     12
                      A                      A                      A
 Frequencies --    325.6015               338.3486               361.1208
 Red. masses --      6.1222                 7.5140                 7.5719
 Frc consts  --      0.3824                 0.5068                 0.5818
 IR Inten    --      1.0378                 9.2481                 2.9155

                     13                     14                     15
                      A                      A                      A
 Frequencies --    400.5528               408.7145               452.2591
 Red. masses --      3.7324                11.6166                 3.5265
 Frc consts  --      0.3528                 1.1433                 0.4250
 IR Inten    --      0.2037                20.6807                 0.0003

                     16                     17                     18
                      A                      A                      A
 Frequencies --    491.2623               518.5274               534.4303
 Red. masses --      4.3547                15.7789                 4.5347
 Frc consts  --      0.6192                 2.4996                 0.7631
 IR Inten    --      0.0002                36.5729                21.9475

                     19                     20                     21
                      A                      A                      A
 Frequencies --    597.5060               597.5538               644.6497
 Red. masses --     11.3321                 7.6476                 7.1262
 Frc consts  --      2.3837                 1.6089                 1.7448
 IR Inten    --     64.2314                 5.0410                 0.9555

                     22                     23                     24
                      A                      A                      A
 Frequencies --    673.1384               679.3502               699.2318
 Red. masses --      6.6078                 4.0328                 4.7624
 Frc consts  --      1.7641                 1.0966                 1.3719
 IR Inten    --      1.1403                31.0727                 0.0023

                     25                     26                     27
                      A                      A                      A
 Frequencies --    746.7088               756.2459               772.5716
 Red. masses --      2.0374                 7.7775                 6.7835
 Frc consts  --      0.6693                 2.6207                 2.3855
 IR Inten    --     60.6202                86.1786                 0.9038

                     28                     29                     30
                      A                      A                      A
 Frequencies --    772.6779               810.0154               887.0091
 Red. masses --      1.2259                 2.2031                 1.2918
 Frc consts  --      0.4312                 0.8517                 0.5988
 IR Inten    --      0.0008                27.2027                 0.0000

                     31                     32                     33
                      A                      A                      A
 Frequencies --    892.5618               939.2060               981.4583
 Red. masses --      1.3633                 7.0634                 1.3470
 Frc consts  --      0.6399                 3.6710                 0.7645
 IR Inten    --      2.7022                51.4514                 0.0000

                     34                     35                     36
                      A                      A                      A
 Frequencies --    983.1540              1011.8695              1014.3857
 Red. masses --      1.3615                 1.3167                 1.3352
 Frc consts  --      0.7754                 0.7943                 0.8095
 IR Inten    --      0.7456                 0.0002                 0.7574

                     37                     38                     39
                      A                      A                      A
 Frequencies --   1049.0810              1058.3783              1060.5082
 Red. masses --      7.8411                 2.6865                 2.8398
 Frc consts  --      5.0844                 1.7730                 1.8818
 IR Inten    --     44.9519                17.5887                 0.6626

                     40                     41                     42
                      A                      A                      A
 Frequencies --   1084.7421              1121.2966              1147.6514
 Red. masses --      2.8452                 6.2890                 1.8645
 Frc consts  --      1.9725                 4.6588                 1.4469
 IR Inten    --      2.7023               101.5051                83.2920

                     43                     44                     45
                      A                      A                      A
 Frequencies --   1148.5724              1184.0712              1190.2984
 Red. masses --      1.9842                 1.8968                 1.1311
 Frc consts  --      1.5423                 1.5668                 0.9442
 IR Inten    --     19.9890                 7.5755                 0.0118

                     46                     47                     48
                      A                      A                      A
 Frequencies --   1192.0505              1257.9330              1263.7790
 Red. masses --      1.2674                 1.6969                20.3445
 Frc consts  --      1.0611                 1.5821                19.1443
 IR Inten    --      0.0533                54.5036               194.7331

                     49                     50                     51
                      A                      A                      A
 Frequencies --   1289.8778              1314.7943              1337.1423
 Red. masses --      1.5635                 3.0024                 7.5777
 Frc consts  --      1.5327                 3.0580                 7.9825
 IR Inten    --      0.1100               276.3276                 0.3597

                     52                     53                     54
                      A                      A                      A
 Frequencies --   1349.4241              1468.4694              1469.1896
 Red. masses --      7.5339                 2.0943                 2.1282
 Frc consts  --      8.0829                 2.6608                 2.7065
 IR Inten    --      4.3223                 3.8072                25.3227

                     55                     56                     57
                      A                      A                      A
 Frequencies --   1497.9796              1506.3897              1602.4278
 Red. masses --      2.3968                 2.3397                 6.0323
 Frc consts  --      3.1688                 3.1281                 9.1262
 IR Inten    --      0.1916                 0.0140                 0.5181

                     58                     59                     60
                      A                      A                      A
 Frequencies --   1611.7770              1627.7348              1632.0339
 Red. masses --      6.0138                 5.4118                 6.1552
 Frc consts  --      9.2046                 8.4481                 9.6594
 IR Inten    --     25.6352                33.9703                15.3145

                     61                     62                     63
                      A                      A                      A
 Frequencies --   1718.8846              3176.1979              3176.2430
 Red. masses --     12.3004                 1.0870                 1.0871
 Frc consts  --     21.4123                 6.4611                 6.4614
 IR Inten    --    197.5778                 0.0019                 5.2562

                     64                     65                     66
                      A                      A                      A
 Frequencies --   3188.3208              3188.4623              3198.0034
 Red. masses --      1.0908                 1.0909                 1.0953
 Frc consts  --      6.5329                 6.5341                 6.6001
 IR Inten    --      7.9860                 0.1981                 7.8720

                     67                     68                     69
                      A                      A                      A
 Frequencies --   3198.2556              3206.6884              3207.1511
 Red. masses --      1.0955                 1.0940                 1.0942
 Frc consts  --      6.6019                 6.6282                 6.6310
 IR Inten    --      0.1060                12.2236                 0.0494

 - Thermochemistry -
 -------------------
 Temperature   298.150 Kelvin.  Pressure   1.00000 Atm.
 Atom     1 has atomic number  8 and mass  15.99491

 Molecular mass:   244.01942 amu.
 Principal axes and moments of inertia in atomic units:
                           1         2         3
     Eigenvalues --  2334.634194478.501736450.57749
           X            0.99999  -0.00032  -0.00471
           Y           -0.00036   0.98982  -0.14236
           Z            0.00470   0.14236   0.98980
 This molecule is an asymmetric top.
 Rotational symmetry number  1.
 Warning -- assumption of classical behavior for rotation
           may cause significant error
 Rotational temperatures (Kelvin)      0.03710     0.01934     0.01343
 Rotational constants (GHZ):           0.77303     0.40298     0.27978
    1 imaginary frequencies ignored.
 Zero-point vibrational energy     469558.1 (Joules/Mol)
                                  112.22707 (Kcal/Mol)
 Warning -- explicit consideration of  19 degrees of freedom as
           vibrations may cause significant error
 Vibrational temperatures:    114.18   133.04   197.16   222.77   295.94
          (Kelvin)            359.82   394.97   425.99   468.47   486.81
                              519.57   576.31   588.05   650.70   706.82
                              746.05   768.93   859.68   859.75   927.51
                              968.50   977.43  1006.04  1074.35  1088.07
                             1111.56  1111.71  1165.43  1276.21  1284.20
                             1351.31  1412.10  1414.54  1455.85  1459.47
                             1509.39  1522.77  1525.83  1560.70  1613.30
                             1651.21  1652.54  1703.61  1712.57  1715.09
                             1809.89  1818.30  1855.85  1891.70  1923.85
                             1941.52  2112.80  2113.84  2155.26  2167.36
                             2305.54  2318.99  2341.95  2348.13  2473.09
                             4569.84  4569.91  4587.28  4587.49  4601.21
                             4601.58  4613.71  4614.38

 Zero-point correction=                           0.178845 (Hartree/Particle)
 Thermal correction to Energy=                    0.190941
 Thermal correction to Enthalpy=                  0.191885
 Thermal correction to Gibbs Free Energy=         0.140591
 Sum of electronic and zero-point Energies=          -1124.030131
 Sum of electronic and thermal Energies=             -1124.018036
 Sum of electronic and thermal Enthalpies=           -1124.017091
 Sum of electronic and thermal Free Energies=        -1124.068385

                     E (Thermal)             CV                S
                      KCal/Mol        Cal/Mol-Kelvin    Cal/Mol-Kelvin
 Total                  119.817             49.550            107.957
 Electronic               0.000              0.000              0.000
 Translational            0.889              2.981             42.377
 Rotational               0.889              2.981             32.578
 Vibrational            118.040             43.588             33.002
 Vibration     1          0.600              1.963              3.907
 Vibration     2          0.602              1.955              3.607
 Vibration     3          0.614              1.916              2.845
 Vibration     4          0.620              1.897              2.612
 Vibration     5          0.640              1.832              2.082
 Vibration     6          0.663              1.763              1.730
 Vibration     7          0.677              1.720              1.568
 Vibration     8          0.690              1.681              1.439
 Vibration     9          0.710              1.624              1.282
 Vibration    10          0.719              1.599              1.220
 Vibration    11          0.735              1.552              1.117
 Vibration    12          0.766              1.469              0.961
 Vibration    13          0.773              1.451              0.931
 Vibration    14          0.811              1.356              0.789
 Vibration    15          0.847              1.269              0.680
 Vibration    16          0.874              1.209              0.613
 Vibration    17          0.889              1.174              0.577
 Vibration    18          0.955              1.037              0.454
 Vibration    19          0.955              1.037              0.454

                           ! Non-Optimized Parameters !
 Normal termination of Gaussian 16 at Sat Jan  6 03:23:59 2024.
