 Gaussian 16, Revision A.03,
 Gaussian 16:  ES64L-G16RevA.03 25-Dec-2016

 ----------------------------------------------------------------
 #P UB3LYP/6-311++G(d,p) SCRF=(PCM,Solvent=n,n-DiMethylFormamide)
 ----------------------------------------------------------------

 ------------------
 Quinone PCM in DMF
 ------------------
 Symbolic Z-matrix:
 Charge =  0 Multiplicity = 1

                         Standard orientation:
 ---------------------------------------------------------------------
 Center     Atomic      Atomic             Coordinates (Angstroms)
 Number     Number       Type             X           Y           Z
 ---------------------------------------------------------------------
      1          6           0       -0.588385    1.328663   -0.000174
      2          6           0        0.835045    1.194876    0.000383
      3          6           0        1.423402   -0.044981    0.000502
      4          6           0        0.588387   -1.328660    0.000130
      5          6           0       -0.835045   -1.194872   -0.000497
      6          6           0       -1.423402    0.044984   -0.000589
      7          8           0       -1.191322    2.403093   -0.000345
      8          8           0        1.191331   -2.403090    0.000302
      9          7           0       -2.739006    0.287968   -0.001120
     10          6           0       -3.781754   -0.724217   -0.000856
     11          6           0       -5.164238   -0.082434    0.001415
     12          7           0        2.739003   -0.287967    0.001022
     13          6           0        3.781751    0.724214    0.000826
     14          6           0        5.164236    0.082428   -0.001092
     15          1           0        1.411407    2.111036    0.000931
     16          1           0       -1.411413   -2.111030   -0.001102
     17          1           0       -2.977625    1.275547   -0.000786
     18          1           0       -3.659752   -1.367519    0.879356
     19          1           0       -3.661918   -1.366031   -0.882460
     20          1           0       -5.309278    0.539219    0.889036
     21          1           0       -5.936402   -0.854335    0.001718
     22          1           0       -5.311445    0.540712   -0.884788
     23          1           0        2.977620   -1.275546    0.000747
     24          1           0        3.661731    1.366142    0.882320
     25          1           0        3.659929    1.367397   -0.879498
     26          1           0        5.311258   -0.540617    0.885214
     27          1           0        5.936402    0.854328   -0.001329
     28          1           0        5.309453   -0.539329   -0.888610
 ---------------------------------------------------------------------

 SCF Done:  E(UB3LYP) =  -649.655386408     A.U. after   14 cycles

 The electronic state is 1-A.
 Alpha  occ. eigenvalues --  -19.11715 -19.11715 -14.35954 -14.35954 -10.27038
 Alpha  occ. eigenvalues --  -10.27037 -10.24738 -10.24738 -10.21896 -10.21896
 Alpha  occ. eigenvalues --  -10.17297 -10.17297 -10.17193 -10.17192  -1.05446
 Alpha  occ. eigenvalues --   -1.05176  -0.96777  -0.96747  -0.83585  -0.79080
 Alpha  occ. eigenvalues --   -0.76745  -0.74525  -0.68621  -0.66339  -0.64234
 Alpha  occ. eigenvalues --   -0.61451  -0.59517  -0.54855  -0.52500  -0.52385
 Alpha  occ. eigenvalues --   -0.49123  -0.48530  -0.48202  -0.46434  -0.44845
 Alpha  occ. eigenvalues --   -0.44180  -0.44089  -0.44059  -0.41043  -0.40192
 Alpha  occ. eigenvalues --   -0.39478  -0.39336  -0.38752  -0.38203  -0.38026
 Alpha  occ. eigenvalues --   -0.37330  -0.33842  -0.32800  -0.28335  -0.27314
 Alpha  occ. eigenvalues --   -0.25050  -0.22387
 Alpha virt. eigenvalues --   -0.10541  -0.00852  -0.00236   0.00300   0.00757
 Alpha virt. eigenvalues --    0.01386   0.01694   0.01903   0.02673   0.02759
 Alpha virt. eigenvalues --    0.03186   0.04259   0.04270   0.05484   0.05593

  Beta  occ. eigenvalues --  -19.11715 -19.11715 -14.35954 -14.35954 -10.27038
  Beta  occ. eigenvalues --  -10.27037 -10.24738 -10.24738 -10.21896 -10.21896
  Beta  occ. eigenvalues --  -10.17297 -10.17297 -10.17193 -10.17192  -1.05446
  Beta  occ. eigenvalues --   -1.05176  -0.96777  -0.96747  -0.83585  -0.79080
  Beta  occ. eigenvalues --   -0.76745  -0.74525  -0.68621  -0.66339  -0.64234
  Beta  occ. eigenvalues --   -0.61451  -0.59517  -0.54855  -0.52500  -0.52385
  Beta  occ. eigenvalues --   -0.49123  -0.48530  -0.48202  -0.46434  -0.44845
  Beta  occ. eigenvalues --   -0.44180  -0.44089  -0.44059  -0.41043  -0.40192
  Beta  occ. eigenvalues --   -0.39478  -0.39336  -0.38752  -0.38203  -0.38026
  Beta  occ. eigenvalues --   -0.37330  -0.33842  -0.32800  -0.28335  -0.27314
  Beta  occ. eigenvalues --   -0.25050  -0.22387
  Beta virt. eigenvalues --   -0.10541  -0.00852  -0.00236   0.00300   0.00757
  Beta virt. eigenvalues --    0.01386   0.01694   0.01903   0.02673   0.02759
  Beta virt. eigenvalues --    0.03186   0.04259   0.04270   0.05484   0.05593

 Mulliken charges and spin densities:
               1          2
     1  C   -0.061214  -0.000000
     2  C   -0.077125  -0.000000
     3  C   -0.063920  -0.000000
     4  C   -0.061221   0.000000
     5  C   -0.077123   0.000000
     6  C   -0.063908  -0.000000
     7  O   -0.388400   0.000000
     8  O   -0.388401  -0.000000
     9  N   -0.088492  -0.000000
    10  C   -0.023900   0.000000
    11  C   -0.744599  -0.000000
    12  N   -0.088490   0.000000
    13  C   -0.023898  -0.000000
    14  C   -0.744600   0.000000
    15  H    0.221786  -0.000000
    16  H    0.221786  -0.000000
    17  H    0.372546   0.000000
    18  H    0.184614   0.000000
    19  H    0.184997   0.000000
    20  H    0.159148  -0.000000
    21  H    0.165436  -0.000000
    22  H    0.159119  -0.000000
    23  H    0.372547  -0.000000
    24  H    0.184973   0.000000
    25  H    0.184637   0.000000
    26  H    0.159120   0.000000
    27  H    0.165435   0.000000
    28  H    0.159147   0.000000
 Sum of Mulliken charges =  -0.00000   0.00000

 Dipole moment (field-independent basis, Debye):
    X=             -0.0000    Y=             -0.0000    Z=              0.0002  Tot=              0.0002
 Quadrupole moment (field-independent basis, Debye-Ang):
   XX=            -47.0676   YY=           -103.3202   ZZ=            -85.6954
   XY=             12.5260   XZ=              0.0017   YZ=              0.0051

 Normal termination of Gaussian 16 at Wed Jan 24 22:50:08 2024.
