 Gaussian 16, Revision A.03,
 Gaussian 16:  ES64L-G16RevA.03 25-Dec-2016

 ----------------------------------------------------------------
 #P UB3LYP/6-311++G(d,p) SCRF=(PCM,Solvent=n,n-DiMethylFormamide)
 ----------------------------------------------------------------

 ------------------
 Quinone PCM in DMF
 ------------------
 Symbolic Z-matrix:
 Charge =  0 Multiplicity = 1

                         Standard orientation:
 ---------------------------------------------------------------------
 Center     Atomic      Atomic             Coordinates (Angstroms)
 Number     Number       Type             X           Y           Z
 ---------------------------------------------------------------------
      1          6           0       -3.392255   -0.196274   -0.467716
      2          8           0       -2.257264    0.502161    0.083150
      3          6           0       -1.018847   -0.010635    0.012681
      4          6           0        0.039584    0.841986   -0.107010
      5          8           0       -0.185601    2.159580   -0.307625
      6          6           0        0.402814    3.096725    0.613212
      7          6           0        1.431256    0.328291   -0.176969
      8          8           0        2.370754    1.080089   -0.388220
      9          6           0        1.670521   -1.146928   -0.018404
     10          6           0        0.618527   -1.963877    0.129941
     11          6           0       -0.774390   -1.473296    0.197352
     12          8           0       -1.691197   -2.246049    0.433963
     13          6           0        3.094349   -1.607263   -0.060116
     14          1           0       -3.762276   -0.949045    0.224879
     15          1           0       -4.140229    0.578027   -0.633124
     16          1           0       -3.134983   -0.666064   -1.419232
     17          1           0        0.050559    2.893574    1.629242
     18          1           0        0.046111    4.075216    0.296436
     19          1           0        1.490732    3.062162    0.569235
     20          1           0        0.727443   -3.037477    0.240589
     21          1           0        3.673586   -1.142302    0.742670
     22          1           0        3.157086   -2.691636    0.037362
     23          1           0        3.569086   -1.301074   -0.996046
 ---------------------------------------------------------------------

 SCF Done:  E(UB3LYP) =  -650.008749592     A.U. after   16 cycles

 The electronic state is 1-A.
 Alpha  occ. eigenvalues --  -19.17428 -19.16328 -19.14343 -19.14140 -10.29192
 Alpha  occ. eigenvalues --  -10.28817 -10.26606 -10.25664 -10.22640 -10.22258
 Alpha  occ. eigenvalues --  -10.22228 -10.20394 -10.17989  -1.10207  -1.08484
 Alpha  occ. eigenvalues --   -1.06900  -1.06068  -0.86453  -0.80756  -0.74023
 Alpha  occ. eigenvalues --   -0.73380  -0.69970  -0.67518  -0.61677  -0.59885
 Alpha  occ. eigenvalues --   -0.55501  -0.53187  -0.52415  -0.49626  -0.48311
 Alpha  occ. eigenvalues --   -0.47392  -0.46899  -0.45811  -0.45286  -0.44641
 Alpha  occ. eigenvalues --   -0.42684  -0.42042  -0.41283  -0.40689  -0.39951
 Alpha  occ. eigenvalues --   -0.37881  -0.37171  -0.34364  -0.32478  -0.30132
 Alpha  occ. eigenvalues --   -0.28392  -0.28041  -0.24835
 Alpha virt. eigenvalues --   -0.13271  -0.02009  -0.00729  -0.00355   0.00450
 Alpha virt. eigenvalues --    0.00868   0.02136   0.02184   0.02766   0.03015
 Alpha virt. eigenvalues --    0.04215   0.04248   0.04952   0.05610   0.05944

  Beta  occ. eigenvalues --  -19.17428 -19.16328 -19.14343 -19.14140 -10.29192
  Beta  occ. eigenvalues --  -10.28817 -10.26606 -10.25664 -10.22640 -10.22258
  Beta  occ. eigenvalues --  -10.22228 -10.20394 -10.17989  -1.10207  -1.08484
  Beta  occ. eigenvalues --   -1.06900  -1.06068  -0.86453  -0.80756  -0.74023
  Beta  occ. eigenvalues --   -0.73380  -0.69970  -0.67518  -0.61677  -0.59885
  Beta  occ. eigenvalues --   -0.55501  -0.53187  -0.52415  -0.49626  -0.48311
  Beta  occ. eigenvalues --   -0.47392  -0.46899  -0.45811  -0.45286  -0.44641
  Beta  occ. eigenvalues --   -0.42684  -0.42042  -0.41283  -0.40689  -0.39951
  Beta  occ. eigenvalues --   -0.37881  -0.37171  -0.34364  -0.32478  -0.30132
  Beta  occ. eigenvalues --   -0.28392  -0.28041  -0.24835
  Beta virt. eigenvalues --   -0.13271  -0.02009  -0.00729  -0.00355   0.00450
  Beta virt. eigenvalues --    0.00868   0.02136   0.02184   0.02766   0.03015
  Beta virt. eigenvalues --    0.04215   0.04248   0.04952   0.05610   0.05944

 Mulliken charges and spin densities:
               1          2
     1  C   -0.282517   0.000000
     2  O   -0.191590   0.000000
     3  C    0.382184   0.000000
     4  C   -0.301403  -0.000000
     5  O   -0.179071   0.000000
     6  C   -0.291773  -0.000000
     7  C   -0.352522  -0.000000
     8  O   -0.287618   0.000000
     9  C    1.256776   0.000000
    10  C   -0.858327  -0.000000
    11  C   -0.092504   0.000000
    12  O   -0.287293  -0.000000
    13  C   -0.314178  -0.000000
    14  H    0.191154   0.000000
    15  H    0.161762   0.000000
    16  H    0.177294  -0.000000
    17  H    0.159862  -0.000000
    18  H    0.168664  -0.000000
    19  H    0.173664   0.000000
    20  H    0.211039  -0.000000
    21  H    0.192399   0.000000
    22  H    0.175013   0.000000
    23  H    0.188983  -0.000000
 Sum of Mulliken charges =  -0.00000   0.00000

 Dipole moment (field-independent basis, Debye):
    X=              0.5027    Y=             -0.9851    Z=              0.4968  Tot=              1.2124
 Quadrupole moment (field-independent basis, Debye-Ang):
   XX=            -73.7827   YY=            -75.7822   ZZ=            -75.4268
   XY=             -9.0934   XZ=              5.7708   YZ=              6.2221

 Normal termination of Gaussian 16 at Wed Jan 24 22:50:31 2024.
