 Q-Chem 5.4, Q-Chem, Inc., Pleasanton, CA (2021)
 Q-Chem 5.4.0 for Intel X86 EM64T Linux

User input:
--------------------------------------------------------------
$molecule
-1 2
C                 -2.9696990000      3.7214940000      0.1799420000
C                 -4.2311950000      3.1641880000      0.2359650000
C                 -4.3852070000      1.7612770000      0.1785240000
C                 -1.8163530000      2.9135510000      0.0655370000
C                 -1.9719370000      1.4977160000      0.0075280000
C                 -3.2728040000      0.9514320000      0.0665370000
C                 -0.5005540000      3.5526110000      0.0097180000
C                  0.6441690000      2.6501990000     -0.1061750000
C                  0.4917070000      1.2343280000     -0.1648790000
C                 -0.8238050000      0.5949710000     -0.1120820000
C                  1.9435030000      3.2015290000     -0.1701830000
C                  3.0343770000      2.3791840000     -0.2840060000
C                  2.9092370000      0.9791850000     -0.3464570000
C                  1.6458690000      0.4294550000     -0.2839600000
O                 -0.3600380000      4.8008460000      0.0571290000
O                 -0.9597390000     -0.6517910000     -0.1679120000
H                 -3.3606160000     -0.1280070000      0.0204330000
H                  1.5020690000     -0.6438030000     -0.3265580000
H                 -2.8221970000      4.7945340000      0.2221210000
H                  2.0497520000      4.2788440000     -0.1368140000
H                  3.7910990000      0.3561880000     -0.4329640000
H                 -5.3774820000      1.3221470000      0.2228540000
O                  4.3035470000      2.9887350000     -0.4486970000
C                  5.2838880000      2.7942320000      0.4624660000
C                  6.5176580000      3.5703660000      0.0584220000
O                  5.1917850000      2.1117940000      1.4506840000
H                 -5.1055050000      3.8024130000      0.3242890000
H                  6.2919540000      4.6395870000      0.0510650000
H                  6.8225620000      3.2936090000     -0.9532170000
H                  7.3220560000      3.3670650000      0.7629220000
$end
$rem
MAX_SCF_CYCLES=200
BASIS  =  6-311++G(d,p)
GUI  =  2
JOB_TYPE  =  SP
METHOD  =  B3LYP
SOLVENT_METHOD = COSMO
$end
$solvent
dielectric 37.219
opticaldielectric 1.43
$end

--------------------------------------------------------------

             Standard Nuclear Orientation (Angstroms)
    I     Atom           X                Y                Z
 ----------------------------------------------------------------
    1      C       3.5133835837    -1.7340072162     0.1051787759
    2      C       4.8114082795    -1.2747937340     0.2019030170
    3      C       5.0686201267     0.1140348397     0.2151580951
    4      C       2.4240899191    -0.8384729272     0.0184317842
    5      C       2.6838245950     0.5631404696     0.0317718061
    6      C       4.0202603177     1.0083216639     0.1313533594
    7      C       1.0659193594    -1.3751186959    -0.0826844991
    8      C      -0.0078309386    -0.3860494025    -0.1661805007
    9      C       0.2488029462     1.0158640866    -0.1535659053
   10      C       1.6067519465     1.5529727564    -0.0554562307
   11      C      -1.3430368207    -0.8361289107    -0.2709866324
   12      C      -2.3689855649     0.0691069366    -0.3557822299
   13      C      -2.1407074976     1.4574100716    -0.3479799058
   14      C      -0.8414630922     1.9086263327    -0.2451425967
   15      O       0.8336438383    -2.6103880142    -0.0982073149
   16      O       1.8344697425     2.7875197269    -0.0484627391
   17      H       4.1875898511     2.0792849715     0.1393221713
   18      H      -0.6188044902     2.9691265086    -0.2333830095
   19      H       3.2870552312    -2.7939964739     0.0929722180
   20      H      -1.5284155797    -1.9029995289    -0.2917652029
   21      H      -2.9732244647     2.1473132427    -0.4130830857
   22      H       6.0896801192     0.4759909783     0.2915402067
   23      O      -3.6769500118    -0.4363358942    -0.5636874641
   24      C      -4.6532282782    -0.2141292156     0.3455005497
   25      C      -5.9347040399    -0.8765686612    -0.1092717074
   26      O      -4.5253887468     0.4111449070     1.3670037204
   27      H       5.6352525298    -1.9793951476     0.2679920099
   28      H      -5.7878849751    -1.9579397859    -0.1668097024
   29      H      -6.2041224149    -0.5295362643    -1.1092500108
   30      H      -6.7319534347    -0.6486246661     0.5958117108
 ----------------------------------------------------------------

   10    -916.9673515530      8.11e-06  Convergence criterion met
 Total energy in the final basis set =     -916.9673515530
    5    -917.0537008340      3.65e-06  Convergence criterion met
 Total energy in the final basis set =     -917.0537008340

                    Orbital Energies (a.u.)
 --------------------------------------------------------------

 Alpha MOs
 -- Occupied --
-19.1859 -19.1285 -19.0827 -19.0822 -10.3199 -10.2422 -10.2307 -10.2295
-10.1815 -10.1814 -10.1787 -10.1782 -10.1780 -10.1765 -10.1763 -10.1760
-10.1737 -10.1732 -10.1713 -10.1712  -1.1251  -1.0441  -1.0106  -1.0080
 -0.8699  -0.8563  -0.7961  -0.7707  -0.7556  -0.7523  -0.7348  -0.6774
 -0.6529  -0.6351  -0.5987  -0.5911  -0.5603  -0.5372  -0.5189  -0.5022
 -0.4932  -0.4921  -0.4752  -0.4624  -0.4585  -0.4370  -0.4300  -0.4277
 -0.4240  -0.4200  -0.4178  -0.4153  -0.4052  -0.3902  -0.3875  -0.3856
 -0.3702  -0.3598  -0.3542  -0.3452  -0.3385  -0.3299  -0.2990  -0.2724
 -0.2642  -0.2595  -0.2541  -0.2507  -0.2443  -0.1475

 Beta MOs
 -- Occupied --
-19.1859 -19.1285 -19.0774 -19.0767 -10.3198 -10.2417 -10.2289 -10.2276
-10.1810 -10.1806 -10.1787 -10.1781 -10.1773 -10.1763 -10.1759 -10.1753
-10.1733 -10.1727 -10.1713 -10.1711  -1.1250  -1.0440  -1.0012  -0.9982
 -0.8675  -0.8550  -0.7928  -0.7690  -0.7536  -0.7506  -0.7335  -0.6711
 -0.6508  -0.6328  -0.5975  -0.5896  -0.5577  -0.5354  -0.5176  -0.5015
 -0.4925  -0.4913  -0.4725  -0.4611  -0.4580  -0.4364  -0.4274  -0.4239
 -0.4192  -0.4157  -0.4143  -0.4117  -0.4032  -0.3893  -0.3848  -0.3677
 -0.3640  -0.3582  -0.3529  -0.3399  -0.3350  -0.3252  -0.2988  -0.2602
 -0.2522  -0.2506  -0.2491  -0.2455  -0.2393

          Ground-State Mulliken Net Atomic Charges

     Atom                 Charge (a.u.)    Spin (a.u.)
  --------------------------------------------------------
      1 C                     0.072950       0.034059
      2 C                    -0.476530       0.030881
      3 C                    -0.474825       0.039492
      4 C                     0.270554       0.024099
      5 C                     0.149923       0.025768
      6 C                     0.101668       0.026368
      7 C                    -0.625951       0.114206
      8 C                     0.411109       0.055141
      9 C                     0.175837       0.037555
     10 C                    -0.478404       0.102846
     11 C                     0.051580       0.025409
     12 C                    -0.703309       0.032489
     13 C                     0.130675       0.046265
     14 C                     0.140992       0.020612
     15 O                    -0.484871       0.204256
     16 O                    -0.483773       0.194510
     17 H                     0.180734      -0.001223
     18 H                     0.192249      -0.000927
     19 H                     0.178168      -0.001754
     20 H                     0.204557      -0.001784
     21 H                     0.238915      -0.003605
     22 H                     0.203754      -0.003184
     23 O                    -0.037146       0.000830
     24 C                     0.176495       0.000195
     25 C                    -0.568968       0.000753
     26 O                    -0.334107      -0.000680
     27 H                     0.204869      -0.002670
     28 H                     0.200733       0.000054
     29 H                     0.199731       0.000073
     30 H                     0.182390      -0.000032
  --------------------------------------------------------
  Sum of atomic charges =    -1.000001

                    Cartesian Multipole Moments
 -----------------------------------------------------------------
    Charge (ESU x 10^10)
                -4.8032
    Dipole Moment (Debye)
         X      -5.4231      Y      -1.4644      Z      -1.8838
       Tot       5.9248
    Quadrupole Moments (Debye-Ang)
        XX    -112.6867     XY      -1.3879     YY    -147.6859
        XZ      11.7665     YZ      -3.0031     ZZ    -126.4789

 Total job time:  128.77s(wall), 861.92s(cpu)
        *  Thank you very much for using Q-Chem.  Have a nice day.  *
