 Gaussian 16, Revision A.03,
 Gaussian 16:  ES64L-G16RevA.03 25-Dec-2016

 ----------------------------------------------------------------------
 #P UB3LYP/6-311++G(d,p) nosym opt freq SCRF=(PCM,Solvent=n,n-DiMethylF
 ormamide)
 ----------------------------------------------------------------------

 -------
 Reduced
 -------
 Symbolic Z-matrix:
 Charge = -2 Multiplicity = 1

 SCF Done:  E(UB3LYP) =  -724.882450279     A.U. after   19 cycles
 SCF Done:  E(UB3LYP) =  -724.883515267     A.U. after   14 cycles
 SCF Done:  E(UB3LYP) =  -724.883758814     A.U. after   14 cycles
 SCF Done:  E(UB3LYP) =  -724.883828820     A.U. after   13 cycles
 SCF Done:  E(UB3LYP) =  -724.883863307     A.U. after   12 cycles
 SCF Done:  E(UB3LYP) =  -724.883866644     A.U. after   11 cycles
 SCF Done:  E(UB3LYP) =  -724.883867376     A.U. after   12 cycles
 SCF Done:  E(UB3LYP) =  -724.883867570     A.U. after   11 cycles
 SCF Done:  E(UB3LYP) =  -724.883867642     A.U. after   10 cycles
 SCF Done:  E(UB3LYP) =  -724.883867668     A.U. after    9 cycles
 SCF Done:  E(UB3LYP) =  -724.883867686     A.U. after    9 cycles
 Optimization completed.
    -- Stationary point found.
 Normal termination of Gaussian 16 at Sun Feb 11 03:40:45 2024.

 ----------------------------------------------------------------------
 #P Geom=AllCheck Guess=TCheck SCRF=Check GenChk UB3LYP/6-311++G(d,p) F
 req
 ----------------------------------------------------------------------

 Structure from the checkpoint file:  "273-an.chk"
 -------
 Reduced
 -------
 Charge = -2 Multiplicity = 1

                          Input orientation:
 ---------------------------------------------------------------------
 Center     Atomic      Atomic             Coordinates (Angstroms)
 Number     Number       Type             X           Y           Z
 ---------------------------------------------------------------------
      1          6           0       -0.822579    3.791083   -0.141638
      2          6           0       -1.868691    3.122960    0.459269
      3          6           0       -1.696728    1.783207    0.893752
      4          6           0        0.449687    3.182845   -0.349686
      5          6           0        0.621989    1.812019    0.090794
      6          6           0       -0.475403    1.162427    0.704885
      7          6           0        1.515465    3.911750   -0.970291
      8          6           0        2.732534    3.205323   -1.109630
      9          6           0        2.909465    1.848035   -0.718454
     10          6           0        1.879169    1.102204   -0.089884
     11          8           0        1.396436    5.158593   -1.400865
     12          8           0        2.027834   -0.134259    0.302466
     13          7           0        3.824975    3.921588   -1.647531
     14          1           0       -0.945699    4.815853   -0.474995
     15          1           0       -2.823646    3.621261    0.601725
     16          1           0       -2.517036    1.252983    1.368153
     17          1           0       -0.325143    0.137973    1.029122
     18          1           0        3.497007    4.683418   -2.230841
     19          1           0        4.496304    3.310386   -2.096241
     20          7           0        4.206443    1.266521   -1.011290
     21          6           0        5.028329    1.004438    0.168690
     22          6           0        4.165947    0.123989   -1.922609
     23          1           0        5.104583    1.914129    0.769889
     24          1           0        6.040491    0.720307   -0.142758
     25          1           0        4.622707    0.202627    0.804032
     26          1           0        3.626088    0.403499   -2.831572
     27          1           0        3.675271   -0.757423   -1.486192
     28          1           0        5.188627   -0.148177   -2.209226
 ---------------------------------------------------------------------

 SCF Done:  E(UB3LYP) =  -724.883867686     A.U. after    2 cycles

 Alpha  occ. eigenvalues --  -19.00904 -19.00902 -14.28163 -14.27736 -10.16600
 Alpha  occ. eigenvalues --  -10.16541 -10.16369 -10.15461 -10.15359 -10.14496
 Alpha  occ. eigenvalues --  -10.14196 -10.14153 -10.14078 -10.13986 -10.13226
 Alpha  occ. eigenvalues --  -10.12955  -0.92675  -0.91542  -0.88953  -0.85601
 Alpha  occ. eigenvalues --   -0.81791  -0.74863  -0.71652  -0.69098  -0.68368
 Alpha  occ. eigenvalues --   -0.63976  -0.61058  -0.57210  -0.55440  -0.52358
 Alpha  occ. eigenvalues --   -0.49894  -0.47599  -0.45652  -0.43118  -0.43013
 Alpha  occ. eigenvalues --   -0.42732  -0.41405  -0.40324  -0.39162  -0.37902
 Alpha  occ. eigenvalues --   -0.37499  -0.36414  -0.36003  -0.34938  -0.34735
 Alpha  occ. eigenvalues --   -0.33458  -0.32533  -0.31820  -0.30538  -0.29502
 Alpha  occ. eigenvalues --   -0.27028  -0.22330  -0.21464  -0.21067  -0.19130
 Alpha  occ. eigenvalues --   -0.18076  -0.17648  -0.10543
 Alpha virt. eigenvalues --   -0.00202  -0.00121   0.00775   0.01362   0.01904
 Alpha virt. eigenvalues --    0.02509   0.02581   0.02839   0.04250   0.04750
 Alpha virt. eigenvalues --    0.05081   0.05161   0.05818   0.06496   0.07218

  Beta  occ. eigenvalues --  -19.00904 -19.00902 -14.28163 -14.27736 -10.16600
  Beta  occ. eigenvalues --  -10.16541 -10.16369 -10.15461 -10.15359 -10.14496
  Beta  occ. eigenvalues --  -10.14196 -10.14153 -10.14078 -10.13986 -10.13226
  Beta  occ. eigenvalues --  -10.12955  -0.92675  -0.91542  -0.88953  -0.85601
  Beta  occ. eigenvalues --   -0.81791  -0.74863  -0.71652  -0.69098  -0.68368
  Beta  occ. eigenvalues --   -0.63976  -0.61058  -0.57210  -0.55440  -0.52358
  Beta  occ. eigenvalues --   -0.49894  -0.47599  -0.45652  -0.43118  -0.43013
  Beta  occ. eigenvalues --   -0.42732  -0.41405  -0.40324  -0.39162  -0.37902
  Beta  occ. eigenvalues --   -0.37499  -0.36414  -0.36003  -0.34938  -0.34735
  Beta  occ. eigenvalues --   -0.33458  -0.32533  -0.31820  -0.30538  -0.29502
  Beta  occ. eigenvalues --   -0.27028  -0.22330  -0.21464  -0.21067  -0.19130
  Beta  occ. eigenvalues --   -0.18076  -0.17648  -0.10543
  Beta virt. eigenvalues --   -0.00202  -0.00121   0.00775   0.01362   0.01904
  Beta virt. eigenvalues --    0.02509   0.02581   0.02839   0.04250   0.04750
  Beta virt. eigenvalues --    0.05081   0.05161   0.05818   0.06496   0.07218

 Mulliken charges and spin densities:
               1          2
     1  C   -0.248445  -0.000000
     2  C   -0.348713  -0.000000
     3  C   -0.407257   0.000000
     4  C    0.900306   0.000000
     5  C    0.183410   0.000000
     6  C   -0.094510  -0.000000
     7  C   -0.801014   0.000000
     8  C    0.126665  -0.000000
     9  C   -0.175608   0.000000
    10  C   -0.953903  -0.000000
    11  O   -0.761818  -0.000000
    12  O   -0.636148  -0.000000
    13  N   -0.479129   0.000000
    14  H    0.133627   0.000000
    15  H    0.151632   0.000000
    16  H    0.150722   0.000000
    17  H    0.138015  -0.000000
    18  H    0.266094  -0.000000
    19  H    0.270701   0.000000
    20  N    0.191728  -0.000000
    21  C   -0.227536  -0.000000
    22  C   -0.201482  -0.000000
    23  H    0.129040  -0.000000
    24  H    0.130950   0.000000
    25  H    0.153433  -0.000000
    26  H    0.130944  -0.000000
    27  H    0.155480  -0.000000
    28  H    0.122817   0.000000
 Sum of Mulliken charges =  -2.00000   0.00000

 Dipole moment (field-independent basis, Debye):
    X=            -13.9020    Y=            -25.6787    Z=              3.4690  Tot=             29.4057
 Quadrupole moment (field-independent basis, Debye-Ang):
   XX=           -138.8248   YY=           -226.3902   ZZ=           -111.3096
   XY=            -34.7501   XZ=              4.0905   YZ=             24.4778

  Exact polarizability: 387.840  -9.882 313.123 -66.282 -45.472 213.090
 Approx polarizability: 422.026  -5.124 350.508 -76.193 -57.348 231.493

                      1                      2                      3
                      A                      A                      A
 Frequencies --     58.1202                77.9349               113.5088
 Red. masses --      3.7866                 3.3661                 3.8999
 Frc consts  --      0.0075                 0.0120                 0.0296
 IR Inten    --     10.5553                 1.5005                15.8957

                      4                      5                      6
                      A                      A                      A
 Frequencies --    136.6670               153.7817               181.0870
 Red. masses --      2.3901                 3.0519                 4.5489
 Frc consts  --      0.0263                 0.0425                 0.0879
 IR Inten    --      5.1248                 6.3180                 5.2934

                      7                      8                      9
                      A                      A                      A
 Frequencies --    208.9879               228.7909               236.9175
 Red. masses --      1.7266                 1.0785                 4.1364
 Frc consts  --      0.0444                 0.0333                 0.1368
 IR Inten    --     11.4279                 1.0729                 1.8921

                     10                     11                     12
                      A                      A                      A
 Frequencies --    256.5763               275.6074               307.3786
 Red. masses --      2.8695                 3.5239                 2.7922
 Frc consts  --      0.1113                 0.1577                 0.1554
 IR Inten    --     21.2741                 1.8624                39.5474

                     13                     14                     15
                      A                      A                      A
 Frequencies --    355.1947               363.7751               401.6207
 Red. masses --      7.2043                 6.0062                 3.2962
 Frc consts  --      0.5355                 0.4683                 0.3133
 IR Inten    --     13.3243                 3.8857                18.5186

                     16                     17                     18
                      A                      A                      A
 Frequencies --    430.8721               435.6485               453.1563
 Red. masses --      4.6185                 7.0309                 1.6350
 Frc consts  --      0.5052                 0.7862                 0.1978
 IR Inten    --      4.0072                 9.0713                29.3972

                     19                     20                     21
                      A                      A                      A
 Frequencies --    465.0496               485.8948               517.4005
 Red. masses --      3.5211                 3.1620                 7.9761
 Frc consts  --      0.4487                 0.4398                 1.2580
 IR Inten    --      0.4283                15.5168                 5.0735

                     22                     23                     24
                      A                      A                      A
 Frequencies --    580.3096               594.9798               659.9738
 Red. masses --      4.5001                 5.4906                 6.0359
 Frc consts  --      0.8929                 1.1452                 1.5490
 IR Inten    --      2.5439                71.1053                38.8074

                     25                     26                     27
                      A                      A                      A
 Frequencies --    681.5844               706.4402               715.3178
 Red. masses --      2.3069                 5.2624                 2.9737
 Frc consts  --      0.6314                 1.5473                 0.8965
 IR Inten    --    271.2368                14.6812                55.9669

                     28                     29                     30
                      A                      A                      A
 Frequencies --    746.5694               770.0370               794.5919
 Red. masses --      1.7525                 2.3631                 3.8623
 Frc consts  --      0.5755                 0.8256                 1.4367
 IR Inten    --    262.5372               233.1673                36.4906

                     31                     32                     33
                      A                      A                      A
 Frequencies --    841.1234               844.4140               879.2789
 Red. masses --      4.2651                 1.7352                 5.3669
 Frc consts  --      1.7779                 0.7290                 2.4447
 IR Inten    --     56.6826                 5.1151                24.5764

                     34                     35                     36
                      A                      A                      A
 Frequencies --    958.6504               968.2050               969.9353
 Red. masses --      1.3673                 3.7453                 1.2500
 Frc consts  --      0.7404                 2.0686                 0.6928
 IR Inten    --      3.6615               117.1797                 1.6917

                     37                     38                     39
                      A                      A                      A
 Frequencies --   1016.4225              1037.8467              1048.3042
 Red. masses --      2.0493                 3.6608                 1.7081
 Frc consts  --      1.2474                 2.3232                 1.1059
 IR Inten    --     64.0494               285.5192                25.5628

                     40                     41                     42
                      A                      A                      A
 Frequencies --   1093.2756              1095.6411              1120.0064
 Red. masses --      2.2972                 1.2221                 1.6479
 Frc consts  --      1.6178                 0.8643                 1.2179
 IR Inten    --     14.8053                 5.5574               235.4410

                     43                     44                     45
                      A                      A                      A
 Frequencies --   1146.9292              1160.1104              1167.8254
 Red. masses --      2.0621                 1.6549                 1.8824
 Frc consts  --      1.5982                 1.3122                 1.5126
 IR Inten    --     62.0347                 3.4356                42.8622

                     46                     47                     48
                      A                      A                      A
 Frequencies --   1184.7268              1223.9535              1234.5398
 Red. masses --      1.6836                 3.3048                 2.7298
 Frc consts  --      1.3923                 2.9169                 2.4513
 IR Inten    --    381.7850                27.0719               283.6888

                     49                     50                     51
                      A                      A                      A
 Frequencies --   1273.1138              1305.7603              1329.5321
 Red. masses --      2.4150                 2.9142                 5.1501
 Frc consts  --      2.3063                 2.9275                 5.3637
 IR Inten    --      7.4060                 1.6162               618.5599

                     52                     53                     54
                      A                      A                      A
 Frequencies --   1363.7935              1406.0312              1415.3179
 Red. masses --      7.4666                 6.5323                 1.1540
 Frc consts  --      8.1822                 7.6086                 1.3619
 IR Inten    --   1686.4811                27.1933                 2.1636

                     55                     56                     57
                      A                      A                      A
 Frequencies --   1429.2334              1437.1365              1450.5468
 Red. masses --      2.3052                 2.2151                 1.6123
 Frc consts  --      2.7744                 2.6955                 1.9987
 IR Inten    --     19.6081                97.9514                32.8867

                     58                     59                     60
                      A                      A                      A
 Frequencies --   1461.9429              1467.3777              1499.3466
 Red. masses --      1.0467                 1.0715                 1.2009
 Frc consts  --      1.3181                 1.3593                 1.5906
 IR Inten    --      7.6485                12.7695                10.5485

                     61                     62                     63
                      A                      A                      A
 Frequencies --   1500.4011              1511.0011              1517.5183
 Red. masses --      2.1543                 1.0624                 3.2749
 Frc consts  --      2.8574                 1.4291                 4.4434
 IR Inten    --     11.4327                15.1418               162.7915

                     64                     65                     66
                      A                      A                      A
 Frequencies --   1540.9236              1577.3863              1602.5920
 Red. masses --      1.6320                 6.4097                 5.5808
 Frc consts  --      2.2831                 9.3964                 8.4449
 IR Inten    --    307.8512                 2.1413                34.9715

                     67                     68                     69
                      A                      A                      A
 Frequencies --   2955.6042              2975.2291              3019.3857
 Red. masses --      1.0479                 1.0405                 1.0861
 Frc consts  --      5.3933                 5.4267                 5.8337
 IR Inten    --    155.0520               188.0505               159.0296

                     70                     71                     72
                      A                      A                      A
 Frequencies --   3025.0689              3068.2226              3073.4822
 Red. masses --      1.0961                 1.0987                 1.0978
 Frc consts  --      5.9096                 6.0940                 6.1097
 IR Inten    --     73.0407                65.7750                70.6611

                     73                     74                     75
                      A                      A                      A
 Frequencies --   3132.2276              3147.8233              3163.2945
 Red. masses --      1.0843                 1.0881                 1.0923
 Frc consts  --      6.2676                 6.3527                 6.4396
 IR Inten    --     20.5778                28.1704                66.3725

                     76                     77                     78
                      A                      A                      A
 Frequencies --   3170.8979              3493.0207              3605.5339
 Red. masses --      1.0927                 1.0464                 1.0978
 Frc consts  --      6.4733                 7.5224                 8.4082
 IR Inten    --     63.5094                 0.4446                64.1338

 - Thermochemistry -
 -------------------
 Temperature   298.150 Kelvin.  Pressure   1.00000 Atm.
 Atom     1 has atomic number  6 and mass  12.00000

 Molecular mass:   216.08988 amu.
 Principal axes and moments of inertia in atomic units:
                           1         2         3
     Eigenvalues --  2055.406454064.950005758.08837
           X            0.93158   0.19517   0.30670
           Y           -0.29183   0.90457   0.31079
           Z           -0.21677  -0.37903   0.89964
 This molecule is an asymmetric top.
 Rotational symmetry number  1.
 Warning -- assumption of classical behavior for rotation
           may cause significant error
 Rotational temperatures (Kelvin)      0.04214     0.02131     0.01504
 Rotational constants (GHZ):           0.87805     0.44398     0.31343
 Zero-point vibrational energy     570042.8 (Joules/Mol)
                                  136.24349 (Kcal/Mol)
 Warning -- explicit consideration of  23 degrees of freedom as
           vibrations may cause significant error
 Vibrational temperatures:     83.62   112.13   163.31   196.63   221.26
          (Kelvin)            260.54   300.69   329.18   340.87   369.16
                              396.54   442.25   511.05   523.39   577.84
                              619.93   626.80   651.99   669.10   699.09
                              744.42   834.94   856.04   949.56   980.65
                             1016.41  1029.18  1074.15  1107.91  1143.24
                             1210.19  1214.92  1265.09  1379.28  1393.03
                             1395.52  1462.41  1493.23  1508.28  1572.98
                             1576.38  1611.44  1650.18  1669.14  1680.24
                             1704.56  1761.00  1776.23  1831.73  1878.70
                             1912.90  1962.19  2022.97  2036.33  2056.35
                             2067.72  2087.01  2103.41  2111.23  2157.23
                             2158.74  2173.99  2183.37  2217.05  2269.51
                             2305.77  4252.46  4280.69  4344.22  4352.40
                             4414.49  4422.06  4506.58  4529.02  4551.28
                             4562.21  5025.68  5187.56

 Zero-point correction=                           0.217118 (Hartree/Particle)
 Thermal correction to Energy=                    0.231360
 Thermal correction to Enthalpy=                  0.232304
 Thermal correction to Gibbs Free Energy=         0.176916
 Sum of electronic and zero-point Energies=           -724.666750
 Sum of electronic and thermal Energies=              -724.652508
 Sum of electronic and thermal Enthalpies=            -724.651563
 Sum of electronic and thermal Free Energies=         -724.706952

                     E (Thermal)             CV                S
                      KCal/Mol        Cal/Mol-Kelvin    Cal/Mol-Kelvin
 Total                  145.181             55.986            116.575
 Electronic               0.000              0.000              0.000
 Translational            0.889              2.981             42.015
 Rotational               0.889              2.981             32.242
 Vibrational            143.403             50.024             42.318
 Vibration     1          0.596              1.974              4.520
 Vibration     2          0.599              1.964              3.942
 Vibration     3          0.607              1.938              3.208
 Vibration     4          0.614              1.917              2.850
 Vibration     5          0.619              1.898              2.625
 Vibration     6          0.630              1.865              2.317
 Vibration     7          0.642              1.827              2.052
 Vibration     8          0.651              1.797              1.888
 Vibration     9          0.656              1.784              1.826
 Vibration    10          0.666              1.752              1.685
 Vibration    11          0.677              1.718              1.561
 Vibration    12          0.697              1.660              1.376
 Vibration    13          0.731              1.565              1.143
 Vibration    14          0.737              1.547              1.106
 Vibration    15          0.767              1.467              0.957
 Vibration    16          0.792              1.403              0.856
 Vibration    17          0.796              1.393              0.840
 Vibration    18          0.812              1.354              0.786
 Vibration    19          0.822              1.328              0.752
 Vibration    20          0.842              1.281              0.694
 Vibration    21          0.872              1.211              0.616
 Vibration    22          0.937              1.074              0.485
 Vibration    23          0.953              1.042              0.458

 Optimization completed.
    -- Stationary point found.
 Normal termination of Gaussian 16 at Sun Feb 11 04:40:20 2024.
