 Q-Chem 5.4, Q-Chem, Inc., Pleasanton, CA (2021)
 Q-Chem 5.4.0 for Intel X86 EM64T Linux

User input:
--------------------------------------------------------------
$molecule
-1 2
C                 -1.6308160000      2.7947060000      0.0396650000
C                 -2.8862450000      2.2256300000      0.0778340000
C                 -3.0112500000      0.8269210000      0.0929510000
C                 -0.4775470000      1.9873580000      0.0157810000
C                 -0.5955380000      0.5660840000      0.0308210000
C                 -1.9022150000     -0.0121910000      0.0704870000
C                  0.8304330000      2.6639910000     -0.0245200000
C                  2.0012300000      1.8192000000     -0.0483300000
C                  1.9007980000      0.4365970000     -0.0341360000
C                  0.6268860000     -0.2593270000      0.0052290000
O                  0.9050390000      3.9255900000     -0.0371460000
O                  0.5788890000     -1.5232310000      0.0168690000
C                  3.3446900000      2.5048080000     -0.0894280000
C                  3.1416860000     -0.4226350000     -0.0595720000
C                 -2.1537100000     -1.5044800000      0.0897760000
H                 -1.4856960000      3.8683020000      0.0267780000
H                 -3.7754760000      2.8495640000      0.0962440000
H                 -4.0017200000      0.3803770000      0.1231150000
H                  3.1973470000      3.5850120000     -0.0949540000
H                  3.9175020000      2.2230080000     -0.9821710000
H                  3.9634940000      2.2382700000      0.7769110000
H                  3.7910860000     -0.2211770000      0.8020520000
H                  3.7454060000     -0.2351160000     -0.9567930000
H                  2.8548890000     -1.4738570000     -0.0437080000
H                 -1.6799960000     -1.9826210000      0.9490720000
H                 -1.7267910000     -1.9972410000     -0.7856290000
H                 -3.2326560000     -1.6939430000      0.1204810000
$end

$rem
BASIS  =  6-311++G(d,p)
GUI  =  2
JOB_TYPE  =  SP
METHOD  =  B3LYP
SCF_CONVERGENCE  = 8
SOLVENT_METHOD = sm12
$end

$smx
solvent dimethylformamide
charges CM5
$end

--------------------------------------------------------------

             Standard Nuclear Orientation (Angstroms)
    I     Atom           X                Y                Z
 ----------------------------------------------------------------
    1      C      -1.6308160000     2.7947060000     0.0396650000
    2      C      -2.8862450000     2.2256300000     0.0778340000
    3      C      -3.0112500000     0.8269210000     0.0929510000
    4      C      -0.4775470000     1.9873580000     0.0157810000
    5      C      -0.5955380000     0.5660840000     0.0308210000
    6      C      -1.9022150000    -0.0121910000     0.0704870000
    7      C       0.8304330000     2.6639910000    -0.0245200000
    8      C       2.0012300000     1.8192000000    -0.0483300000
    9      C       1.9007980000     0.4365970000    -0.0341360000
   10      C       0.6268860000    -0.2593270000     0.0052290000
   11      O       0.9050390000     3.9255900000    -0.0371460000
   12      O       0.5788890000    -1.5232310000     0.0168690000
   13      C       3.3446900000     2.5048080000    -0.0894280000
   14      C       3.1416860000    -0.4226350000    -0.0595720000
   15      C      -2.1537100000    -1.5044800000     0.0897760000
   16      H      -1.4856960000     3.8683020000     0.0267780000
   17      H      -3.7754760000     2.8495640000     0.0962440000
   18      H      -4.0017200000     0.3803770000     0.1231150000
   19      H       3.1973470000     3.5850120000    -0.0949540000
   20      H       3.9175020000     2.2230080000    -0.9821710000
   21      H       3.9634940000     2.2382700000     0.7769110000
   22      H       3.7910860000    -0.2211770000     0.8020520000
   23      H       3.7454060000    -0.2351160000    -0.9567930000
   24      H       2.8548890000    -1.4738570000    -0.0437080000
   25      H      -1.6799960000    -1.9826210000     0.9490720000
   26      H      -1.7267910000    -1.9972410000    -0.7856290000
   27      H      -3.2326560000    -1.6939430000     0.1204810000
 ----------------------------------------------------------------

   16    -653.3040756572      5.72e-09  Convergence criterion met
 Total energy in the final basis set =     -653.3884409382

                    Orbital Energies (a.u.)
 --------------------------------------------------------------

 Alpha MOs
 -- Occupied --
-19.0712 -19.0709 -10.2209 -10.2178 -10.1906 -10.1799 -10.1789 -10.1762
-10.1756 -10.1722 -10.1708 -10.1698 -10.1631 -10.1622 -10.1612  -0.9971
 -0.9944  -0.8626  -0.8213  -0.7763  -0.7625  -0.7294  -0.6935  -0.6759
 -0.6528  -0.5953  -0.5919  -0.5434  -0.5148  -0.4930  -0.4725  -0.4538
 -0.4420  -0.4305  -0.4203  -0.4138  -0.4067  -0.4008  -0.3910  -0.3898
 -0.3888  -0.3827  -0.3771  -0.3649  -0.3591  -0.3458  -0.3431  -0.3390
 -0.2690  -0.2534  -0.2462  -0.2413  -0.2303  -0.1496

 Beta MOs
 -- Occupied --
-19.0647 -19.0642 -10.2196 -10.2164 -10.1906 -10.1794 -10.1785 -10.1755
-10.1751 -10.1722 -10.1693 -10.1686 -10.1631 -10.1623 -10.1613  -0.9857
 -0.9829  -0.8608  -0.8170  -0.7752  -0.7604  -0.7262  -0.6922  -0.6738
 -0.6472  -0.5935  -0.5887  -0.5406  -0.5132  -0.4907  -0.4705  -0.4528
 -0.4358  -0.4278  -0.4188  -0.4113  -0.4034  -0.3968  -0.3896  -0.3885
 -0.3807  -0.3804  -0.3764  -0.3579  -0.3423  -0.3414  -0.3370  -0.3343
 -0.2490  -0.2460  -0.2353  -0.2328  -0.2244

          Ground-State Mulliken Net Atomic Charges

     Atom                 Charge (a.u.)    Spin (a.u.)
  --------------------------------------------------------
      1 C                    -0.550400       0.025790
      2 C                     0.998594       0.027577
      3 C                     0.582268       0.033259
      4 C                    -1.014184       0.021354
      5 C                    -0.190129       0.037652
      6 C                    -0.213686       0.011813
      7 C                    -2.122179       0.058334
      8 C                     0.339236       0.101319
      9 C                     0.454303       0.137039
     10 C                    -2.740523       0.041208
     11 O                    -0.327655       0.239484
     12 O                    -0.259121       0.246352
     13 C                     0.292671       0.003677
     14 C                     0.663189       0.002539
     15 C                     0.578738       0.006768
     16 H                     0.138638      -0.002491
     17 H                     0.373650      -0.002181
     18 H                     0.260306      -0.003217
     19 H                     0.182352      -0.001549
     20 H                     0.210468       0.004001
     21 H                     0.210329       0.003996
     22 H                     0.204688       0.004827
     23 H                     0.204762       0.004816
     24 H                     0.202101      -0.001262
     25 H                     0.130711      -0.000378
     26 H                     0.130605      -0.000377
     27 H                     0.260268      -0.000354
  --------------------------------------------------------
  Sum of atomic charges =    -1.000000

                    Cartesian Multipole Moments
 -----------------------------------------------------------------
    Charge (ESU x 10^10)
                -4.8032
    Dipole Moment (Debye)
         X      -2.3443      Y      -6.4119      Z       0.0208
       Tot       6.8271
    Quadrupole Moments (Debye-Ang)
        XX     -98.1007     XY      -4.8728     YY    -134.9265
        XZ       0.0721     YZ       0.3321     ZZ     -95.1587

 Total job time:  635.78s(wall), 4699.99s(cpu)
        *  Thank you very much for using Q-Chem.  Have a nice day.  *
