 Q-Chem 5.4, Q-Chem, Inc., Pleasanton, CA (2021)
 Q-Chem 5.4.0 for Intel X86 EM64T Linux

User input:
--------------------------------------------------------------
$molecule
0 1
C                 -1.0137440000      3.9425990000      0.0255030000
C                 -2.1983990000      3.2231470000      0.1601780000
C                 -2.1746400000      1.8280860000      0.1401710000
C                  0.1964700000      3.2640240000     -0.1269520000
C                  0.2208930000      1.8624720000     -0.1457860000
C                 -0.9682250000      1.1472820000     -0.0147390000
C                  1.4587100000      4.0253620000     -0.2725610000
C                  2.7530930000      3.2724610000     -0.4480270000
C                  2.7559330000      1.8959540000     -0.3972220000
C                  1.5100090000      1.1326400000     -0.3082910000
O                  1.4880030000      5.2453920000     -0.2634370000
O                  1.5320710000     -0.0974970000     -0.3832050000
N                  3.8156330000      4.0687020000     -0.6760750000
H                 -1.0082530000      5.0254790000      0.0349740000
H                 -3.1388170000      3.7484950000      0.2801610000
H                 -3.0978830000      1.2696750000      0.2451430000
H                 -0.9292710000      0.0654220000     -0.0345270000
H                  3.6383790000      5.0587410000     -0.5648250000
H                  4.7393690000      3.6950130000     -0.4567600000
N                  3.8679450000      1.0445980000     -0.5688680000
C                  5.1904970000      1.2103520000     -0.2628820000
C                  6.0558700000     -0.0115300000     -0.4975180000
H                  3.5553050000      0.0937770000     -0.7433340000
H                  5.4930720000     -0.9032720000     -0.7767760000
H                  6.6249640000     -0.2106660000      0.4121680000
H                  6.7733840000      0.2173980000     -1.2890810000
O                  5.6771090000      2.2551330000      0.1600990000
$end
$rem
MAX_SCF_CYCLES=200
BASIS  =  6-311++G(d,p)
GUI  =  2
JOB_TYPE  =  SP
METHOD  =  B3LYP
SOLVENT_METHOD = COSMO
$end
$solvent
dielectric 37.219
opticaldielectric 1.43
$end

--------------------------------------------------------------

             Standard Nuclear Orientation (Angstroms)
    I     Atom           X                Y                Z
 ----------------------------------------------------------------
    1      C       3.2392100763    -0.9227939822     0.0886664111
    2      C       4.2265221759     0.0571258330     0.1529157589
    3      C       3.8733364812     1.4069682152     0.1343315668
    4      C       1.8963948723    -0.5503816573     0.0081625498
    5      C       1.5411018442     0.8056287480    -0.0092114592
    6      C       2.5335396779     1.7824066539     0.0511519328
    7      C       0.8430665532    -1.5894230619    -0.0624048683
    8      C      -0.6002524719    -1.1649167298    -0.1608942043
    9      C      -0.9246930700     0.1728096394    -0.1100297357
   10      C       0.1090785631     1.2091378418    -0.0950742469
   11      O       1.1028844501    -2.7818119396    -0.0515442504
   12      O      -0.2067290038     2.3983393574    -0.1685671979
   13      N      -1.4563686342    -2.1920188398    -0.3255855650
   14      H       3.4897950855    -1.9762929883     0.0984614424
   15      H       5.2696074945    -0.2303469202     0.2169851768
   16      H       4.6433225321     2.1684354784     0.1844184034
   17      H       2.2394856567     2.8243075059     0.0336909551
   18      H      -1.0445394817    -3.1108526436    -0.2250174059
   19      H      -2.4279744634    -2.0432560046    -0.0519389551
   20      N      -2.2140937599     0.7359789531    -0.2155108294
   21      C      -3.4403853068     0.2678410893     0.1682880710
   22      C      -4.5815281371     1.2482658455    -0.0146885442
   23      H      -2.1450723432     1.7311411715    -0.4082047109
   24      H      -4.2619313144     2.2434387801    -0.3268088981
   25      H      -5.1281942001     1.3205378524     0.9271101171
   26      H      -5.2691619871     0.8458177615    -0.7623526267
   27      O      -3.6417114177    -0.8561100924     0.6193679321
 ----------------------------------------------------------------

    9    -798.7395377652      5.94e-06  Convergence criterion met
 Total energy in the final basis set =     -798.7395377652
    5    -798.7583781427      3.92e-06  Convergence criterion met
 Total energy in the final basis set =     -798.7583781427

                    Orbital Energies (a.u.)
 --------------------------------------------------------------

 Alpha MOs
 -- Occupied --
-19.1446 -19.1289 -19.1159 -14.3671 -14.3376 -10.3001 -10.2938 -10.2814
-10.2540 -10.2355 -10.2093 -10.2086 -10.1985 -10.1971 -10.1960 -10.1954
-10.1767  -1.0812  -1.0705  -1.0619  -0.9620  -0.9377  -0.8904  -0.8208
 -0.7792  -0.7748  -0.7414  -0.6982  -0.6566  -0.6496  -0.6127  -0.5949
 -0.5682  -0.5449  -0.5389  -0.5128  -0.5070  -0.4857  -0.4757  -0.4705
 -0.4609  -0.4583  -0.4513  -0.4496  -0.4402  -0.4292  -0.4229  -0.4051
 -0.3975  -0.3837  -0.3781  -0.3695  -0.3603  -0.3232  -0.3017  -0.2900
 -0.2867  -0.2858  -0.2789  -0.2254

          Ground-State Mulliken Net Atomic Charges

     Atom                 Charge (a.u.)
  ----------------------------------------
      1 C                     0.249457
      2 C                    -0.356596
      3 C                    -0.389215
      4 C                     0.326857
      5 C                    -0.008335
      6 C                     0.211989
      7 C                    -0.557767
      8 C                     0.453835
      9 C                     0.430740
     10 C                    -0.880399
     11 O                    -0.302660
     12 O                    -0.339899
     13 N                    -0.426631
     14 H                     0.204905
     15 H                     0.223304
     16 H                     0.227718
     17 H                     0.201344
     18 H                     0.329332
     19 H                     0.333934
     20 N                    -0.069928
     21 C                     0.315951
     22 C                    -0.645431
     23 H                     0.378661
     24 H                     0.152951
     25 H                     0.196653
     26 H                     0.202373
     27 O                    -0.463144
  ----------------------------------------
  Sum of atomic charges =     0.000000

                    Cartesian Multipole Moments
 -----------------------------------------------------------------
    Charge (ESU x 10^10)
                -0.0000
    Dipole Moment (Debye)
         X       1.9505      Y       2.1169      Z      -0.7722
       Tot       2.9802
    Quadrupole Moments (Debye-Ang)
        XX     -76.5351     XY      -3.5913     YY    -104.4909
        XZ       5.6806     YZ       0.9977     ZZ    -101.6519

 Total job time:  53.90s(wall), 357.99s(cpu)
        *  Thank you very much for using Q-Chem.  Have a nice day.  *
