 Gaussian 16, Revision A.03,
 Gaussian 16:  ES64L-G16RevA.03 25-Dec-2016

 --------------------------------------
 #P UB3LYP/6-311++G(d,p) nosym opt freq
 --------------------------------------

 --------
 Oxidized
 --------
 Symbolic Z-matrix:
 Charge =  0 Multiplicity = 1

 SCF Done:  E(UB3LYP) =  -798.739466104     A.U. after   16 cycles
 Optimization completed.
    -- Stationary point found.
 Normal termination of Gaussian 16 at Mon Jan  8 01:27:16 2024.

 ----------------------------------------------------------------------
 #P Geom=AllCheck Guess=TCheck SCRF=Check GenChk UB3LYP/6-311++G(d,p) F
 req
 ----------------------------------------------------------------------

 Structure from the checkpoint file:  "271.chk"
 --------
 Oxidized
 --------
 Charge =  0 Multiplicity = 1

                          Input orientation:
 ---------------------------------------------------------------------
 Center     Atomic      Atomic             Coordinates (Angstroms)
 Number     Number       Type             X           Y           Z
 ---------------------------------------------------------------------
      1          6           0       -1.013744    3.942599    0.025503
      2          6           0       -2.198399    3.223147    0.160178
      3          6           0       -2.174640    1.828086    0.140171
      4          6           0        0.196470    3.264024   -0.126952
      5          6           0        0.220893    1.862472   -0.145786
      6          6           0       -0.968225    1.147282   -0.014739
      7          6           0        1.458710    4.025362   -0.272561
      8          6           0        2.753093    3.272461   -0.448027
      9          6           0        2.755933    1.895954   -0.397222
     10          6           0        1.510009    1.132640   -0.308291
     11          8           0        1.488003    5.245392   -0.263437
     12          8           0        1.532071   -0.097497   -0.383205
     13          7           0        3.815633    4.068702   -0.676075
     14          1           0       -1.008253    5.025479    0.034974
     15          1           0       -3.138817    3.748495    0.280161
     16          1           0       -3.097883    1.269675    0.245143
     17          1           0       -0.929271    0.065422   -0.034527
     18          1           0        3.638379    5.058741   -0.564825
     19          1           0        4.739369    3.695013   -0.456760
     20          7           0        3.867945    1.044598   -0.568868
     21          6           0        5.190497    1.210352   -0.262882
     22          6           0        6.055870   -0.011530   -0.497518
     23          1           0        3.555305    0.093777   -0.743334
     24          1           0        5.493072   -0.903272   -0.776776
     25          1           0        6.624964   -0.210666    0.412168
     26          1           0        6.773384    0.217398   -1.289081
     27          8           0        5.677109    2.255133    0.160099
 ---------------------------------------------------------------------

 SCF Done:  E(UB3LYP) =  -798.739466104     A.U. after    1 cycles

 Alpha  occ. eigenvalues --  -19.14169 -19.12554 -19.11137 -14.36944 -14.33849
 Alpha  occ. eigenvalues --  -10.29969 -10.29101 -10.27864 -10.25403 -10.23621
 Alpha  occ. eigenvalues --  -10.21287 -10.21229 -10.20527 -10.20424 -10.20368
 Alpha  occ. eigenvalues --  -10.20132 -10.18981  -1.07773  -1.06701  -1.05761
 Alpha  occ. eigenvalues --   -0.96249  -0.93883  -0.89475  -0.82402  -0.78374
 Alpha  occ. eigenvalues --   -0.78041  -0.74851  -0.70039  -0.66124  -0.65335
 Alpha  occ. eigenvalues --   -0.61443  -0.59865  -0.57142  -0.54751  -0.54147
 Alpha  occ. eigenvalues --   -0.51294  -0.51001  -0.48987  -0.47838  -0.47156
 Alpha  occ. eigenvalues --   -0.46394  -0.45818  -0.45591  -0.45052  -0.43805
 Alpha  occ. eigenvalues --   -0.42776  -0.42094  -0.41697  -0.40294  -0.39095
 Alpha  occ. eigenvalues --   -0.38143  -0.37551  -0.35888  -0.32109  -0.29804
 Alpha  occ. eigenvalues --   -0.29040  -0.28494  -0.28312  -0.28200  -0.22563
 Alpha virt. eigenvalues --   -0.12140  -0.05939  -0.03289  -0.01370  -0.00805
 Alpha virt. eigenvalues --    0.00006   0.00760   0.01218   0.02013   0.02544
 Alpha virt. eigenvalues --    0.03169   0.03480   0.03617   0.04381   0.04614

  Beta  occ. eigenvalues --  -19.14169 -19.12554 -19.11137 -14.36944 -14.33849
  Beta  occ. eigenvalues --  -10.29969 -10.29101 -10.27864 -10.25403 -10.23621
  Beta  occ. eigenvalues --  -10.21287 -10.21229 -10.20527 -10.20424 -10.20368
  Beta  occ. eigenvalues --  -10.20132 -10.18981  -1.07773  -1.06701  -1.05761
  Beta  occ. eigenvalues --   -0.96249  -0.93883  -0.89475  -0.82402  -0.78374
  Beta  occ. eigenvalues --   -0.78041  -0.74851  -0.70039  -0.66124  -0.65335
  Beta  occ. eigenvalues --   -0.61443  -0.59865  -0.57142  -0.54751  -0.54147
  Beta  occ. eigenvalues --   -0.51294  -0.51001  -0.48987  -0.47838  -0.47156
  Beta  occ. eigenvalues --   -0.46394  -0.45818  -0.45591  -0.45052  -0.43805
  Beta  occ. eigenvalues --   -0.42776  -0.42094  -0.41697  -0.40294  -0.39095
  Beta  occ. eigenvalues --   -0.38143  -0.37551  -0.35888  -0.32109  -0.29804
  Beta  occ. eigenvalues --   -0.29040  -0.28494  -0.28312  -0.28200  -0.22563
  Beta virt. eigenvalues --   -0.12140  -0.05939  -0.03289  -0.01370  -0.00805
  Beta virt. eigenvalues --    0.00006   0.00760   0.01218   0.02013   0.02544
  Beta virt. eigenvalues --    0.03169   0.03480   0.03617   0.04381   0.04614

 Mulliken charges and spin densities:
               1          2
     1  C    0.219133  -0.000000
     2  C   -0.275271   0.000000
     3  C   -0.315751   0.000000
     4  C    0.352828   0.000000
     5  C    0.051796   0.000000
     6  C    0.179756  -0.000000
     7  C   -0.671024  -0.000000
     8  C    0.455095  -0.000000
     9  C    0.509390  -0.000000
    10  C   -1.008718   0.000000
    11  O   -0.239907  -0.000000
    12  O   -0.264148  -0.000000
    13  N   -0.381030   0.000000
    14  H    0.185737  -0.000000
    15  H    0.174335   0.000000
    16  H    0.178325   0.000000
    17  H    0.186254   0.000000
    18  H    0.299577   0.000000
    19  H    0.311793   0.000000
    20  N   -0.069903   0.000000
    21  C    0.248262   0.000000
    22  C   -0.594720  -0.000000
    23  H    0.347331  -0.000000
    24  H    0.122518   0.000000
    25  H    0.184740   0.000000
    26  H    0.183669   0.000000
    27  O   -0.370066  -0.000000
 Sum of Mulliken charges =  -0.00000  -0.00000

 Dipole moment (field-independent basis, Debye):
    X=             -1.5735    Y=             -1.2170    Z=             -0.4526  Tot=              2.0401
 Quadrupole moment (field-independent basis, Debye-Ang):
   XX=            -90.5059   YY=           -106.3542   ZZ=           -100.6960
   XY=            -13.3754   XZ=             -5.9211   YZ=             -0.1410

  Exact polarizability: 245.867  -8.141 202.738 -11.420   0.546  89.310
 Approx polarizability: 337.992  21.997 414.825 -14.065  -0.834 142.828

                      1                      2                      3
                      A                      A                      A
 Frequencies --     41.7138                58.2745                72.1298
 Red. masses --      5.2682                 1.5882                 2.0956
 Frc consts  --      0.0054                 0.0032                 0.0064
 IR Inten    --      0.6131                 2.1922                 4.4541

                      4                      5                      6
                      A                      A                      A
 Frequencies --     78.3161               117.4601               133.5102
 Red. masses --      6.8816                 4.3604                 6.2683
 Frc consts  --      0.0249                 0.0354                 0.0658
 IR Inten    --      3.5586                 0.2234                 0.9892

                      7                      8                      9
                      A                      A                      A
 Frequencies --    175.9514               189.0646               262.1871
 Red. masses --      5.7505                 5.2708                 6.3304
 Frc consts  --      0.1049                 0.1110                 0.2564
 IR Inten    --      1.8030                 4.1100                 3.3583

                     10                     11                     12
                      A                      A                      A
 Frequencies --    278.6113               312.6074               329.1006
 Red. masses --      6.1741                 4.9528                 5.5017
 Frc consts  --      0.2824                 0.2852                 0.3511
 IR Inten    --      1.0161                 0.7361                 1.3013

                     13                     14                     15
                      A                      A                      A
 Frequencies --    383.1479               398.7882               416.3905
 Red. masses --      4.7481                 6.3225                 8.2590
 Frc consts  --      0.4107                 0.5924                 0.8437
 IR Inten    --      3.8607                11.1211                18.0317

                     16                     17                     18
                      A                      A                      A
 Frequencies --    437.3916               451.5918               480.1358
 Red. masses --      3.9776                 4.7973                 6.9725
 Frc consts  --      0.4483                 0.5764                 0.9470
 IR Inten    --      1.6696                 1.2497                15.6877

                     19                     20                     21
                      A                      A                      A
 Frequencies --    519.9774               562.1122               605.3706
 Red. masses --      6.0200                 4.0670                 1.9387
 Frc consts  --      0.9590                 0.7571                 0.4186
 IR Inten    --     15.9901                 9.4156                49.8112

                     22                     23                     24
                      A                      A                      A
 Frequencies --    606.8903               625.5054               671.7214
 Red. masses --      4.3242                 1.6671                 5.9152
 Frc consts  --      0.9384                 0.3843                 1.5725
 IR Inten    --     11.9985                84.1904                 1.4786

                     25                     26                     27
                      A                      A                      A
 Frequencies --    687.3759               705.0983               715.0369
 Red. masses --      5.0334                 3.6419                 1.4133
 Frc consts  --      1.4012                 1.0668                 0.4257
 IR Inten    --     22.4156                10.9827                72.9783

                     28                     29                     30
                      A                      A                      A
 Frequencies --    728.9217               731.9247               749.2086
 Red. masses --      1.6525                 3.5737                 1.7971
 Frc consts  --      0.5173                 1.1280                 0.5943
 IR Inten    --    163.6280                12.0690                28.5989

                     31                     32                     33
                      A                      A                      A
 Frequencies --    769.3583               805.4187               856.5826
 Red. masses --      6.0900                 1.8797                 5.5146
 Frc consts  --      2.1238                 0.7184                 2.3840
 IR Inten    --      1.1696                17.5222                 8.3002

                     34                     35                     36
                      A                      A                      A
 Frequencies --    912.5296               928.8532               996.4979
 Red. masses --      1.3337                 3.5281                 1.3812
 Frc consts  --      0.6543                 1.7934                 0.8081
 IR Inten    --      0.0985                 9.7870                 1.8688

                     37                     38                     39
                      A                      A                      A
 Frequencies --   1004.6564              1014.5804              1026.2093
 Red. masses --      3.4239                 1.3227                 3.5590
 Frc consts  --      2.0361                 0.8022                 2.2083
 IR Inten    --     32.8810                 0.0426                45.1266

                     40                     41                     42
                      A                      A                      A
 Frequencies --   1052.2894              1057.2409              1066.0937
 Red. masses --      1.8935                 1.7989                 2.1522
 Frc consts  --      1.2353                 1.1847                 1.4412
 IR Inten    --     12.3163                 7.4882                10.6280

                     43                     44                     45
                      A                      A                      A
 Frequencies --   1114.9011              1181.0691              1194.9247
 Red. masses --      1.9928                 1.2217                 2.5927
 Frc consts  --      1.4595                 1.0041                 2.1811
 IR Inten    --      7.7885                 6.2194                 6.3617

                     46                     47                     48
                      A                      A                      A
 Frequencies --   1231.7662              1251.1343              1288.2668
 Red. masses --      2.2015                 2.3172                 2.1287
 Frc consts  --      1.9680                 2.1370                 2.0815
 IR Inten    --      5.1968                42.7838               165.4269

                     49                     50                     51
                      A                      A                      A
 Frequencies --   1304.3933              1337.1897              1371.4966
 Red. masses --      2.6197                 4.5661                 6.7756
 Frc consts  --      2.6261                 4.8105                 7.5090
 IR Inten    --    132.0865               274.9891               169.1402

                     52                     53                     54
                      A                      A                      A
 Frequencies --   1384.8530              1404.8720              1471.3625
 Red. masses --      3.0201                 1.2956                 1.0452
 Frc consts  --      3.4126                 1.5066                 1.3331
 IR Inten    --    158.1673                25.9483                 9.3141

                     55                     56                     57
                      A                      A                      A
 Frequencies --   1484.3880              1489.8790              1509.8273
 Red. masses --      2.2088                 1.1464                 2.7022
 Frc consts  --      2.8675                 1.4993                 3.6292
 IR Inten    --      1.7089                13.3526                11.6664

                     58                     59                     60
                      A                      A                      A
 Frequencies --   1546.5820              1591.9669              1614.7376
 Red. masses --      1.9973                 1.6901                 5.1741
 Frc consts  --      2.8147                 2.5236                 7.9486
 IR Inten    --    514.2639               113.5861               232.2424

                     61                     62                     63
                      A                      A                      A
 Frequencies --   1627.6161              1662.2199              1678.0895
 Red. masses --      5.3126                 8.3482                 5.6771
 Frc consts  --      8.2920                13.5900                 9.4190
 IR Inten    --     42.4801               455.9918                73.7516

                     64                     65                     66
                      A                      A                      A
 Frequencies --   1715.9247              1730.1413              3045.6464
 Red. masses --      6.9688                 6.1789                 1.0349
 Frc consts  --     12.0894                10.8974                 5.6562
 IR Inten    --     91.0885               222.7727                 5.9713

                     67                     68                     69
                      A                      A                      A
 Frequencies --   3112.5510              3126.8507              3171.6426
 Red. masses --      1.1003                 1.1043                 1.0870
 Frc consts  --      6.2804                 6.3614                 6.4426
 IR Inten    --      4.7538                 9.7210                 3.5829

                     70                     71                     72
                      A                      A                      A
 Frequencies --   3186.0489              3201.2963              3204.3949
 Red. masses --      1.0919                 1.0930                 1.0946
 Frc consts  --      6.5304                 6.5996                 6.6220
 IR Inten    --      9.8139                 1.4730                 7.6301

                     73                     74                     75
                      A                      A                      A
 Frequencies --   3389.6421              3518.8590              3604.8437
 Red. masses --      1.0601                 1.0757                 1.0906
 Frc consts  --      7.1763                 7.8476                 8.3500
 IR Inten    --    229.1922                82.9004               124.3490

 - Thermochemistry -
 -------------------
 Temperature   298.150 Kelvin.  Pressure   1.00000 Atm.
 Atom     1 has atomic number  6 and mass  12.00000

 Molecular mass:   230.06914 amu.
 Principal axes and moments of inertia in atomic units:
                           1         2         3
     Eigenvalues --  1869.016095643.979907425.80687
           X            0.97201   0.22805   0.05650
           Y           -0.22843   0.97356   0.00035
           Z           -0.05493  -0.01324   0.99840
 This molecule is an asymmetric top.
 Rotational symmetry number  1.
 Warning -- assumption of classical behavior for rotation
           may cause significant error
 Rotational temperatures (Kelvin)      0.04634     0.01535     0.01166
 Rotational constants (GHZ):           0.96561     0.31976     0.24304
 Zero-point vibrational energy     536915.2 (Joules/Mol)
                                  128.32580 (Kcal/Mol)
 Warning -- explicit consideration of  22 degrees of freedom as
           vibrations may cause significant error
 Vibrational temperatures:     60.02    83.84   103.78   112.68   169.00
          (Kelvin)            192.09   253.15   272.02   377.23   400.86
                              449.77   473.50   551.26   573.77   599.09
                              629.31   649.74   690.81   748.13   808.75
                              870.99   873.18   899.96   966.46   988.98
                             1014.48  1028.78  1048.76  1053.08  1077.94
                             1106.94  1158.82  1232.43  1312.93  1336.41
                             1433.74  1445.48  1459.75  1476.49  1514.01
                             1521.13  1533.87  1604.09  1699.30  1719.23
                             1772.24  1800.10  1853.53  1876.73  1923.92
                             1973.28  1992.49  2021.30  2116.96  2135.70
                             2143.60  2172.30  2225.19  2290.49  2323.25
                             2341.78  2391.56  2414.40  2468.83  2489.29
                             4382.01  4478.27  4498.84  4563.29  4584.01
                             4605.95  4610.41  4876.94  5062.85  5186.57

 Zero-point correction=                           0.204500 (Hartree/Particle)
 Thermal correction to Energy=                    0.218885
 Thermal correction to Enthalpy=                  0.219830
 Thermal correction to Gibbs Free Energy=         0.162489
 Sum of electronic and zero-point Energies=           -798.534966
 Sum of electronic and thermal Energies=              -798.520581
 Sum of electronic and thermal Enthalpies=            -798.519637
 Sum of electronic and thermal Free Energies=         -798.576978

                     E (Thermal)             CV                S
                      KCal/Mol        Cal/Mol-Kelvin    Cal/Mol-Kelvin
 Total                  137.353             55.339            120.684
 Electronic               0.000              0.000              0.000
 Translational            0.889              2.981             42.202
 Rotational               0.889              2.981             32.727
 Vibrational            135.575             49.378             45.756
 Vibration     1          0.594              1.981              5.176
 Vibration     2          0.596              1.974              4.515
 Vibration     3          0.598              1.967              4.094
 Vibration     4          0.600              1.964              3.933
 Vibration     5          0.608              1.935              3.142
 Vibration     6          0.613              1.920              2.895
 Vibration     7          0.628              1.872              2.371
 Vibration     8          0.633              1.855              2.237
 Vibration     9          0.669              1.742              1.647
 Vibration    10          0.679              1.713              1.542
 Vibration    11          0.701              1.650              1.348
 Vibration    12          0.712              1.617              1.264
 Vibration    13          0.752              1.506              1.027
 Vibration    14          0.765              1.473              0.967
 Vibration    15          0.780              1.435              0.904
 Vibration    16          0.798              1.389              0.835
 Vibration    17          0.810              1.357              0.791
 Vibration    18          0.837              1.294              0.710
 Vibration    19          0.875              1.206              0.610
 Vibration    20          0.918              1.113              0.520
 Vibration    21          0.964              1.020              0.441
 Vibration    22          0.966              1.017              0.438

 Optimization completed.
    -- Stationary point found.
 Normal termination of Gaussian 16 at Mon Jan  8 02:10:58 2024.
