 Q-Chem 5.4, Q-Chem, Inc., Pleasanton, CA (2021)
 Q-Chem 5.4.0 for Intel X86 EM64T Linux

User input:
--------------------------------------------------------------
$molecule
-2 1
C                  2.8761670000      2.5198750000     -0.3871540000
O                  2.5614690000      1.1585980000     -0.2519960000
C                  1.2361460000      0.7927030000     -0.1596330000
C                  0.2371030000      1.7453540000     -0.2007640000
C                 -1.1195670000      1.3659210000     -0.1060910000
C                 -1.4704010000      0.0330450000     -0.0183670000
O                 -2.7932360000     -0.3416270000      0.0747820000
C                 -3.7776440000      0.6590010000      0.0782050000
C                 -0.4765260000     -1.0042600000     -0.0125150000
C                 -0.8645800000     -2.4257830000      0.0157390000
O                 -2.0595770000     -2.8649740000     -0.0202310000
C                  0.2348240000     -3.3457090000      0.0951620000
C                  1.5560120000     -2.9689300000      0.1317880000
C                  2.0083500000     -1.6072980000      0.0807810000
O                  3.2548360000     -1.3494800000      0.1260070000
C                  0.9329810000     -0.6053910000     -0.0280940000
H                  3.9644380000      2.5718560000     -0.4780070000
H                  2.5654600000      3.1146500000      0.4857930000
H                  2.4270850000      2.9750710000     -1.2844450000
H                  0.4699080000      2.7987050000     -0.2867360000
H                 -1.8717150000      2.1438070000     -0.1233410000
H                 -4.7342200000      0.1427980000      0.1956520000
H                 -3.6591160000      1.3718340000      0.9099680000
H                 -3.7993950000      1.2344170000     -0.8602830000
H                 -0.0440580000     -4.3979480000      0.1288470000
H                  2.3452570000     -3.7162340000      0.2006070000
$end
$rem
MAX_SCF_CYCLES=200
BASIS  =  6-311++G(d,p)
GUI  =  2
JOB_TYPE  =  SP
METHOD  =  B3LYP
SOLVENT_METHOD = COSMO
$end
$solvent
dielectric 37.219
opticaldielectric 1.43
$end

--------------------------------------------------------------

             Standard Nuclear Orientation (Angstroms)
    I     Atom           X                Y                Z
 ----------------------------------------------------------------
    1      C       3.4609181403    -2.0926391323     0.1034463029
    2      O       2.7846124526    -0.8633707420     0.0600017616
    3      C       1.4072404018    -0.8679911245     0.0185769502
    4      C       0.7056840706    -2.0575850082     0.0213534468
    5      C      -0.7055929641    -2.0576164013    -0.0208721126
    6      C      -1.4072037210    -0.8680482113    -0.0179921546
    7      O      -2.7845880576    -0.8635165802    -0.0597070757
    8      C      -3.4607357972    -2.0927962263    -0.1046849340
    9      C      -0.7322247084     0.3995468895     0.0198154840
   10      C      -1.4914250820     1.6609075151     0.0883428497
   11      O      -2.7584990856     1.7552525176     0.1767899834
   12      C      -0.6858938546     2.8484860631     0.0432025409
   13      C       0.6856452333     2.8485157192    -0.0446731642
   14      C       1.4913144318     1.6609710238    -0.0881222463
   15      O       2.7584673042     1.7553904238    -0.1755947298
   16      C       0.7321954653     0.3995912586    -0.0192065665
   17      H       4.5252162198    -1.8509710779     0.1679149850
   18      H       3.2905713120    -2.7013449541    -0.7981033551
   19      H       3.1855783364    -2.7009154059     0.9799148689
   20      H       1.2180144014    -3.0106968192     0.0366240010
   21      H      -1.2178586339    -3.0107576868    -0.0362467254
   22      H      -4.5250271316    -1.8511913571    -0.1695541987
   23      H      -3.1846913353    -2.7001888883    -0.9815447118
   24      H      -3.2909299988    -2.7023557306     0.7963919810
   25      H      -1.2402994437     3.7851407125     0.0810082649
   26      H       1.2399556688     3.7851820600    -0.0834430042
 ----------------------------------------------------------------

   24    -764.3091976477      8.32e-06  Convergence criterion met
 Total energy in the final basis set =     -764.3091976477
    6    -764.6088230386      4.03e-06  Convergence criterion met
 Total energy in the final basis set =     -764.6088230386

                    Orbital Energies (a.u.)
 --------------------------------------------------------------

 Alpha MOs
 -- Occupied --
-19.1296 -19.1296 -19.0144 -19.0143 -10.2069 -10.2069 -10.2030 -10.2030
-10.1749 -10.1749 -10.1469 -10.1465 -10.1424 -10.1419 -10.1186 -10.1180
 -1.0477  -1.0470  -0.9412  -0.9385  -0.8227  -0.7625  -0.7396  -0.7170
 -0.6862  -0.6598  -0.6370  -0.5838  -0.5754  -0.5393  -0.5022  -0.4900
 -0.4701  -0.4633  -0.4527  -0.4494  -0.4245  -0.4187  -0.4091  -0.3895
 -0.3852  -0.3769  -0.3699  -0.3594  -0.3368  -0.3336  -0.3320  -0.3255
 -0.3185  -0.3092  -0.3091  -0.2747  -0.2283  -0.2191  -0.1928  -0.1906
 -0.1888  -0.1068

          Ground-State Mulliken Net Atomic Charges

     Atom                 Charge (a.u.)
  ----------------------------------------
      1 C                    -0.318468
      2 O                    -0.173156
      3 C                    -0.250394
      4 C                    -0.223699
      5 C                    -0.225679
      6 C                    -0.251065
      7 O                    -0.173333
      8 C                    -0.318397
      9 C                     0.070345
     10 C                     0.030030
     11 O                    -0.755938
     12 C                    -0.213411
     13 C                    -0.212112
     14 C                     0.027825
     15 O                    -0.755957
     16 C                     0.073716
     17 H                     0.195357
     18 H                     0.156308
     19 H                     0.148652
     20 H                     0.194002
     21 H                     0.194722
     22 H                     0.195421
     23 H                     0.148566
     24 H                     0.156153
     25 H                     0.140212
     26 H                     0.140297
  ----------------------------------------
  Sum of atomic charges =    -2.000000

                    Cartesian Multipole Moments
 -----------------------------------------------------------------
    Charge (ESU x 10^10)
                -9.6064
    Dipole Moment (Debye)
         X       0.0009      Y     -17.1784      Z      -0.0047
       Tot      17.1784
    Quadrupole Moments (Debye-Ang)
        XX    -157.9262     XY      -0.0018     YY    -122.7927
        XZ       4.2580     YZ      -0.0008     ZZ    -104.5107

 Total job time:  101.55s(wall), 779.53s(cpu)
        *  Thank you very much for using Q-Chem.  Have a nice day.  *
