 Gaussian 16, Revision A.03,
 Gaussian 16:  ES64L-G16RevA.03 25-Dec-2016

 --------------------------------------
 #P UB3LYP/6-311++G(d,p) nosym opt freq
 --------------------------------------

 -------
 Reduced
 -------
 Symbolic Z-matrix:
 Charge = -2 Multiplicity = 1

 SCF Done:  E(UB3LYP) =  -914.697675134     A.U. after   24 cycles
 SCF Done:  E(UB3LYP) =  -914.698051382     A.U. after   15 cycles
 SCF Done:  E(UB3LYP) =  -914.698054357     A.U. after   15 cycles
 SCF Done:  E(UB3LYP) =  -914.698071883     A.U. after   15 cycles
 SCF Done:  E(UB3LYP) =  -914.698079508     A.U. after   15 cycles
 SCF Done:  E(UB3LYP) =  -914.698087917     A.U. after   15 cycles
 SCF Done:  E(UB3LYP) =  -914.698090685     A.U. after   15 cycles
 SCF Done:  E(UB3LYP) =  -914.698092162     A.U. after   14 cycles
 SCF Done:  E(UB3LYP) =  -914.698092616     A.U. after   14 cycles
 SCF Done:  E(UB3LYP) =  -914.698092821     A.U. after   14 cycles
 SCF Done:  E(UB3LYP) =  -914.698092858     A.U. after   14 cycles
 SCF Done:  E(UB3LYP) =  -914.698092867     A.U. after   12 cycles
 SCF Done:  E(UB3LYP) =  -914.698092871     A.U. after   12 cycles
 SCF Done:  E(UB3LYP) =  -914.698092873     A.U. after   12 cycles
 SCF Done:  E(UB3LYP) =  -914.698092875     A.U. after   12 cycles
 Optimization completed on the basis of negligible forces.
    -- Stationary point found.
 Normal termination of Gaussian 16 at Mon Jan 15 18:34:33 2024.

 ----------------------------------------------------------------------
 #P Geom=AllCheck Guess=TCheck SCRF=Check GenChk UB3LYP/6-311++G(d,p) F
 req
 ----------------------------------------------------------------------

 Structure from the checkpoint file:  "200-an.chk"
 -------
 Reduced
 -------
 Charge = -2 Multiplicity = 1

                          Input orientation:
 ---------------------------------------------------------------------
 Center     Atomic      Atomic             Coordinates (Angstroms)
 Number     Number       Type             X           Y           Z
 ---------------------------------------------------------------------
      1          8           0        4.405498   -1.525476   -0.401574
      2          6           0        3.276154   -0.724850   -0.307588
      3          6           0        3.354946    0.674353   -0.352850
      4          6           0        2.202503    1.440913   -0.254618
      5          8           0        2.340456    2.830671   -0.303849
      6          6           0        0.915835    0.843710   -0.108214
      7          6           0       -0.312640    1.639948   -0.003420
      8          8           0       -0.336199    2.904107   -0.034535
      9          6           0       -1.552683    0.875981    0.143717
     10          6           0       -2.774076    1.567271    0.251250
     11          6           0       -3.990824    0.918890    0.392774
     12          6           0       -4.010352   -0.505034    0.431347
     13          6           0       -2.842803   -1.222886    0.329940
     14          6           0       -1.571235   -0.572773    0.182834
     15          6           0       -0.379942   -1.287107    0.079139
     16          8           0       -0.424987   -2.672726    0.119476
     17          6           0        0.860426   -0.614363   -0.065048
     18          6           0        2.069080   -1.400480   -0.167556
     19          8           0        2.107838   -2.731127   -0.136775
     20          1           0        3.983149   -2.412478   -0.335691
     21          1           0        4.327469    1.153476   -0.465916
     22          1           0        3.287519    2.984578   -0.385419
     23          1           0       -2.714621    2.651072    0.217120
     24          1           0       -4.916517    1.484358    0.473217
     25          1           0       -4.958503   -1.030309    0.542092
     26          1           0       -2.853873   -2.307085    0.358872
     27          1           0        0.534782   -2.956032    0.029271
 ---------------------------------------------------------------------

 SCF Done:  E(UB3LYP) =  -914.698092875     A.U. after    1 cycles

 Alpha  occ. eigenvalues --  -18.90407 -18.89444 -18.85380 -18.80932 -18.78972
 Alpha  occ. eigenvalues --   -9.97672  -9.95878  -9.95661  -9.94702  -9.94408
 Alpha  occ. eigenvalues --   -9.93709  -9.92657  -9.92653  -9.92453  -9.91891
 Alpha  occ. eigenvalues --   -9.91718  -9.91521  -9.91223  -9.90625  -0.80978
 Alpha  occ. eigenvalues --   -0.80320  -0.76524  -0.71489  -0.70251  -0.60422
 Alpha  occ. eigenvalues --   -0.57926  -0.53079  -0.50232  -0.48158  -0.46347
 Alpha  occ. eigenvalues --   -0.41502  -0.38793  -0.36977  -0.33711  -0.32072
 Alpha  occ. eigenvalues --   -0.31374  -0.27964  -0.25754  -0.24741  -0.23447
 Alpha  occ. eigenvalues --   -0.21688  -0.20645  -0.18978  -0.18621  -0.17482
 Alpha  occ. eigenvalues --   -0.17430  -0.15879  -0.14370  -0.14324  -0.14022
 Alpha  occ. eigenvalues --   -0.13046  -0.12622  -0.11443  -0.10898  -0.10747
 Alpha  occ. eigenvalues --   -0.09197  -0.09041  -0.07703  -0.06947  -0.03220
 Alpha  occ. eigenvalues --   -0.01221  -0.00304   0.00561   0.01951   0.04146
 Alpha  occ. eigenvalues --    0.06487   0.12148
 Alpha virt. eigenvalues --    0.15886   0.16650   0.17603   0.19279   0.20009
 Alpha virt. eigenvalues --    0.20587   0.20999   0.21312   0.22874   0.24260
 Alpha virt. eigenvalues --    0.25044   0.25884   0.25983   0.26516   0.26933

  Beta  occ. eigenvalues --  -18.90407 -18.89444 -18.85380 -18.80932 -18.78972
  Beta  occ. eigenvalues --   -9.97672  -9.95878  -9.95661  -9.94702  -9.94408
  Beta  occ. eigenvalues --   -9.93709  -9.92657  -9.92653  -9.92453  -9.91891
  Beta  occ. eigenvalues --   -9.91718  -9.91521  -9.91223  -9.90625  -0.80978
  Beta  occ. eigenvalues --   -0.80320  -0.76524  -0.71489  -0.70251  -0.60422
  Beta  occ. eigenvalues --   -0.57926  -0.53079  -0.50232  -0.48158  -0.46347
  Beta  occ. eigenvalues --   -0.41502  -0.38793  -0.36977  -0.33711  -0.32072
  Beta  occ. eigenvalues --   -0.31374  -0.27964  -0.25754  -0.24741  -0.23447
  Beta  occ. eigenvalues --   -0.21688  -0.20645  -0.18978  -0.18621  -0.17482
  Beta  occ. eigenvalues --   -0.17430  -0.15879  -0.14370  -0.14324  -0.14022
  Beta  occ. eigenvalues --   -0.13046  -0.12622  -0.11443  -0.10898  -0.10747
  Beta  occ. eigenvalues --   -0.09197  -0.09041  -0.07703  -0.06947  -0.03220
  Beta  occ. eigenvalues --   -0.01221  -0.00304   0.00561   0.01951   0.04146
  Beta  occ. eigenvalues --    0.06487   0.12148
  Beta virt. eigenvalues --    0.15886   0.16650   0.17603   0.19279   0.20009
  Beta virt. eigenvalues --    0.20587   0.20999   0.21312   0.22874   0.24260
  Beta virt. eigenvalues --    0.25044   0.25884   0.25983   0.26516   0.26933

 Mulliken charges and spin densities:
               1          2
     1  O   -0.346985   0.000000
     2  C   -0.473628   0.000000
     3  C    0.181415   0.000000
     4  C   -0.138133  -0.000000
     5  O   -0.204233   0.000000
     6  C    0.606473  -0.000000
     7  C   -0.451936   0.000000
     8  O   -0.448124  -0.000000
     9  C   -0.090124   0.000000
    10  C    0.045615  -0.000000
    11  C   -0.570665  -0.000000
    12  C   -0.427044  -0.000000
    13  C   -0.163319  -0.000000
    14  C    0.335955   0.000000
    15  C    0.019358   0.000000
    16  O   -0.474155  -0.000000
    17  C    1.047130   0.000000
    18  C   -1.117226  -0.000000
    19  O   -0.637985   0.000000
    20  H    0.253397   0.000000
    21  H    0.059953   0.000000
    22  H    0.210101  -0.000000
    23  H    0.122830  -0.000000
    24  H    0.072825  -0.000000
    25  H    0.074349  -0.000000
    26  H    0.113934  -0.000000
    27  H    0.400220   0.000000
 Sum of Mulliken charges =  -2.00000   0.00000

 Dipole moment (field-independent basis, Debye):
    X=             -2.1114    Y=              0.4986    Z=              0.1535  Tot=              2.1749
 Quadrupole moment (field-independent basis, Debye-Ang):
   XX=           -179.5087   YY=           -170.4838   ZZ=           -122.3556
   XY=             17.1786   XZ=              5.5181   YZ=             -0.3950

  Exact polarizability: 404.644 -12.980 244.912 -28.669  -1.823 121.259
 Approx polarizability: 682.628 -25.024 458.374 -50.530  -4.587 184.609

                      1                      2                      3
                      A                      A                      A
 Frequencies --     24.9516                60.1678                63.0645
 Red. masses --      1.7118                 7.6078                 2.2537
 Frc consts  --      0.0006                 0.0162                 0.0053
 IR Inten    --     42.9845                 0.3895                13.3660

                      4                      5                      6
                      A                      A                      A
 Frequencies --    109.2097               136.2020               170.1698
 Red. masses --      8.4425                 5.1830                 8.2222
 Frc consts  --      0.0593                 0.0566                 0.1403
 IR Inten    --      1.7592                 0.2838                 1.8940

                      7                      8                      9
                      A                      A                      A
 Frequencies --    197.5263               205.3709               291.5935
 Red. masses --      6.2589                 6.5350                 5.7103
 Frc consts  --      0.1439                 0.1624                 0.2861
 IR Inten    --      6.5223                 2.2141                 3.6440

                     10                     11                     12
                      A                      A                      A
 Frequencies --    292.3231               305.9049               345.1763
 Red. masses --      5.7329                 7.1296                10.2011
 Frc consts  --      0.2886                 0.3931                 0.7161
 IR Inten    --      0.1941                 2.8465                14.0078

                     13                     14                     15
                      A                      A                      A
 Frequencies --    350.7372               352.1377               366.1887
 Red. masses --      7.2062                 9.1124                 7.6798
 Frc consts  --      0.5223                 0.6657                 0.6067
 IR Inten    --      5.5665                 8.3334                 0.0009

                     16                     17                     18
                      A                      A                      A
 Frequencies --    396.4263               413.8920               445.3462
 Red. masses --      7.0105                 8.7483                 3.5254
 Frc consts  --      0.6491                 0.8830                 0.4120
 IR Inten    --     18.8490                19.9032                 3.2576

                     19                     20                     21
                      A                      A                      A
 Frequencies --    472.8712               494.1699               504.4507
 Red. masses --     11.0144                 3.8769                 8.6689
 Frc consts  --      1.4511                 0.5578                 1.2997
 IR Inten    --      6.8894                25.2522                 1.4218

                     22                     23                     24
                      A                      A                      A
 Frequencies --    522.1212               574.1328               585.8046
 Red. masses --      8.7264                 7.2461                 4.5764
 Frc consts  --      1.4016                 1.4073                 0.9253
 IR Inten    --      8.0288                47.0887                 6.8517

                     25                     26                     27
                      A                      A                      A
 Frequencies --    619.6731               645.4762               681.0621
 Red. masses --      4.5612                 6.4020                 1.7767
 Frc consts  --      1.0319                 1.5715                 0.4856
 IR Inten    --      9.9935                 3.4057                 0.7028

                     28                     29                     30
                      A                      A                      A
 Frequencies --    687.5054               697.3410               705.5731
 Red. masses --      1.3328                 1.3828                 3.5640
 Frc consts  --      0.3712                 0.3962                 1.0454
 IR Inten    --      7.0416               117.9685                 6.9352

                     31                     32                     33
                      A                      A                      A
 Frequencies --    716.4331               735.6015               745.9673
 Red. masses --      7.0165                 3.0630                 5.6161
 Frc consts  --      2.1219                 0.9765                 1.8413
 IR Inten    --     27.2125                31.6343                 6.2833

                     34                     35                     36
                      A                      A                      A
 Frequencies --    779.5071               806.8141               829.6160
 Red. masses --      1.8552                 5.3160                 7.1581
 Frc consts  --      0.6642                 2.0388                 2.9027
 IR Inten    --      8.8697                 2.7515                49.1405

                     37                     38                     39
                      A                      A                      A
 Frequencies --    893.8723               896.0765               927.4761
 Red. masses --      9.0153                 1.0525                 6.4020
 Frc consts  --      4.2440                 0.4979                 3.2447
 IR Inten    --    122.4751                60.1964               145.8742

                     40                     41                     42
                      A                      A                      A
 Frequencies --    930.0561               955.2019              1011.8649
 Red. masses --      1.2421                 1.3220                 2.3972
 Frc consts  --      0.6330                 0.7107                 1.4461
 IR Inten    --      0.1690                 1.6056                62.7729

                     43                     44                     45
                      A                      A                      A
 Frequencies --   1045.9377              1089.4007              1104.6261
 Red. masses --      5.5088                 2.8425                 5.6441
 Frc consts  --      3.5508                 1.9876                 4.0576
 IR Inten    --    130.6431                 3.3307                73.0623

                     46                     47                     48
                      A                      A                      A
 Frequencies --   1134.2389              1160.7201              1177.8755
 Red. masses --      1.4960                 1.9062                 1.5485
 Frc consts  --      1.1340                 1.5131                 1.2658
 IR Inten    --     89.5357                 5.0949                12.7305

                     49                     50                     51
                      A                      A                      A
 Frequencies --   1202.1366              1219.3169              1248.6742
 Red. masses --      1.7296                 3.4156                 2.6137
 Frc consts  --      1.4727                 2.9920                 2.4011
 IR Inten    --    106.9849               121.0099               298.1347

                     52                     53                     54
                      A                      A                      A
 Frequencies --   1263.8842              1311.9219              1347.3401
 Red. masses --      2.4292                 3.5510                 6.5216
 Frc consts  --      2.2863                 3.6010                 6.9753
 IR Inten    --     43.2161                33.9093                25.6227

                     55                     56                     57
                      A                      A                      A
 Frequencies --   1357.9959              1382.9839              1408.2626
 Red. masses --      4.6546                 4.5111                 2.3915
 Frc consts  --      5.0574                 5.0835                 2.7944
 IR Inten    --    198.1700               144.2646               138.1319

                     58                     59                     60
                      A                      A                      A
 Frequencies --   1430.1018              1450.0114              1482.1837
 Red. masses --      2.7107                 2.9519                 3.2036
 Frc consts  --      3.2664                 3.6568                 4.1466
 IR Inten    --    684.3060               215.9086               102.5481

                     61                     62                     63
                      A                      A                      A
 Frequencies --   1498.2572              1521.8353              1539.2501
 Red. masses --      2.4557                 7.8823                 4.8611
 Frc consts  --      3.2479                10.7557                 6.7858
 IR Inten    --     95.1299               478.8800                34.7935

                     64                     65                     66
                      A                      A                      A
 Frequencies --   1586.3156              1600.0030              1619.6124
 Red. masses --      4.5157                 4.7904                 3.0977
 Frc consts  --      6.6951                 7.2254                 4.7876
 IR Inten    --     69.3773               623.5456                 1.7570

                     67                     68                     69
                      A                      A                      A
 Frequencies --   1656.8003              2988.4019              3089.6464
 Red. masses --      2.7061                 1.0739                 1.0835
 Frc consts  --      4.3765                 5.6506                 6.0937
 IR Inten    --     16.5565               553.6306                60.1215

                     70                     71                     72
                      A                      A                      A
 Frequencies --   3096.4287              3119.2143              3156.0804
 Red. masses --      1.0883                 1.0893                 1.0907
 Frc consts  --      6.1476                 6.2445                 6.4010
 IR Inten    --     80.5758                91.0642                41.0542

                     73                     74                     75
                      A                      A                      A
 Frequencies --   3167.8864              3450.7555              3800.4376
 Red. masses --      1.0909                 1.0635                 1.0650
 Frc consts  --      6.4501                 7.4615                 9.0629
 IR Inten    --     39.7152                64.4375                 0.3078

 - Thermochemistry -
 -------------------
 Temperature   298.150 Kelvin.  Pressure   1.00000 Atm.
 Atom     1 has atomic number  8 and mass  15.99491

 Molecular mass:   256.03717 amu.
 Principal axes and moments of inertia in atomic units:
                           1         2         3
     Eigenvalues --  2704.694835807.242378511.93335
           X            0.98547   0.13614   0.10156
           Y           -0.13940   0.98990   0.02568
           Z           -0.09704  -0.03947   0.99450
 This molecule is an asymmetric top.
 Rotational symmetry number  1.
 Warning -- assumption of classical behavior for rotation
           may cause significant error
 Rotational temperatures (Kelvin)      0.03202     0.01491     0.01018
 Rotational constants (GHZ):           0.66726     0.31077     0.21202
 Zero-point vibrational energy     488396.9 (Joules/Mol)
                                  116.72967 (Kcal/Mol)
 Warning -- explicit consideration of  25 degrees of freedom as
           vibrations may cause significant error
 Vibrational temperatures:     35.90    86.57    90.74   157.13   195.96
          (Kelvin)            244.84   284.20   295.48   419.54   420.59
                              440.13   496.63   504.63   506.65   526.86
                              570.37   595.50   640.75   680.36   711.00
                              725.79   751.22   826.05   842.84   891.57
                              928.70   979.90   989.17  1003.32  1015.16
                             1030.79  1058.37  1073.28  1121.54  1160.83
                             1193.63  1286.08  1289.25  1334.43  1338.14
                             1374.32  1455.85  1504.87  1567.40  1589.31
                             1631.92  1670.02  1694.70  1729.61  1754.33
                             1796.56  1818.45  1887.56  1938.52  1953.85
                             1989.81  2026.18  2057.60  2086.24  2132.53
                             2155.66  2189.58  2214.64  2282.35  2302.05
                             2330.26  2383.77  4299.64  4445.31  4455.07
                             4487.85  4540.90  4557.88  4964.87  5467.98

 Zero-point correction=                           0.186021 (Hartree/Particle)
 Thermal correction to Energy=                    0.201153
 Thermal correction to Enthalpy=                  0.202097
 Thermal correction to Gibbs Free Energy=         0.143298
 Sum of electronic and zero-point Energies=           -914.512072
 Sum of electronic and thermal Energies=              -914.496940
 Sum of electronic and thermal Enthalpies=            -914.495996
 Sum of electronic and thermal Free Energies=         -914.554795

                     E (Thermal)             CV                S
                      KCal/Mol        Cal/Mol-Kelvin    Cal/Mol-Kelvin
 Total                  126.225             59.950            123.753
 Electronic               0.000              0.000              0.000
 Translational            0.889              2.981             42.520
 Rotational               0.889              2.981             33.258
 Vibrational            124.448             53.988             47.974
 Vibration     1          0.593              1.985              6.195
 Vibration     2          0.597              1.973              4.452
 Vibration     3          0.597              1.972              4.359
 Vibration     4          0.606              1.942              3.283
 Vibration     5          0.614              1.917              2.857
 Vibration     6          0.625              1.879              2.434
 Vibration     7          0.637              1.843              2.156
 Vibration     8          0.640              1.832              2.084
 Vibration     9          0.687              1.689              1.465
 Vibration    10          0.688              1.688              1.460
 Vibration    11          0.696              1.662              1.384
 Vibration    12          0.724              1.585              1.188
 Vibration    13          0.728              1.574              1.163
 Vibration    14          0.729              1.571              1.157
 Vibration    15          0.739              1.542              1.096
 Vibration    16          0.763              1.478              0.976
 Vibration    17          0.777              1.440              0.913
 Vibration    18          0.805              1.371              0.810
 Vibration    19          0.830              1.310              0.730
 Vibration    20          0.850              1.263              0.673
 Vibration    21          0.860              1.240              0.647
 Vibration    22          0.877              1.201              0.605
 Vibration    23          0.930              1.087              0.496
 Vibration    24          0.943              1.062              0.475
 Vibration    25          0.980              0.990              0.417

 Optimization completed on the basis of negligible forces.
    -- Stationary point found.
 Normal termination of Gaussian 16 at Mon Jan 15 19:06:06 2024.
