 Q-Chem 5.4, Q-Chem, Inc., Pleasanton, CA (2021)
 Q-Chem 5.4.0 for Intel X86 EM64T Linux

User input:
--------------------------------------------------------------
$molecule
-2 1
O                  4.4054980000     -1.5254760000     -0.4015740000
C                  3.2761540000     -0.7248500000     -0.3075880000
C                  3.3549460000      0.6743530000     -0.3528500000
C                  2.2025030000      1.4409130000     -0.2546180000
O                  2.3404560000      2.8306710000     -0.3038490000
C                  0.9158350000      0.8437100000     -0.1082140000
C                 -0.3126400000      1.6399480000     -0.0034200000
O                 -0.3361990000      2.9041070000     -0.0345350000
C                 -1.5526830000      0.8759810000      0.1437170000
C                 -2.7740760000      1.5672710000      0.2512500000
C                 -3.9908240000      0.9188900000      0.3927740000
C                 -4.0103520000     -0.5050340000      0.4313470000
C                 -2.8428030000     -1.2228860000      0.3299400000
C                 -1.5712350000     -0.5727730000      0.1828340000
C                 -0.3799420000     -1.2871070000      0.0791390000
O                 -0.4249870000     -2.6727260000      0.1194760000
C                  0.8604260000     -0.6143630000     -0.0650480000
C                  2.0690800000     -1.4004800000     -0.1675560000
O                  2.1078380000     -2.7311270000     -0.1367750000
H                  3.9831490000     -2.4124780000     -0.3356910000
H                  4.3274690000      1.1534760000     -0.4659160000
H                  3.2875190000      2.9845780000     -0.3854190000
H                 -2.7146210000      2.6510720000      0.2171200000
H                 -4.9165170000      1.4843580000      0.4732170000
H                 -4.9585030000     -1.0303090000      0.5420920000
H                 -2.8538730000     -2.3070850000      0.3588720000
H                  0.5347820000     -2.9560320000      0.0292710000
$end

$rem
BASIS  =  6-311++G(d,p)
GUI  =  2
JOB_TYPE  =  SP
METHOD  =  B3LYP
SCF_CONVERGENCE  = 8
SOLVENT_METHOD = sm12
$end

$smx
solvent dimethylformamide
charges CM5
$end

--------------------------------------------------------------

             Standard Nuclear Orientation (Angstroms)
    I     Atom           X                Y                Z
 ----------------------------------------------------------------
    1      O       4.4054980000    -1.5254760000    -0.4015740000
    2      C       3.2761540000    -0.7248500000    -0.3075880000
    3      C       3.3549460000     0.6743530000    -0.3528500000
    4      C       2.2025030000     1.4409130000    -0.2546180000
    5      O       2.3404560000     2.8306710000    -0.3038490000
    6      C       0.9158350000     0.8437100000    -0.1082140000
    7      C      -0.3126400000     1.6399480000    -0.0034200000
    8      O      -0.3361990000     2.9041070000    -0.0345350000
    9      C      -1.5526830000     0.8759810000     0.1437170000
   10      C      -2.7740760000     1.5672710000     0.2512500000
   11      C      -3.9908240000     0.9188900000     0.3927740000
   12      C      -4.0103520000    -0.5050340000     0.4313470000
   13      C      -2.8428030000    -1.2228860000     0.3299400000
   14      C      -1.5712350000    -0.5727730000     0.1828340000
   15      C      -0.3799420000    -1.2871070000     0.0791390000
   16      O      -0.4249870000    -2.6727260000     0.1194760000
   17      C       0.8604260000    -0.6143630000    -0.0650480000
   18      C       2.0690800000    -1.4004800000    -0.1675560000
   19      O       2.1078380000    -2.7311270000    -0.1367750000
   20      H       3.9831490000    -2.4124780000    -0.3356910000
   21      H       4.3274690000     1.1534760000    -0.4659160000
   22      H       3.2875190000     2.9845780000    -0.3854190000
   23      H      -2.7146210000     2.6510720000     0.2171200000
   24      H      -4.9165170000     1.4843580000     0.4732170000
   25      H      -4.9585030000    -1.0303090000     0.5420920000
   26      H      -2.8538730000    -2.3070850000     0.3588720000
   27      H       0.5347820000    -2.9560320000     0.0292710000
 ----------------------------------------------------------------

   18    -914.6921215190      5.94e-09  Convergence criterion met
 Total energy in the final basis set =     -914.9660632424

                    Orbital Energies (a.u.)
 --------------------------------------------------------------

 Alpha MOs
 -- Occupied --
-19.1332 -19.1265 -19.0986 -19.0494 -19.0372 -10.2162 -10.2059 -10.1968
-10.1909 -10.1887 -10.1764 -10.1697 -10.1692 -10.1670 -10.1627 -10.1617
-10.1573 -10.1568 -10.1528  -1.0388  -1.0359  -1.0095  -0.9624  -0.9428
 -0.8476  -0.8209  -0.7735  -0.7460  -0.7233  -0.7048  -0.6576  -0.6291
 -0.6114  -0.5768  -0.5612  -0.5502  -0.5193  -0.4980  -0.4891  -0.4679
 -0.4552  -0.4483  -0.4324  -0.4276  -0.4173  -0.4154  -0.3981  -0.3862
 -0.3845  -0.3746  -0.3708  -0.3639  -0.3517  -0.3499  -0.3481  -0.3346
 -0.3334  -0.3209  -0.3077  -0.2718  -0.2545  -0.2478  -0.2343  -0.2233
 -0.2044  -0.1774  -0.1224

          Ground-State Mulliken Net Atomic Charges

     Atom                 Charge (a.u.)
  ----------------------------------------
      1 O                    -0.166913
      2 C                     0.987839
      3 C                     2.208832
      4 C                     0.599800
      5 O                    -0.077299
      6 C                    -0.825125
      7 C                    -2.182958
      8 O                    -0.274923
      9 C                    -1.900662
     10 C                    -0.135497
     11 C                     1.278118
     12 C                     1.360385
     13 C                     0.060037
     14 C                    -1.271818
     15 C                    -1.374710
     16 O                    -0.283834
     17 C                    -1.114027
     18 C                    -0.819103
     19 O                    -0.518488
     20 H                     0.336595
     21 H                     0.300042
     22 H                     0.369900
     23 H                     0.116236
     24 H                     0.352499
     25 H                     0.396344
     26 H                     0.163757
     27 H                     0.414974
  ----------------------------------------
  Sum of atomic charges =    -2.000000

                    Cartesian Multipole Moments
 -----------------------------------------------------------------
    Charge (ESU x 10^10)
                -9.6064
    Dipole Moment (Debye)
         X      -1.5617      Y       0.5159      Z       0.0984
       Tot       1.6477
    Quadrupole Moments (Debye-Ang)
        XX    -168.2327     XY      17.7755     YY    -168.8375
        XZ       4.3035     YZ      -0.5159     ZZ    -122.8925

 Total job time:  715.96s(wall), 5558.86s(cpu)
        *  Thank you very much for using Q-Chem.  Have a nice day.  *
