 Q-Chem 5.4, Q-Chem, Inc., Pleasanton, CA (2021)
 Q-Chem 5.4.0 for Intel X86 EM64T Linux

User input:
--------------------------------------------------------------
$molecule
-1 2
O                 -0.0165510000     -2.5100930000     -0.5255080000
C                 -0.0087080000     -1.2943520000     -0.1718510000
C                  1.2479460000     -0.6011710000      0.0973220000
C                  2.4489960000     -1.3562990000      0.1139550000
C                  3.6582870000     -0.7925120000      0.4712000000
C                  3.7376970000      0.5659050000      0.8331180000
C                  2.5823930000      1.3374470000      0.7957940000
C                  1.3562390000      0.7759570000      0.4284660000
S                  0.0116320000      1.9500920000      0.2167800000
O                  0.0123970000      2.4469790000     -1.2326950000
C                 -1.3464670000      0.7923930000      0.4327250000
C                 -2.5645070000      1.3687850000      0.8039300000
C                 -3.7290520000      0.6114210000      0.8447230000
C                 -3.6673900000     -0.7477780000      0.4823440000
C                 -2.4661830000     -1.3262780000      0.1213120000
C                 -1.2560210000     -0.5859200000      0.1011220000
H                  2.3689760000     -2.4038670000     -0.1510960000
H                  4.5554010000     -1.4051320000      0.4788090000
H                  4.6850230000      1.0091390000      1.1208480000
H                  2.6242680000      2.3957250000      1.0373940000
H                 -2.5927190000      2.4274510000      1.0458100000
H                 -4.6699700000      1.0661780000      1.1354930000
H                 -4.5719050000     -1.3493790000      0.4925720000
H                 -2.3997830000     -2.3746930000     -0.1441140000
$end
$rem
MAX_SCF_CYCLES=200
BASIS  =  6-311++G(d,p)
GUI  =  2
JOB_TYPE  =  SP
METHOD  =  B3LYP
SOLVENT_METHOD = PCM
$end
$pcm
theory = CPCM
$end
$solvent
dielectric 37.219
opticaldielectric 1.43
$end

--------------------------------------------------------------

             Standard Nuclear Orientation (Angstroms)
    I     Atom           X                Y                Z
 ----------------------------------------------------------------
    1      O      -0.0165510000    -2.5100930000    -0.5255080000
    2      C      -0.0087080000    -1.2943520000    -0.1718510000
    3      C       1.2479460000    -0.6011710000     0.0973220000
    4      C       2.4489960000    -1.3562990000     0.1139550000
    5      C       3.6582870000    -0.7925120000     0.4712000000
    6      C       3.7376970000     0.5659050000     0.8331180000
    7      C       2.5823930000     1.3374470000     0.7957940000
    8      C       1.3562390000     0.7759570000     0.4284660000
    9      S       0.0116320000     1.9500920000     0.2167800000
   10      O       0.0123970000     2.4469790000    -1.2326950000
   11      C      -1.3464670000     0.7923930000     0.4327250000
   12      C      -2.5645070000     1.3687850000     0.8039300000
   13      C      -3.7290520000     0.6114210000     0.8447230000
   14      C      -3.6673900000    -0.7477780000     0.4823440000
   15      C      -2.4661830000    -1.3262780000     0.1213120000
   16      C      -1.2560210000    -0.5859200000     0.1011220000
   17      H       2.3689760000    -2.4038670000    -0.1510960000
   18      H       4.5554010000    -1.4051320000     0.4788090000
   19      H       4.6850230000     1.0091390000     1.1208480000
   20      H       2.6242680000     2.3957250000     1.0373940000
   21      H      -2.5927190000     2.4274510000     1.0458100000
   22      H      -4.6699700000     1.0661780000     1.1354930000
   23      H      -4.5719050000    -1.3493790000     0.4925720000
   24      H      -2.3997830000    -2.3746930000    -0.1441140000
 ----------------------------------------------------------------

    9   -1049.1230407230      4.01e-06  Convergence criterion met
 Total energy in the final basis set =    -1049.1230407230

                    Orbital Energies (a.u.)
 --------------------------------------------------------------

 Alpha MOs
 -- Occupied --
-88.9461 -19.0841 -19.0683 -10.2155 -10.1974 -10.1974 -10.1817 -10.1817
-10.1808 -10.1808 -10.1749 -10.1749 -10.1721 -10.1721 -10.1700 -10.1700
 -8.0221  -5.9850  -5.9836  -5.9780  -1.0081  -0.9937  -0.8685  -0.8574
 -0.7907  -0.7652  -0.7549  -0.7450  -0.6947  -0.6464  -0.6189  -0.5941
 -0.5845  -0.5448  -0.5300  -0.4882  -0.4662  -0.4639  -0.4595  -0.4395
 -0.4292  -0.4261  -0.4189  -0.4173  -0.4029  -0.3838  -0.3762  -0.3745
 -0.3530  -0.3508  -0.3496  -0.3438  -0.2829  -0.2742  -0.2613  -0.2608
 -0.2535  -0.2403  -0.2385  -0.1338

 Beta MOs
 -- Occupied --
-88.9461 -19.0831 -19.0620 -10.2122 -10.1959 -10.1959 -10.1824 -10.1824
-10.1806 -10.1806 -10.1752 -10.1752 -10.1704 -10.1704 -10.1690 -10.1690
 -8.0221  -5.9850  -5.9836  -5.9781  -1.0052  -0.9821  -0.8659  -0.8557
 -0.7877  -0.7612  -0.7532  -0.7425  -0.6915  -0.6419  -0.6159  -0.5931
 -0.5819  -0.5419  -0.5285  -0.4857  -0.4650  -0.4617  -0.4587  -0.4373
 -0.4286  -0.4234  -0.4156  -0.4104  -0.3979  -0.3770  -0.3719  -0.3704
 -0.3521  -0.3491  -0.3433  -0.3325  -0.2810  -0.2661  -0.2560  -0.2471
 -0.2442  -0.2373  -0.2345

          Ground-State Mulliken Net Atomic Charges

     Atom                 Charge (a.u.)    Spin (a.u.)
  --------------------------------------------------------
      1 O                    -0.515517       0.242283
      2 C                    -0.046311       0.212771
      3 C                     1.375380      -0.017215
      4 C                     0.148330       0.115732
      5 C                    -0.592403      -0.023158
      6 C                    -0.176594       0.134726
      7 C                    -0.279462      -0.047325
      8 C                    -1.138300       0.100640
      9 S                    -0.188053       0.041889
     10 O                    -0.511700       0.000492
     11 C                    -1.139329       0.100600
     12 C                    -0.279429      -0.047328
     13 C                    -0.176518       0.134748
     14 C                    -0.592284      -0.023165
     15 C                     0.148176       0.115741
     16 C                     1.375255      -0.017222
     17 H                     0.190808      -0.006882
     18 H                     0.195682       0.000797
     19 H                     0.200313      -0.009330
     20 H                     0.207579       0.003310
     21 H                     0.207581       0.003311
     22 H                     0.200343      -0.009331
     23 H                     0.195679       0.000797
     24 H                     0.190773      -0.006881
  --------------------------------------------------------
  Sum of atomic charges =    -1.000000

                    Cartesian Multipole Moments
 -----------------------------------------------------------------
    Charge (ESU x 10^10)
                -4.8032
    Dipole Moment (Debye)
         X       0.0184      Y       1.3800      Z       5.2548
       Tot       5.4330
    Quadrupole Moments (Debye-Ang)
        XX     -92.5361     XY      -0.2061     YY    -128.4669
        XZ       0.0122     YZ       8.0061     ZZ    -114.0673

 Total job time:  60.83s(wall), 364.78s(cpu)
        *  Thank you very much for using Q-Chem.  Have a nice day.  *
