 Gaussian 16, Revision A.03,
 Gaussian 16:  ES64L-G16RevA.03 25-Dec-2016

 --------------------------------------
 #P UB3LYP/6-311++G(d,p) nosym opt freq
 --------------------------------------

 -------
 Radical
 -------
 Symbolic Z-matrix:
 Charge = -1 Multiplicity = 2

 SCF Done:  E(UB3LYP) =  -1049.03722621     A.U. after   24 cycles
 Optimization completed.
    -- Stationary point found.
 Normal termination of Gaussian 16 at Tue Jan  9 20:33:26 2024.

 ----------------------------------------------------------------------
 #P Geom=AllCheck Guess=TCheck SCRF=Check GenChk UB3LYP/6-311++G(d,p) F
 req
 ----------------------------------------------------------------------

 Structure from the checkpoint file:  "338-rad.chk"
 -------
 Radical
 -------
 Charge = -1 Multiplicity = 2

                          Input orientation:
 ---------------------------------------------------------------------
 Center     Atomic      Atomic             Coordinates (Angstroms)
 Number     Number       Type             X           Y           Z
 ---------------------------------------------------------------------
      1          8           0       -0.016551   -2.510093   -0.525508
      2          6           0       -0.008708   -1.294352   -0.171851
      3          6           0        1.247946   -0.601171    0.097322
      4          6           0        2.448996   -1.356299    0.113955
      5          6           0        3.658287   -0.792512    0.471200
      6          6           0        3.737697    0.565905    0.833118
      7          6           0        2.582393    1.337447    0.795794
      8          6           0        1.356239    0.775957    0.428466
      9         16           0        0.011632    1.950092    0.216780
     10          8           0        0.012397    2.446979   -1.232695
     11          6           0       -1.346467    0.792393    0.432725
     12          6           0       -2.564507    1.368785    0.803930
     13          6           0       -3.729052    0.611421    0.844723
     14          6           0       -3.667390   -0.747778    0.482344
     15          6           0       -2.466183   -1.326278    0.121312
     16          6           0       -1.256021   -0.585920    0.101122
     17          1           0        2.368976   -2.403867   -0.151096
     18          1           0        4.555401   -1.405132    0.478809
     19          1           0        4.685023    1.009139    1.120848
     20          1           0        2.624268    2.395725    1.037394
     21          1           0       -2.592719    2.427451    1.045810
     22          1           0       -4.669970    1.066178    1.135493
     23          1           0       -4.571905   -1.349379    0.492572
     24          1           0       -2.399783   -2.374693   -0.144114
 ---------------------------------------------------------------------

 SCF Done:  E(UB3LYP) =  -1049.03722621     A.U. after    2 cycles

 Alpha  occ. eigenvalues --  -88.81870 -18.94679 -18.93679 -10.08677 -10.07484
 Alpha  occ. eigenvalues --  -10.07484 -10.06758 -10.06758 -10.06268 -10.06268
 Alpha  occ. eigenvalues --  -10.06061 -10.06061 -10.05798 -10.05797 -10.05203
 Alpha  occ. eigenvalues --  -10.05203  -7.89451  -5.85704  -5.85620  -5.85063
 Alpha  occ. eigenvalues --   -0.87159  -0.86063  -0.74774  -0.73962  -0.67083
 Alpha  occ. eigenvalues --   -0.64487  -0.63753  -0.62790  -0.57310  -0.52869
 Alpha  occ. eigenvalues --   -0.50215  -0.47816  -0.46427  -0.42900  -0.41354
 Alpha  occ. eigenvalues --   -0.36997  -0.35098  -0.34954  -0.34337  -0.31889
 Alpha  occ. eigenvalues --   -0.31322  -0.29985  -0.29881  -0.29102  -0.27755
 Alpha  occ. eigenvalues --   -0.26341  -0.25584  -0.25023  -0.23869  -0.23229
 Alpha  occ. eigenvalues --   -0.22736  -0.22123  -0.15320  -0.15231  -0.13991
 Alpha  occ. eigenvalues --   -0.13848  -0.12926  -0.10673  -0.10299  -0.00744
 Alpha virt. eigenvalues --    0.07927   0.08100   0.08170   0.08853   0.09696
 Alpha virt. eigenvalues --    0.10044   0.10531   0.11035   0.12142   0.12812
 Alpha virt. eigenvalues --    0.14078   0.14577   0.15488   0.15738   0.15808

  Beta  occ. eigenvalues --  -88.81873 -18.94579 -18.92948 -10.08433 -10.07345
  Beta  occ. eigenvalues --  -10.07345 -10.06825 -10.06825 -10.06286 -10.06286
  Beta  occ. eigenvalues --  -10.05891 -10.05891 -10.05739 -10.05738 -10.05124
  Beta  occ. eigenvalues --  -10.05123  -7.89450  -5.85707  -5.85623  -5.85069
  Beta  occ. eigenvalues --   -0.86876  -0.84792  -0.74509  -0.73794  -0.66766
  Beta  occ. eigenvalues --   -0.64118  -0.63603  -0.62523  -0.56984  -0.52468
  Beta  occ. eigenvalues --   -0.49913  -0.47725  -0.46194  -0.42633  -0.41219
  Beta  occ. eigenvalues --   -0.36761  -0.34981  -0.34752  -0.34244  -0.31772
  Beta  occ. eigenvalues --   -0.31276  -0.29712  -0.29700  -0.28265  -0.27391
  Beta  occ. eigenvalues --   -0.26053  -0.25170  -0.24229  -0.23784  -0.23044
  Beta  occ. eigenvalues --   -0.22126  -0.20724  -0.15021  -0.14540  -0.13424
  Beta  occ. eigenvalues --   -0.12465  -0.11739  -0.10190  -0.10001
  Beta virt. eigenvalues --    0.05104   0.07974   0.08094   0.08393   0.09684
  Beta virt. eigenvalues --    0.10006   0.10109   0.10867   0.11038   0.12138
  Beta virt. eigenvalues --    0.12804   0.14229   0.14569   0.15521   0.15839

 Mulliken charges and spin densities:
               1          2
     1  O   -0.382154   0.277886
     2  C   -0.211795   0.147291
     3  C    1.537207   0.012253
     4  C    0.152349   0.097355
     5  C   -0.544985  -0.012840
     6  C   -0.077847   0.134805
     7  C   -0.271273  -0.048721
     8  C   -1.159781   0.096788
     9  S   -0.424767   0.040472
    10  O   -0.388558  -0.000403
    11  C   -1.160000   0.096778
    12  C   -0.271177  -0.048730
    13  C   -0.077858   0.134841
    14  C   -0.544819  -0.012847
    15  C    0.152214   0.097370
    16  C    1.537422   0.012289
    17  H    0.181090  -0.006514
    18  H    0.121106   0.000460
    19  H    0.123956  -0.010252
    20  H    0.141762   0.004014
    21  H    0.141764   0.004016
    22  H    0.123959  -0.010254
    23  H    0.121106   0.000460
    24  H    0.181079  -0.006515
 Sum of Mulliken charges =  -1.00000   1.00000

 Dipole moment (field-independent basis, Debye):
    X=              0.0094    Y=              0.3496    Z=              2.9623  Tot=              2.9828
 Quadrupole moment (field-independent basis, Debye-Ang):
   XX=           -111.9831   YY=           -127.3101   ZZ=           -114.5472
   XY=             -0.0840   XZ=              0.0294   YZ=              5.7617

  Exact polarizability: 355.618  -0.901 204.697  -0.281  13.719 118.814
 Approx polarizability: 551.661  -1.089 366.188  -0.354  30.985 200.744

                      1                      2                      3
                      A                      A                      A
 Frequencies --     45.6436               102.8567               119.4176
 Red. masses --      7.1367                 4.0911                 6.5312
 Frc consts  --      0.0088                 0.0255                 0.0549
 IR Inten    --      3.9058                 1.7781                 3.6261

                      4                      5                      6
                      A                      A                      A
 Frequencies --    152.4390               162.4103               225.6735
 Red. masses --      6.3717                 7.4317                 5.1679
 Frc consts  --      0.0872                 0.1155                 0.1551
 IR Inten    --      1.3763                 0.6829                 0.3860

                      7                      8                      9
                      A                      A                      A
 Frequencies --    281.7172               307.6399               308.6631
 Red. masses --      6.1859                 8.1018                 6.6801
 Frc consts  --      0.2893                 0.4518                 0.3750
 IR Inten    --      0.0287                 1.4604                 0.0365

                     10                     11                     12
                      A                      A                      A
 Frequencies --    344.2707               405.9757               407.9813
 Red. masses --      6.7999                 3.6632                 9.1954
 Frc consts  --      0.4748                 0.3557                 0.9018
 IR Inten    --      0.9499                 1.0997                 3.8390

                     13                     14                     15
                      A                      A                      A
 Frequencies --    447.5726               459.8063               465.3456
 Red. masses --      4.9933                12.1563                 4.9702
 Frc consts  --      0.5893                 1.5143                 0.6341
 IR Inten    --      0.4972                25.2038                 0.4493

                     16                     17                     18
                      A                      A                      A
 Frequencies --    504.7031               538.1623               592.6875
 Red. masses --      4.5191                 5.4614                 7.0313
 Frc consts  --      0.6782                 0.9319                 1.4553
 IR Inten    --      0.2297                20.8999                 1.2052

                     19                     20                     21
                      A                      A                      A
 Frequencies --    635.3147               639.6816               674.2925
 Red. masses --      6.9410                 3.9071                 6.2892
 Frc consts  --      1.6506                 0.9420                 1.6848
 IR Inten    --      0.8455                31.4404                 4.1334

                     22                     23                     24
                      A                      A                      A
 Frequencies --    717.2721               729.6070               731.6212
 Red. masses --      5.6015                 4.2298                 1.4323
 Frc consts  --      1.6979                 1.3266                 0.4517
 IR Inten    --      1.5828                 1.5197                91.6957

                     25                     26                     27
                      A                      A                      A
 Frequencies --    734.6648               771.1482               777.1568
 Red. masses --      1.3222                 4.6821                 3.9259
 Frc consts  --      0.4205                 1.6405                 1.3970
 IR Inten    --      2.3701                 7.6191                 7.3579

                     28                     29                     30
                      A                      A                      A
 Frequencies --    855.3488               860.8479               927.5992
 Red. masses --      1.3768                 1.5467                 1.3205
 Frc consts  --      0.5935                 0.6753                 0.6695
 IR Inten    --      0.1237                 7.3485                 0.2905

                     31                     32                     33
                      A                      A                      A
 Frequencies --    929.7638               933.1648               965.4900
 Red. masses --      1.3274                 6.7538                18.7324
 Frc consts  --      0.6761                 3.4651                10.2882
 IR Inten    --      3.1354                 0.3857               193.9920

                     34                     35                     36
                      A                      A                      A
 Frequencies --    982.7422               983.8465              1022.6309
 Red. masses --      1.2967                 1.3092                 5.4909
 Frc consts  --      0.7378                 0.7466                 3.3832
 IR Inten    --      0.0481                 2.6565               232.3593

                     37                     38                     39
                      A                      A                      A
 Frequencies --   1037.5343              1053.3211              1063.4778
 Red. masses --      2.8027                 2.0494                 4.0348
 Frc consts  --      1.7776                 1.3397                 2.6886
 IR Inten    --      6.2920                 0.0456                13.1674

                     40                     41                     42
                      A                      A                      A
 Frequencies --   1110.4267              1127.2625              1164.4766
 Red. masses --      1.7743                 1.7491                 1.1662
 Frc consts  --      1.2890                 1.3095                 0.9317
 IR Inten    --     60.0478                28.8810                10.4321

                     43                     44                     45
                      A                      A                      A
 Frequencies --   1166.6905              1196.5867              1240.0936
 Red. masses --      1.1389                 2.6411                 1.5959
 Frc consts  --      0.9133                 2.2280                 1.4460
 IR Inten    --      2.1065                 0.6236                 1.5334

                     46                     47                     48
                      A                      A                      A
 Frequencies --   1265.0839              1296.6003              1339.8477
 Red. masses --      1.6949                 3.9137                 7.2481
 Frc consts  --      1.5982                 3.8766                 7.6663
 IR Inten    --      3.0088               208.1789                44.6337

                     49                     50                     51
                      A                      A                      A
 Frequencies --   1346.0800              1438.8971              1443.0989
 Red. masses --      7.9621                 2.5084                 2.1897
 Frc consts  --      8.5000                 3.0599                 2.6867
 IR Inten    --      2.5689                80.5759               205.4243

                     52                     53                     54
                      A                      A                      A
 Frequencies --   1461.3411              1474.2519              1507.1498
 Red. masses --      2.3875                 2.5376                 4.3634
 Frc consts  --      3.0040                 3.2495                 5.8396
 IR Inten    --     25.6520                72.7848               153.3387

                     55                     56                     57
                      A                      A                      A
 Frequencies --   1543.5139              1567.7030              1594.6082
 Red. masses --      4.5874                 6.3199                 4.9361
 Frc consts  --      6.4393                 9.1513                 7.3951
 IR Inten    --     30.9515                14.5014               232.9220

                     58                     59                     60
                      A                      A                      A
 Frequencies --   1622.5118              3136.2962              3136.3612
 Red. masses --      6.0876                 1.0846                 1.0846
 Frc consts  --      9.4421                 6.2858                 6.2858
 IR Inten    --      2.3447                25.2940                10.7650

                     61                     62                     63
                      A                      A                      A
 Frequencies --   3145.1291              3145.1980              3167.9357
 Red. masses --      1.0889                 1.0888                 1.0946
 Frc consts  --      6.3464                 6.3461                 6.4722
 IR Inten    --     34.8481                 8.3409                77.1645

                     64                     65                     66
                      A                      A                      A
 Frequencies --   3168.2291              3187.7718              3188.2100
 Red. masses --      1.0946                 1.0915                 1.0917
 Frc consts  --      6.4732                 6.5351                 6.5383
 IR Inten    --     17.0843                23.9986                 5.3806

 - Thermochemistry -
 -------------------
 Temperature   298.150 Kelvin.  Pressure   1.00000 Atm.
 Atom     1 has atomic number  8 and mass  15.99491

 Molecular mass:   228.02450 amu.
 Principal axes and moments of inertia in atomic units:
                           1         2         3
     Eigenvalues --  1998.496304359.541465874.91426
           X            0.99998   0.00617   0.00128
           Y           -0.00611   0.99907  -0.04271
           Z           -0.00154   0.04271   0.99909
 This molecule is an asymmetric top.
 Rotational symmetry number  1.
 Warning -- assumption of classical behavior for rotation
           may cause significant error
 Rotational temperatures (Kelvin)      0.04334     0.01987     0.01474
 Rotational constants (GHZ):           0.90305     0.41398     0.30719
 Zero-point vibrational energy     449083.2 (Joules/Mol)
                                  107.33346 (Kcal/Mol)
 Warning -- explicit consideration of  18 degrees of freedom as
           vibrations may cause significant error
 Vibrational temperatures:     65.67   147.99   171.82   219.33   233.67
          (Kelvin)            324.69   405.33   442.63   444.10   495.33
                              584.11   586.99   643.96   661.56   669.53
                              726.16   774.30   852.75   914.08   920.36
                              970.16  1031.99  1049.74  1052.64  1057.02
                             1109.51  1118.16  1230.66  1238.57  1334.61
                             1337.72  1342.62  1389.12  1413.95  1415.54
                             1471.34  1492.78  1515.49  1530.11  1597.66
                             1621.88  1675.42  1678.61  1721.62  1784.22
                             1820.17  1865.52  1927.74  1936.71  2070.25
                             2076.30  2102.54  2121.12  2168.45  2220.77
                             2255.57  2294.29  2334.43  4512.43  4512.52
                             4525.14  4525.24  4557.95  4558.38  4586.49
                             4587.12

 Zero-point correction=                           0.171047 (Hartree/Particle)
 Thermal correction to Energy=                    0.183226
 Thermal correction to Enthalpy=                  0.184170
 Thermal correction to Gibbs Free Energy=         0.131781
 Sum of electronic and zero-point Energies=          -1048.866179
 Sum of electronic and thermal Energies=             -1048.854000
 Sum of electronic and thermal Enthalpies=           -1048.853056
 Sum of electronic and thermal Free Energies=        -1048.905446

                     E (Thermal)             CV                S
                      KCal/Mol        Cal/Mol-Kelvin    Cal/Mol-Kelvin
 Total                  114.976             49.326            110.263
 Electronic               0.000              0.000              1.377
 Translational            0.889              2.981             42.175
 Rotational               0.889              2.981             32.304
 Vibrational            113.199             43.365             34.407
 Vibration     1          0.595              1.979              4.998
 Vibration     2          0.605              1.947              3.399
 Vibration     3          0.609              1.933              3.110
 Vibration     4          0.619              1.900              2.642
 Vibration     5          0.623              1.889              2.522
 Vibration     6          0.650              1.802              1.913
 Vibration     7          0.681              1.707              1.523
 Vibration     8          0.698              1.659              1.375
 Vibration     9          0.698              1.657              1.369
 Vibration    10          0.723              1.587              1.192
 Vibration    11          0.771              1.457              0.941
 Vibration    12          0.773              1.453              0.934
 Vibration    13          0.807              1.366              0.803
 Vibration    14          0.818              1.339              0.767
 Vibration    15          0.823              1.327              0.751
 Vibration    16          0.860              1.240              0.646
 Vibration    17          0.893              1.166              0.569
 Vibration    18          0.950              1.047              0.462

 Optimization completed.
    -- Stationary point found.
 Normal termination of Gaussian 16 at Tue Jan  9 21:09:27 2024.
