 Q-Chem 5.4, Q-Chem, Inc., Pleasanton, CA (2021)
 Q-Chem 5.4.0 for Intel X86 EM64T Linux

User input:
--------------------------------------------------------------
$molecule
-2 1
C                  1.0440440000      1.1929830000      1.4438280000
C                 -0.1156830000      0.3524970000      1.4453120000
C                 -0.2976900000     -0.7224420000      0.5842310000
C                  0.7019840000     -1.0788980000     -0.3937000000
C                  1.8781140000     -0.2366090000     -0.4168860000
C                  2.0441850000      0.8430750000      0.4544030000
C                  3.2873640000      1.6995390000      0.4030120000
C                  2.9475000000     -0.5896870000     -1.4247260000
O                  1.1875720000      2.1834450000      2.2601780000
O                  0.5514970000     -2.0913770000     -1.1818800000
C                 -1.5333720000     -1.5983910000      0.6780780000
C                 -2.5342600000     -1.3716770000     -0.4287800000
C                 -3.8613860000     -1.1912620000     -0.3417610000
C                 -4.6536710000     -1.1521370000      0.9437990000
C                 -4.7092610000     -0.9788650000     -1.5769440000
H                 -0.8887080000      0.5989290000      2.1728700000
H                  3.4220380000      2.1839370000     -0.5770520000
H                  4.2056210000      1.1205520000      0.5886260000
H                  3.2012320000      2.4750390000      1.1681340000
H                  2.6105530000     -1.4570730000     -1.9971800000
H                  3.9086920000     -0.8362120000     -0.9461300000
H                  3.1540320000      0.2363090000     -2.1223430000
H                 -2.0005350000     -1.4657050000      1.6593540000
H                 -1.2029580000     -2.6456970000      0.5989150000
H                 -2.0812990000     -1.3831670000     -1.4177020000
H                 -4.0384090000     -1.3107410000      1.8306160000
H                 -5.4443220000     -1.9148250000      0.9420770000
H                 -5.1672130000     -0.1852800000      1.0552780000
H                 -4.1108430000     -1.0074800000     -2.4915090000
H                 -5.2331230000     -0.0107610000     -1.5420110000
H                 -5.4973560000     -1.7404880000     -1.6633570000
$end
$rem
MAX_SCF_CYCLES=200
BASIS  =  6-311++G(d,p)
GUI  =  2
JOB_TYPE  =  SP
METHOD  =  B3LYP
SOLVENT_METHOD = PCM
$end
$pcm
theory = CPCM
$end
$solvent
dielectric 37.219
opticaldielectric 1.43
$end

--------------------------------------------------------------

             Standard Nuclear Orientation (Angstroms)
    I     Atom           X                Y                Z
 ----------------------------------------------------------------
    1      C       1.0440440000     1.1929830000     1.4438280000
    2      C      -0.1156830000     0.3524970000     1.4453120000
    3      C      -0.2976900000    -0.7224420000     0.5842310000
    4      C       0.7019840000    -1.0788980000    -0.3937000000
    5      C       1.8781140000    -0.2366090000    -0.4168860000
    6      C       2.0441850000     0.8430750000     0.4544030000
    7      C       3.2873640000     1.6995390000     0.4030120000
    8      C       2.9475000000    -0.5896870000    -1.4247260000
    9      O       1.1875720000     2.1834450000     2.2601780000
   10      O       0.5514970000    -2.0913770000    -1.1818800000
   11      C      -1.5333720000    -1.5983910000     0.6780780000
   12      C      -2.5342600000    -1.3716770000    -0.4287800000
   13      C      -3.8613860000    -1.1912620000    -0.3417610000
   14      C      -4.6536710000    -1.1521370000     0.9437990000
   15      C      -4.7092610000    -0.9788650000    -1.5769440000
   16      H      -0.8887080000     0.5989290000     2.1728700000
   17      H       3.4220380000     2.1839370000    -0.5770520000
   18      H       4.2056210000     1.1205520000     0.5886260000
   19      H       3.2012320000     2.4750390000     1.1681340000
   20      H       2.6105530000    -1.4570730000    -1.9971800000
   21      H       3.9086920000    -0.8362120000    -0.9461300000
   22      H       3.1540320000     0.2363090000    -2.1223430000
   23      H      -2.0005350000    -1.4657050000     1.6593540000
   24      H      -1.2029580000    -2.6456970000     0.5989150000
   25      H      -2.0812990000    -1.3831670000    -1.4177020000
   26      H      -4.0384090000    -1.3107410000     1.8306160000
   27      H      -5.4443220000    -1.9148250000     0.9420770000
   28      H      -5.1672130000    -0.1852800000     1.0552780000
   29      H      -4.1108430000    -1.0074800000    -2.4915090000
   30      H      -5.2331230000    -0.0107610000    -1.5420110000
   31      H      -5.4973560000    -1.7404880000    -1.6633570000
 ----------------------------------------------------------------

    9    -655.8719479472      8.62e-06  Convergence criterion met
 Total energy in the final basis set =     -655.8719479472

                    Orbital Energies (a.u.)
 --------------------------------------------------------------

 Alpha MOs
 -- Occupied --
-19.0082 -19.0069 -10.1617 -10.1570 -10.1546 -10.1512 -10.1511 -10.1448
-10.1429 -10.1307 -10.1306 -10.1186 -10.1181 -10.1168 -10.1084  -0.9254
 -0.9223  -0.8007  -0.7787  -0.7482  -0.6995  -0.6905  -0.6795  -0.6383
 -0.6194  -0.5903  -0.5204  -0.5060  -0.4926  -0.4550  -0.4383  -0.4228
 -0.4193  -0.4069  -0.4002  -0.3830  -0.3752  -0.3723  -0.3678  -0.3613
 -0.3575  -0.3571  -0.3491  -0.3462  -0.3370  -0.3263  -0.3132  -0.3029
 -0.3000  -0.2956  -0.2252  -0.2140  -0.1926  -0.1910  -0.1834  -0.1058

          Ground-State Mulliken Net Atomic Charges

     Atom                 Charge (a.u.)
  ----------------------------------------
      1 C                    -0.868583
      2 C                    -0.081563
      3 C                     0.874568
      4 C                    -1.163692
      5 C                     0.154953
      6 C                     0.603285
      7 C                    -0.518924
      8 C                    -0.551308
      9 O                    -0.760911
     10 O                    -0.742536
     11 C                     0.139777
     12 C                    -0.694830
     13 C                     0.598417
     14 C                    -0.678439
     15 C                    -0.662758
     16 H                     0.131690
     17 H                     0.132545
     18 H                     0.131998
     19 H                     0.157165
     20 H                     0.162291
     21 H                     0.132326
     22 H                     0.133779
     23 H                     0.159694
     24 H                     0.144930
     25 H                     0.179731
     26 H                     0.136483
     27 H                     0.148334
     28 H                     0.149765
     29 H                     0.159993
     30 H                     0.146360
     31 H                     0.145460
  ----------------------------------------
  Sum of atomic charges =    -2.000000

                    Cartesian Multipole Moments
 -----------------------------------------------------------------
    Charge (ESU x 10^10)
                -9.6064
    Dipole Moment (Debye)
         X      -7.8588      Y      -0.6655      Z      -5.1643
       Tot       9.4273
    Quadrupole Moments (Debye-Ang)
        XX    -111.9310     XY      -7.6715     YY    -140.7807
        XZ      -8.8654     YZ     -31.0002     ZZ    -128.9295

 Total job time:  53.11s(wall), 348.26s(cpu)
        *  Thank you very much for using Q-Chem.  Have a nice day.  *
