 Q-Chem 5.4, Q-Chem, Inc., Pleasanton, CA (2021)
 Q-Chem 5.4.0 for Intel X86 EM64T Linux

User input:
--------------------------------------------------------------
$molecule
-1 2
C                 -0.7038440000      2.7255730000      0.6437240000
C                 -1.6876530000      2.5649600000     -0.3182120000
C                 -1.4359510000      1.7861480000     -1.4590500000
C                  0.5540110000      2.1123910000      0.4889160000
C                  0.8100570000      1.3275930000     -0.6591360000
C                 -0.1983640000      1.1775630000     -1.6201560000
C                  1.5883700000      2.2799990000      1.4986290000
C                  2.8486670000      1.6260420000      1.2754020000
C                  3.1575730000      0.8336940000      0.1493310000
C                  2.1275190000      0.6456580000     -0.8890190000
O                  1.4462420000      2.9656810000      2.5598620000
O                  2.2881450000     -0.0269380000     -1.9102480000
O                  3.7455380000      1.8356020000      2.2583510000
H                 -0.8724600000      3.3212090000      1.5332350000
H                 -2.6546320000      3.0420450000     -0.1897080000
H                 -2.2067780000      1.6602500000     -2.2128570000
H                  0.0248180000      0.5707630000     -2.4899420000
H                  3.2424490000      2.4094740000      2.8785620000
N                  4.4264790000      0.3080040000      0.1518350000
N                  4.8154250000     -0.4161730000     -0.8203300000
C                  6.1426940000     -0.8800190000     -0.6650590000
C                  6.9811010000     -0.6014640000      0.4315640000
C                  6.6354960000     -1.6818790000     -1.7064000000
C                  7.9289980000     -2.1938610000     -1.6595400000
C                  8.7564600000     -1.9149320000     -0.5704810000
C                  8.2710190000     -1.1163580000      0.4708420000
H                  6.5927850000      0.0178010000      1.2302420000
H                  5.9750250000     -1.8853710000     -2.5418750000
H                  8.2935410000     -2.8122430000     -2.4740430000
H                  9.7653120000     -2.3128180000     -0.5311500000
H                  8.9095590000     -0.8954650000      1.3213580000
$end

$rem
BASIS  =  6-311++G(d,p)
GUI  =  2
JOB_TYPE  =  SP
METHOD  =  B3LYP
SCF_CONVERGENCE  = 8
SOLVENT_METHOD = sm12
$end

$smx
solvent dimethylformamide
charges CM5
$end

--------------------------------------------------------------

             Standard Nuclear Orientation (Angstroms)
    I     Atom           X                Y                Z
 ----------------------------------------------------------------
    1      C      -0.7038440000     2.7255730000     0.6437240000
    2      C      -1.6876530000     2.5649600000    -0.3182120000
    3      C      -1.4359510000     1.7861480000    -1.4590500000
    4      C       0.5540110000     2.1123910000     0.4889160000
    5      C       0.8100570000     1.3275930000    -0.6591360000
    6      C      -0.1983640000     1.1775630000    -1.6201560000
    7      C       1.5883700000     2.2799990000     1.4986290000
    8      C       2.8486670000     1.6260420000     1.2754020000
    9      C       3.1575730000     0.8336940000     0.1493310000
   10      C       2.1275190000     0.6456580000    -0.8890190000
   11      O       1.4462420000     2.9656810000     2.5598620000
   12      O       2.2881450000    -0.0269380000    -1.9102480000
   13      O       3.7455380000     1.8356020000     2.2583510000
   14      H      -0.8724600000     3.3212090000     1.5332350000
   15      H      -2.6546320000     3.0420450000    -0.1897080000
   16      H      -2.2067780000     1.6602500000    -2.2128570000
   17      H       0.0248180000     0.5707630000    -2.4899420000
   18      H       3.2424490000     2.4094740000     2.8785620000
   19      N       4.4264790000     0.3080040000     0.1518350000
   20      N       4.8154250000    -0.4161730000    -0.8203300000
   21      C       6.1426940000    -0.8800190000    -0.6650590000
   22      C       6.9811010000    -0.6014640000     0.4315640000
   23      C       6.6354960000    -1.6818790000    -1.7064000000
   24      C       7.9289980000    -2.1938610000    -1.6595400000
   25      C       8.7564600000    -1.9149320000    -0.5704810000
   26      C       8.2710190000    -1.1163580000     0.4708420000
   27      H       6.5927850000     0.0178010000     1.2302420000
   28      H       5.9750250000    -1.8853710000    -2.5418750000
   29      H       8.2935410000    -2.8122430000    -2.4740430000
   30      H       9.7653120000    -2.3128180000    -0.5311500000
   31      H       8.9095590000    -0.8954650000     1.3213580000
 ----------------------------------------------------------------

   19    -951.1842951987      9.98e-09  Convergence criterion met
 Total energy in the final basis set =     -951.2735360591

                    Orbital Energies (a.u.)
 --------------------------------------------------------------

 Alpha MOs
 -- Occupied --
-19.1562 -19.0982 -19.0919 -14.3481 -14.3377 -10.2500 -10.2423 -10.2332
-10.2070 -10.2015 -10.1915 -10.1891 -10.1877 -10.1858 -10.1852 -10.1846
-10.1840 -10.1838 -10.1835 -10.1810 -10.1794  -1.0816  -1.0305  -1.0138
 -1.0085  -0.8744  -0.8692  -0.8282  -0.7883  -0.7639  -0.7574  -0.7473
 -0.7037  -0.6704  -0.6361  -0.6221  -0.6100  -0.5906  -0.5758  -0.5501
 -0.5363  -0.5083  -0.4960  -0.4869  -0.4760  -0.4606  -0.4563  -0.4557
 -0.4421  -0.4387  -0.4307  -0.4264  -0.4220  -0.4126  -0.4019  -0.3936
 -0.3849  -0.3835  -0.3650  -0.3613  -0.3612  -0.3538  -0.3522  -0.3487
 -0.2865  -0.2731  -0.2725  -0.2680  -0.2671  -0.2652  -0.2306  -0.2099
 -0.1651

 Beta MOs
 -- Occupied --
-19.1548 -19.0910 -19.0893 -14.3483 -14.3357 -10.2496 -10.2395 -10.2309
-10.2073 -10.2013 -10.1919 -10.1881 -10.1880 -10.1854 -10.1850 -10.1847
-10.1839 -10.1834 -10.1833 -10.1806 -10.1790  -1.0775  -1.0270  -1.0103
 -0.9968  -0.8728  -0.8686  -0.8254  -0.7856  -0.7625  -0.7570  -0.7461
 -0.6973  -0.6666  -0.6345  -0.6206  -0.6087  -0.5896  -0.5737  -0.5486
 -0.5353  -0.5068  -0.4937  -0.4856  -0.4748  -0.4602  -0.4551  -0.4449
 -0.4416  -0.4383  -0.4305  -0.4215  -0.4125  -0.4100  -0.3927  -0.3921
 -0.3832  -0.3765  -0.3640  -0.3602  -0.3554  -0.3510  -0.3483  -0.3360
 -0.2789  -0.2682  -0.2660  -0.2641  -0.2608  -0.2606  -0.2200  -0.2081

          Ground-State Mulliken Net Atomic Charges

     Atom                 Charge (a.u.)    Spin (a.u.)
  --------------------------------------------------------
      1 C                     0.603529       0.081915
      2 C                     1.193189      -0.024673
      3 C                     0.672959       0.069432
      4 C                     0.545673      -0.016725
      5 C                    -1.283995       0.053433
      6 C                     0.123552      -0.022104
      7 C                    -1.063169       0.135850
      8 C                    -0.040404       0.162235
      9 C                    -0.890835       0.015503
     10 C                    -1.343173       0.015597
     11 O                    -0.325152       0.269431
     12 O                    -0.239574       0.099283
     13 O                    -0.140430       0.049175
     14 H                     0.187443      -0.005309
     15 H                     0.390889       0.001422
     16 H                     0.346333      -0.004561
     17 H                     0.187407       0.001428
     18 H                     0.338267      -0.005118
     19 N                    -0.678975      -0.034368
     20 N                     0.200940       0.122372
     21 C                    -2.933821      -0.036864
     22 C                    -0.650687       0.039177
     23 C                    -0.215372       0.032207
     24 C                     1.021237      -0.013310
     25 C                     1.021588       0.035222
     26 C                     0.586051      -0.015842
     27 H                     0.150628      -0.002234
     28 H                     0.176526      -0.002032
     29 H                     0.373167       0.000824
     30 H                     0.357673      -0.002224
     31 H                     0.328536       0.000859
  --------------------------------------------------------
  Sum of atomic charges =    -1.000000

                    Cartesian Multipole Moments
 -----------------------------------------------------------------
    Charge (ESU x 10^10)
                -4.8032
    Dipole Moment (Debye)
         X     -14.7220      Y      -4.1860      Z      -0.7105
       Tot      15.3221
    Quadrupole Moments (Debye-Ang)
        XX    -174.4082     XY      -8.9028     YY    -139.7187
        XZ       4.3539     YZ      -9.8399     ZZ    -139.9538

 Total job time:  1028.65s(wall), 7682.57s(cpu)
        *  Thank you very much for using Q-Chem.  Have a nice day.  *
