 Gaussian 16, Revision A.03,
 Gaussian 16:  ES64L-G16RevA.03 25-Dec-2016

 ---------------------------------------------------------
 #P UB3LYP/genecp SCRF=(PCM,Solvent=n,n-DiMethylFormamide)
 ---------------------------------------------------------

 -------
 Reduced
 -------
 Symbolic Z-matrix:
 Charge = -2 Multiplicity = 1

                         Standard orientation:
 ---------------------------------------------------------------------
 Center     Atomic      Atomic             Coordinates (Angstroms)
 Number     Number       Type             X           Y           Z
 ---------------------------------------------------------------------
      1         53           0       -3.049390   -0.603663   -0.000032
      2          6           0       -1.152384    0.457256    0.000075
      3          6           0       -1.194886    1.849401    0.000006
      4          6           0        0.000098    2.645076   -0.000013
      5          8           0       -0.000205    3.938834   -0.000019
      6          6           0        1.194900    1.849618    0.000064
      7          6           0        1.152531    0.457125    0.000140
      8         53           0        3.049380   -0.603646   -0.000038
      9          6           0        0.000138   -0.399360    0.000114
     10          8           0       -0.000064   -1.677434    0.000194
     11          1           0       -2.145623    2.370900   -0.000025
     12          1           0        2.145931    2.370560    0.000052
 ---------------------------------------------------------------------

 SCF Done:  E(UB3LYP) =  -976.241229963     A.U. after   17 cycles

 The electronic state is 1-A.
 Alpha  occ. eigenvalues --  -19.02979 -19.02294 -10.19661 -10.18450 -10.18303
 Alpha  occ. eigenvalues --  -10.18299 -10.13894 -10.13891  -6.81902  -6.81902
 Alpha  occ. eigenvalues --   -4.84207  -4.84207  -4.83258  -4.83257  -4.83214
 Alpha  occ. eigenvalues --   -4.83213  -1.89020  -1.89020  -1.88713  -1.88713
 Alpha  occ. eigenvalues --   -1.88682  -1.88682  -1.87864  -1.87863  -1.87863
 Alpha  occ. eigenvalues --   -1.87862  -0.95089  -0.93583  -0.80360  -0.73416
 Alpha  occ. eigenvalues --   -0.68523  -0.65546  -0.65271  -0.54819  -0.53137
 Alpha  occ. eigenvalues --   -0.44852  -0.44438  -0.37830  -0.37669  -0.37094
 Alpha  occ. eigenvalues --   -0.36936  -0.33210  -0.32590  -0.30278  -0.28098
 Alpha  occ. eigenvalues --   -0.25995  -0.24759  -0.24697  -0.22994  -0.21146
 Alpha  occ. eigenvalues --   -0.20852  -0.20184  -0.13191
 Alpha virt. eigenvalues --   -0.03442   0.00474   0.00541   0.00645   0.02338
 Alpha virt. eigenvalues --    0.03315   0.05581   0.06002   0.06646   0.06718
 Alpha virt. eigenvalues --    0.07236   0.09157   0.10276   0.10335   0.11708

  Beta  occ. eigenvalues --  -19.02979 -19.02294 -10.19661 -10.18450 -10.18303
  Beta  occ. eigenvalues --  -10.18299 -10.13894 -10.13891  -6.81902  -6.81902
  Beta  occ. eigenvalues --   -4.84207  -4.84207  -4.83258  -4.83257  -4.83214
  Beta  occ. eigenvalues --   -4.83213  -1.89020  -1.89020  -1.88713  -1.88713
  Beta  occ. eigenvalues --   -1.88682  -1.88682  -1.87864  -1.87863  -1.87863
  Beta  occ. eigenvalues --   -1.87862  -0.95089  -0.93583  -0.80360  -0.73416
  Beta  occ. eigenvalues --   -0.68523  -0.65546  -0.65271  -0.54819  -0.53137
  Beta  occ. eigenvalues --   -0.44852  -0.44438  -0.37830  -0.37669  -0.37094
  Beta  occ. eigenvalues --   -0.36936  -0.33210  -0.32590  -0.30278  -0.28098
  Beta  occ. eigenvalues --   -0.25995  -0.24759  -0.24697  -0.22994  -0.21146
  Beta  occ. eigenvalues --   -0.20852  -0.20184  -0.13191
  Beta virt. eigenvalues --   -0.03442   0.00474   0.00541   0.00645   0.02338
  Beta virt. eigenvalues --    0.03315   0.05581   0.06002   0.06646   0.06718
  Beta virt. eigenvalues --    0.07236   0.09157   0.10276   0.10335   0.11708

 Mulliken charges and spin densities:
               1          2
     1  I   -0.243450   0.000000
     2  C    1.401066  -0.000000
     3  C   -0.526155  -0.000000
     4  C   -0.170905   0.000000
     5  O   -0.712671  -0.000000
     6  C   -0.525488   0.000000
     7  C    1.401298  -0.000000
     8  I   -0.243401   0.000000
     9  C   -2.063981   0.000000
    10  O   -0.558447  -0.000000
    11  H    0.121103  -0.000000
    12  H    0.121029   0.000000
 Sum of Mulliken charges =  -2.00000   0.00000

 Dipole moment (field-independent basis, Debye):
    X=             -0.0002    Y=             -8.0735    Z=             -0.0006  Tot=              8.0735
 Quadrupole moment (field-independent basis, Debye-Ang):
   XX=           -128.7278   YY=           -177.5458   ZZ=           -109.6146
   XY=             -0.0017   XZ=             -0.0002   YZ=              0.0015

 Normal termination of Gaussian 16 at Mon Jan 22 18:30:42 2024.
