 Gaussian 16, Revision A.03,
 Gaussian 16:  ES64L-G16RevA.03 25-Dec-2016

 -------------------------------
 #P UB3LYP/genecp nosym opt freq
 -------------------------------

 -------
 Reduced
 -------
 Symbolic Z-matrix:
 Charge = -2 Multiplicity = 1

 SCF Done:  E(UB3LYP) =  -975.974264148     A.U. after   18 cycles
 Optimization completed.
    -- Stationary point found.
 Normal termination of Gaussian 16 at Sat Jan  6 19:52:28 2024.

 ------------------------------------------------------------------
 #P Geom=AllCheck Guess=TCheck SCRF=Check GenChk UB3LYP/GenECP Freq
 ------------------------------------------------------------------

 Structure from the checkpoint file:  "013-an.chk"
 -------
 Reduced
 -------
 Charge = -2 Multiplicity = 1

                          Input orientation:
 ---------------------------------------------------------------------
 Center     Atomic      Atomic             Coordinates (Angstroms)
 Number     Number       Type             X           Y           Z
 ---------------------------------------------------------------------
      1         53           0       -2.803419   -2.046830    0.003836
      2          6           0       -1.063332   -0.744420    0.001146
      3          6           0       -1.289466    0.629781   -0.016388
      4          6           0       -0.210165    1.576450   -0.019746
      5          8           0       -0.381468    2.858717   -0.035770
      6          6           0        1.079264    0.946047   -0.003311
      7          6           0        1.221320   -0.439724    0.013773
      8         53           0        3.241688   -1.240249    0.037063
      9          6           0        0.192273   -1.441033    0.018070
     10          8           0        0.361001   -2.707820    0.033972
     11          1           0       -2.300767    1.020929   -0.028056
     12          1           0        1.953071    1.588152   -0.004589
 ---------------------------------------------------------------------

 SCF Done:  E(UB3LYP) =  -975.974264148     A.U. after    2 cycles

 Alpha  occ. eigenvalues --  -18.76780 -18.75899  -9.94256  -9.93399  -9.93395
 Alpha  occ. eigenvalues --   -9.92809  -9.88753  -9.88750  -6.58144  -6.58144
 Alpha  occ. eigenvalues --   -4.60395  -4.60394  -4.59529  -4.59529  -4.59485
 Alpha  occ. eigenvalues --   -4.59484  -1.65222  -1.65221  -1.64934  -1.64934
 Alpha  occ. eigenvalues --   -1.64901  -1.64901  -1.64150  -1.64150  -1.64150
 Alpha  occ. eigenvalues --   -1.64149  -0.68943  -0.67147  -0.55053  -0.48722
 Alpha  occ. eigenvalues --   -0.44047  -0.41147  -0.40329  -0.29817  -0.27957
 Alpha  occ. eigenvalues --   -0.19441  -0.19006  -0.12603  -0.12050  -0.11990
 Alpha  occ. eigenvalues --   -0.10840  -0.07744  -0.06304  -0.05738  -0.03835
 Alpha  occ. eigenvalues --   -0.01533  -0.00927  -0.00709   0.02654   0.03495
 Alpha  occ. eigenvalues --    0.05117   0.06254   0.12882
 Alpha virt. eigenvalues --    0.19775   0.20638   0.20916   0.23717   0.25349
 Alpha virt. eigenvalues --    0.26101   0.27677   0.28541   0.29255   0.29726
 Alpha virt. eigenvalues --    0.31849   0.32673   0.33012   0.33064   0.33428

  Beta  occ. eigenvalues --  -18.76780 -18.75899  -9.94256  -9.93399  -9.93395
  Beta  occ. eigenvalues --   -9.92809  -9.88753  -9.88750  -6.58144  -6.58144
  Beta  occ. eigenvalues --   -4.60395  -4.60394  -4.59529  -4.59529  -4.59485
  Beta  occ. eigenvalues --   -4.59484  -1.65222  -1.65221  -1.64934  -1.64934
  Beta  occ. eigenvalues --   -1.64901  -1.64901  -1.64150  -1.64150  -1.64150
  Beta  occ. eigenvalues --   -1.64149  -0.68943  -0.67147  -0.55053  -0.48722
  Beta  occ. eigenvalues --   -0.44047  -0.41147  -0.40329  -0.29817  -0.27957
  Beta  occ. eigenvalues --   -0.19441  -0.19006  -0.12603  -0.12050  -0.11990
  Beta  occ. eigenvalues --   -0.10840  -0.07744  -0.06304  -0.05738  -0.03835
  Beta  occ. eigenvalues --   -0.01533  -0.00927  -0.00709   0.02654   0.03495
  Beta  occ. eigenvalues --    0.05117   0.06254   0.12882
  Beta virt. eigenvalues --    0.19775   0.20638   0.20916   0.23717   0.25349
  Beta virt. eigenvalues --    0.26101   0.27677   0.28541   0.29255   0.29726
  Beta virt. eigenvalues --    0.31849   0.32673   0.33012   0.33064   0.33428

 Mulliken charges and spin densities:
               1          2
     1  I   -0.355234  -0.000000
     2  C    1.783910   0.000000
     3  C   -0.475684  -0.000000
     4  C   -0.452307   0.000000
     5  O   -0.587136   0.000000
     6  C   -0.474603  -0.000000
     7  C    1.783742   0.000000
     8  I   -0.355146  -0.000000
     9  C   -2.512095  -0.000000
    10  O   -0.394490   0.000000
    11  H    0.019579  -0.000000
    12  H    0.019464  -0.000000
 Sum of Mulliken charges =  -2.00000   0.00000

 Dipole moment (field-independent basis, Debye):
    X=             -0.3870    Y=              2.9041    Z=             -0.0363  Tot=              2.9300
 Quadrupole moment (field-independent basis, Debye-Ang):
   XX=           -146.6833   YY=           -169.1137   ZZ=           -110.4220
   XY=              3.0409   XZ=             -0.2909   YZ=              0.7010

  Exact polarizability: 259.074   7.599 203.322   0.965  -1.029 109.702
 Approx polarizability: 388.599   4.506 355.815   1.428  -2.017 178.759

                      1                      2                      3
                      A                      A                      A
 Frequencies --     66.5983                88.6099               136.6835
 Red. masses --     16.7303                35.9103                11.8261
 Frc consts  --      0.0437                 0.1661                 0.1302
 IR Inten    --      7.1295                 6.1486                 5.3442

                      4                      5                      6
                      A                      A                      A
 Frequencies --    170.4673               174.1255               188.6985
 Red. masses --     13.5960                 5.0501                20.1364
 Frc consts  --      0.2328                 0.0902                 0.4224
 IR Inten    --      0.8742                 0.0001                 3.5984

                      7                      8                      9
                      A                      A                      A
 Frequencies --    212.3841               274.6887               397.1895
 Red. masses --     16.4275                10.9954                 9.7797
 Frc consts  --      0.4366                 0.4888                 0.9090
 IR Inten    --      0.7426                 0.0023                 8.2526

                     10                     11                     12
                      A                      A                      A
 Frequencies --    461.8254               473.1019               558.9142
 Red. masses --      5.7628                12.5213                 1.8672
 Frc consts  --      0.7242                 1.6512                 0.3437
 IR Inten    --      0.0000                 0.0144                 5.3907

                     13                     14                     15
                      A                      A                      A
 Frequencies --    581.7293               673.5227               701.0071
 Red. masses --      6.1734                 9.1466                10.7446
 Frc consts  --      1.2309                 2.4446                 3.1109
 IR Inten    --     18.6330               101.5323                 1.7415

                     16                     17                     18
                      A                      A                      A
 Frequencies --    790.8012               799.7863               806.9302
 Red. masses --      1.2796                 9.7097                 2.0893
 Frc consts  --      0.4715                 3.6593                 0.8015
 IR Inten    --      0.0036               203.2390                29.5653

                     19                     20                     21
                      A                      A                      A
 Frequencies --    843.3622               983.7834              1063.6915
 Red. masses --      8.1358                 2.5135                 6.0565
 Frc consts  --      3.4094                 1.4333                 4.0374
 IR Inten    --      2.9701                47.4856               171.9938

                     22                     23                     24
                      A                      A                      A
 Frequencies --   1177.5742              1263.8123              1355.3760
 Red. masses --      1.8798                 1.8673                 2.9374
 Frc consts  --      1.5358                 1.7572                 3.1793
 IR Inten    --     46.7757                76.2279                 5.7422

                     25                     26                     27
                      A                      A                      A
 Frequencies --   1376.8043              1382.8858              1465.0877
 Red. masses --     11.8695                 9.8382                 6.2394
 Frc consts  --     13.2564                11.0850                 7.8908
 IR Inten    --     40.9324               139.5001              1101.1641

                     28                     29                     30
                      A                      A                      A
 Frequencies --   1582.4815              3160.3057              3162.1341
 Red. masses --      8.9428                 1.0893                 1.0882
 Frc consts  --     13.1948                 6.4099                 6.4108
 IR Inten    --     53.9251                 8.4436                35.8684

 - Thermochemistry -
 -------------------
 Temperature   298.150 Kelvin.  Pressure   1.00000 Atm.
 Atom     1 has atomic number 53 and mass 126.90040

 Molecular mass:   359.80628 amu.
 Principal axes and moments of inertia in atomic units:
                           1         2         3
     Eigenvalues --  2026.444798697.16036**********
           X            0.99120  -0.13218  -0.00704
           Y            0.13225   0.99115   0.01155
           Z            0.00545  -0.01238   0.99991
 This molecule is an asymmetric top.
 Rotational symmetry number  1.
 Warning -- assumption of classical behavior for rotation
           may cause significant error
 Rotational temperatures (Kelvin)      0.04274     0.00996     0.00808
 Rotational constants (GHZ):           0.89059     0.20751     0.16830
 Zero-point vibrational energy     157753.7 (Joules/Mol)
                                   37.70404 (Kcal/Mol)
 Warning -- explicit consideration of  13 degrees of freedom as
           vibrations may cause significant error
 Vibrational temperatures:     95.82   127.49   196.66   245.26   250.53
          (Kelvin)            271.49   305.57   395.22   571.47   664.46
                              680.69   804.15   836.98   969.05  1008.59
                             1137.79  1150.71  1160.99  1213.41  1415.44
                             1530.41  1694.27  1818.34  1950.08  1980.91
                             1989.66  2107.93  2276.84  4546.98  4549.61

 Zero-point correction=                           0.060085 (Hartree/Particle)
 Thermal correction to Energy=                    0.069763
 Thermal correction to Enthalpy=                  0.070707
 Thermal correction to Gibbs Free Energy=         0.021377
 Sum of electronic and zero-point Energies=           -975.914179
 Sum of electronic and thermal Energies=              -975.904501
 Sum of electronic and thermal Enthalpies=            -975.903557
 Sum of electronic and thermal Free Energies=         -975.952887

                     E (Thermal)             CV                S
                      KCal/Mol        Cal/Mol-Kelvin    Cal/Mol-Kelvin
 Total                   43.777             33.100            103.825
 Electronic               0.000              0.000              0.000
 Translational            0.889              2.981             43.535
 Rotational               0.889              2.981             33.602
 Vibrational             42.000             27.138             26.688
 Vibration     1          0.598              1.970              4.251
 Vibration     2          0.601              1.957              3.691
 Vibration     3          0.614              1.917              2.850
 Vibration     4          0.626              1.879              2.430
 Vibration     5          0.627              1.874              2.390
 Vibration     6          0.633              1.855              2.241
 Vibration     7          0.643              1.822              2.023
 Vibration     8          0.677              1.720              1.567
 Vibration     9          0.764              1.476              0.973
 Vibration    10          0.820              1.335              0.761
 Vibration    11          0.830              1.310              0.729
 Vibration    12          0.914              1.120              0.526
 Vibration    13          0.938              1.071              0.482

 Optimization completed.
    -- Stationary point found.
 Normal termination of Gaussian 16 at Sat Jan  6 19:58:18 2024.
