 Gaussian 16, Revision A.03,
 Gaussian 16:  ES64L-G16RevA.03 25-Dec-2016

 ----------------------------------------------------------------
 #P UB3LYP/6-311++G(d,p) SCRF=(PCM,Solvent=n,n-DiMethylFormamide)
 ----------------------------------------------------------------

 ------------------
 Radical PCM in DMF
 ------------------
 Symbolic Z-matrix:
 Charge = -1 Multiplicity = 2

                         Standard orientation:
 ---------------------------------------------------------------------
 Center     Atomic      Atomic             Coordinates (Angstroms)
 Number     Number       Type             X           Y           Z
 ---------------------------------------------------------------------
      1          6           0        0.192396    2.824956    0.035713
      2          6           0        1.303430    2.000910   -0.379098
      3          6           0        1.199528    0.644309   -0.592969
      4          6           0       -1.132983    2.131056    0.230584
      5          6           0       -1.187505    0.695273   -0.018757
      6          6           0       -0.061017    0.002450   -0.410875
      7          8           0       -2.155183    2.763407    0.587933
      8          8           0        0.316752    4.057805    0.224075
      9          6           0       -2.542121    0.049080    0.176068
     10          6           0       -2.637905   -1.455908   -0.086419
     11          6           0       -4.049658   -2.012446    0.135194
     12          6           0       -4.160169   -3.518670   -0.124891
     13          6           0        2.406651   -0.182996   -0.981231
     14          6           0        3.055143   -0.933036    0.198614
     15          6           0        4.274666   -1.770711   -0.202589
     16          6           0        4.918981   -2.511888    0.973802
     17          1           0        2.252497    2.514299   -0.519971
     18          1           0       -0.117938   -1.067091   -0.598081
     19          1           0       -3.268387    0.576392   -0.456902
     20          1           0       -2.880826    0.262792    1.198769
     21          1           0       -1.937336   -1.994721    0.564956
     22          1           0       -2.326713   -1.676231   -1.115976
     23          1           0       -4.753860   -1.477915   -0.514425
     24          1           0       -4.365177   -1.796199    1.163460
     25          1           0       -3.883651   -3.762203   -1.156463
     26          1           0       -5.178607   -3.885519    0.041571
     27          1           0       -3.491761   -4.082927    0.534469
     28          1           0        3.160039    0.468792   -1.439779
     29          1           0        2.123451   -0.918750   -1.747364
     30          1           0        2.305005   -1.580995    0.668154
     31          1           0        3.345433   -0.201745    0.962500
     32          1           0        5.021150   -1.118660   -0.674120
     33          1           0        3.978450   -2.496163   -0.971436
     34          1           0        5.255410   -1.810063    1.743990
     35          1           0        5.786944   -3.099713    0.656683
     36          1           0        4.206705   -3.197338    1.445019
 ---------------------------------------------------------------------

 SCF Done:  E(UB3LYP) =  -696.318784868     A.U. after   18 cycles

 The electronic state is 2-A.
 Alpha  occ. eigenvalues --  -19.07356 -19.07081 -10.20929 -10.20799 -10.17017
 Alpha  occ. eigenvalues --  -10.16360 -10.16177 -10.16118 -10.16088 -10.16013
 Alpha  occ. eigenvalues --  -10.15793 -10.15752 -10.15654 -10.15496 -10.15418
 Alpha  occ. eigenvalues --  -10.14441  -1.00755  -0.98123  -0.83414  -0.80024
 Alpha  occ. eigenvalues --   -0.78623  -0.75395  -0.72463  -0.69525  -0.67799
 Alpha  occ. eigenvalues --   -0.63693  -0.61918  -0.58255  -0.57718  -0.55081
 Alpha  occ. eigenvalues --   -0.54192  -0.48073  -0.46824  -0.46467  -0.45865
 Alpha  occ. eigenvalues --   -0.43141  -0.42672  -0.42080  -0.41892  -0.40833
 Alpha  occ. eigenvalues --   -0.40463  -0.40123  -0.39829  -0.38328  -0.37351
 Alpha  occ. eigenvalues --   -0.36589  -0.35727  -0.35578  -0.34128  -0.33854
 Alpha  occ. eigenvalues --   -0.33523  -0.32870  -0.32481  -0.32130  -0.31999
 Alpha  occ. eigenvalues --   -0.31879  -0.29790  -0.25331  -0.21701  -0.21615
 Alpha  occ. eigenvalues --   -0.15853
 Alpha virt. eigenvalues --   -0.00492   0.00149   0.00782   0.00853   0.01319
 Alpha virt. eigenvalues --    0.01584   0.01779   0.02413   0.02779   0.03143
 Alpha virt. eigenvalues --    0.03654   0.04004   0.04395   0.04626   0.05072

  Beta  occ. eigenvalues --  -19.06696 -19.06477 -10.20791 -10.20635 -10.16822
  Beta  occ. eigenvalues --  -10.16370 -10.16174 -10.16064 -10.16032 -10.16014
  Beta  occ. eigenvalues --  -10.15799 -10.15753 -10.15520 -10.15496 -10.15418
  Beta  occ. eigenvalues --  -10.14437  -0.99658  -0.96944  -0.82982  -0.79960
  Beta  occ. eigenvalues --   -0.78523  -0.75247  -0.72272  -0.69332  -0.67125
  Beta  occ. eigenvalues --   -0.63611  -0.61584  -0.58174  -0.57661  -0.54794
  Beta  occ. eigenvalues --   -0.53761  -0.47932  -0.46783  -0.46184  -0.45785
  Beta  occ. eigenvalues --   -0.42891  -0.42351  -0.41861  -0.41673  -0.40723
  Beta  occ. eigenvalues --   -0.40339  -0.39669  -0.38348  -0.38018  -0.37089
  Beta  occ. eigenvalues --   -0.36467  -0.35533  -0.35013  -0.33998  -0.33647
  Beta  occ. eigenvalues --   -0.32841  -0.32424  -0.32289  -0.32075  -0.31772
  Beta  occ. eigenvalues --   -0.30645  -0.28257  -0.24704  -0.21131  -0.20320
  Beta virt. eigenvalues --   -0.08706  -0.00478   0.00161   0.00822   0.01002
  Beta virt. eigenvalues --    0.01609   0.01818   0.02198   0.03015   0.03261
  Beta virt. eigenvalues --    0.03654   0.04095   0.04266   0.04608   0.04722

 Mulliken charges and spin densities:
               1          2
     1  C   -0.282878   0.152828
     2  C   -0.246530  -0.011868
     3  C    0.686687   0.089450
     4  C   -0.191285   0.083849
     5  C    1.410318   0.082477
     6  C   -1.154910   0.084113
     7  O   -0.475908   0.249620
     8  O   -0.518281   0.218244
     9  C   -0.073977   0.026299
    10  C   -0.158328  -0.004321
    11  C   -0.280469   0.000296
    12  C   -0.639456  -0.000091
    13  C   -0.755538   0.033448
    14  C   -0.291996  -0.022107
    15  C   -0.207273   0.019107
    16  C   -0.646885  -0.001577
    17  H    0.167583  -0.002150
    18  H    0.155059  -0.009112
    19  H    0.178276   0.004398
    20  H    0.174490   0.004328
    21  H    0.111983  -0.000032
    22  H    0.111898  -0.000121
    23  H    0.133893  -0.000204
    24  H    0.131422  -0.000181
    25  H    0.139763   0.000003
    26  H    0.149179  -0.000013
    27  H    0.139481   0.000014
    28  H    0.166751   0.000769
    29  H    0.144971   0.003810
    30  H    0.106852  -0.002122
    31  H    0.134397   0.000312
    32  H    0.126453  -0.000186
    33  H    0.129119  -0.000116
    34  H    0.141226  -0.000050
    35  H    0.142772   0.000665
    36  H    0.141140   0.000221
 Sum of Mulliken charges =  -1.00000   1.00000

 Dipole moment (field-independent basis, Debye):
    X=              4.2460    Y=            -17.3682    Z=             -2.0241  Tot=             17.9939
 Quadrupole moment (field-independent basis, Debye-Ang):
   XX=           -113.5892   YY=           -168.0377   ZZ=           -105.3981
   XY=             11.6988   XZ=              2.5494   YZ=             -6.4660

 Normal termination of Gaussian 16 at Sat Jan 13 19:22:24 2024.
