 Q-Chem 5.4, Q-Chem, Inc., Pleasanton, CA (2021)
 Q-Chem 5.4.0 for Intel X86 EM64T Linux

User input:
--------------------------------------------------------------
$molecule
0 1
C                 -2.8015860000     -0.8789960000     -0.9628520000
C                 -1.4595160000     -0.4044230000     -0.4667320000
C                 -0.3060010000     -1.1246120000     -0.7752970000
C                  0.9517980000     -0.7139370000     -0.3325000000
C                  2.1606930000     -1.5098330000     -0.6829430000
O                  2.1054510000     -2.5281750000     -1.3545890000
C                  3.4665200000     -1.0144760000     -0.1780400000
C                  3.5710830000      0.0978800000      0.5615740000
C                  2.3888360000      0.9172690000      0.9308860000
O                  2.5240440000      1.9252650000      1.6067900000
C                  1.0613780000      0.4516450000      0.4422990000
C                 -0.0896960000      1.1760360000      0.7538510000
C                 -1.3490730000      0.7701220000      0.3137620000
C                 -2.5704350000      1.5787020000      0.6700530000
H                 -2.7026390000     -1.7957170000     -1.5453000000
H                 -3.4869070000     -1.0783130000     -0.1326240000
H                 -3.2824270000     -0.1264270000     -1.5961970000
H                 -0.3677300000     -2.0274890000     -1.3721370000
H                  4.3292710000     -1.6138620000     -0.4484880000
H                  4.5242850000      0.4607740000      0.9309770000
H                  0.0177490000      2.0729400000      1.3532210000
H                 -3.2928280000      0.9827700000      1.2372280000
H                 -2.3034630000      2.4474000000      1.2729500000
H                 -3.0888070000      1.9354580000     -0.2258930000
$end
$rem
MAX_SCF_CYCLES=200
BASIS  =  6-311++G(d,p)
GUI  =  2
JOB_TYPE  =  SP
METHOD  =  B3LYP
SOLVENT_METHOD = PCM
$end
$pcm
theory = CPCM
$end
$solvent
dielectric 37.219
opticaldielectric 1.43
$end

--------------------------------------------------------------

             Standard Nuclear Orientation (Angstroms)
    I     Atom           X                Y                Z
 ----------------------------------------------------------------
    1      C      -2.8015860000    -0.8789960000    -0.9628520000
    2      C      -1.4595160000    -0.4044230000    -0.4667320000
    3      C      -0.3060010000    -1.1246120000    -0.7752970000
    4      C       0.9517980000    -0.7139370000    -0.3325000000
    5      C       2.1606930000    -1.5098330000    -0.6829430000
    6      O       2.1054510000    -2.5281750000    -1.3545890000
    7      C       3.4665200000    -1.0144760000    -0.1780400000
    8      C       3.5710830000     0.0978800000     0.5615740000
    9      C       2.3888360000     0.9172690000     0.9308860000
   10      O       2.5240440000     1.9252650000     1.6067900000
   11      C       1.0613780000     0.4516450000     0.4422990000
   12      C      -0.0896960000     1.1760360000     0.7538510000
   13      C      -1.3490730000     0.7701220000     0.3137620000
   14      C      -2.5704350000     1.5787020000     0.6700530000
   15      H      -2.7026390000    -1.7957170000    -1.5453000000
   16      H      -3.4869070000    -1.0783130000    -0.1326240000
   17      H      -3.2824270000    -0.1264270000    -1.5961970000
   18      H      -0.3677300000    -2.0274890000    -1.3721370000
   19      H       4.3292710000    -1.6138620000    -0.4484880000
   20      H       4.5242850000     0.4607740000     0.9309770000
   21      H       0.0177490000     2.0729400000     1.3532210000
   22      H      -3.2928280000     0.9827700000     1.2372280000
   23      H      -2.3034630000     2.4474000000     1.2729500000
   24      H      -3.0888070000     1.9354580000    -0.2258930000
 ----------------------------------------------------------------

    8    -613.9293394829      7.09e-06  Convergence criterion met
 Total energy in the final basis set =     -613.9293394829

                    Orbital Energies (a.u.)
 --------------------------------------------------------------

 Alpha MOs
 -- Occupied --
-19.1364 -19.1364 -10.2841 -10.2841 -10.2101 -10.2093 -10.2031 -10.2027
-10.2026 -10.2021 -10.1912 -10.1912 -10.1692 -10.1692  -1.0693  -1.0676
 -0.8909  -0.8436  -0.7949  -0.7856  -0.7258  -0.7011  -0.6879  -0.6272
 -0.6182  -0.5897  -0.5311  -0.5151  -0.5117  -0.4729  -0.4617  -0.4598
 -0.4548  -0.4475  -0.4375  -0.4221  -0.4202  -0.4201  -0.4040  -0.3927
 -0.3923  -0.3651  -0.3621  -0.3569  -0.3090  -0.2897  -0.2778  -0.2712
 -0.2634

          Ground-State Mulliken Net Atomic Charges

     Atom                 Charge (a.u.)
  ----------------------------------------
      1 C                    -0.528613
      2 C                     0.601783
      3 C                    -0.190488
      4 C                     0.037309
      5 C                    -0.694455
      6 O                    -0.301163
      7 C                     0.134136
      8 C                     0.131723
      9 C                    -0.690368
     10 O                    -0.301489
     11 C                     0.027676
     12 C                    -0.193096
     13 C                     0.591712
     14 C                    -0.527888
     15 H                     0.186698
     16 H                     0.178186
     17 H                     0.178332
     18 H                     0.157323
     19 H                     0.251441
     20 H                     0.251225
     21 H                     0.157675
     22 H                     0.177999
     23 H                     0.186396
     24 H                     0.177944
  ----------------------------------------
  Sum of atomic charges =     0.000000

                    Cartesian Multipole Moments
 -----------------------------------------------------------------
    Charge (ESU x 10^10)
                 0.0000
    Dipole Moment (Debye)
         X      -3.6022      Y       0.4679      Z      -0.1986
       Tot       3.6379
    Quadrupole Moments (Debye-Ang)
        XX     -67.4547     XY      -3.1276     YY     -94.4728
        XZ       0.0783     YZ      -8.1482     ZZ     -87.9528

 Total job time:  34.84s(wall), 212.19s(cpu)
        *  Thank you very much for using Q-Chem.  Have a nice day.  *
