 Q-Chem 5.4, Q-Chem, Inc., Pleasanton, CA (2021)
 Q-Chem 5.4.0 for Intel X86 EM64T Linux

User input:
--------------------------------------------------------------
$molecule
-1 2
C                  1.0828610000      1.4257770000     -1.3132490000
C                 -0.1643360000      0.7087160000     -1.4049620000
C                 -0.4619750000     -0.4028650000     -0.6538060000
C                  0.4977100000     -0.9227440000      0.3102240000
C                  1.7653230000     -0.1986610000      0.4217950000
C                  2.0469630000      0.9109920000     -0.3450990000
C                  3.3592020000      1.6445210000     -0.2214870000
C                  2.7627600000     -0.7279750000      1.4232860000
O                  1.3167850000      2.4422410000     -2.0318010000
O                  0.2581230000     -1.9440540000      1.0172140000
H                 -0.8838930000      1.0988230000     -2.1208380000
H                  4.2120190000      0.9909510000     -0.4442190000
H                  3.5147430000      2.0288340000      0.7944970000
H                  3.3694880000      2.4834220000     -0.9182360000
H                  2.3461490000     -1.6044080000      1.9200620000
H                  3.0099660000      0.0236940000      2.1835270000
H                  3.7077690000     -1.0111600000      0.9426530000
C                 -1.7945760000     -1.0763350000     -0.8596210000
C                 -1.7469220000     -2.5720620000     -1.1600990000
O                 -2.6028500000     -0.8680230000      0.3683180000
C                 -3.9223850000     -0.7515750000      0.2540340000
C                 -4.5512770000     -0.4708590000      1.6039800000
O                 -4.5544830000     -0.8350580000     -0.7805710000
H                 -2.3296370000     -0.5617670000     -1.6588690000
H                 -2.7559800000     -2.9569730000     -1.3314110000
H                 -1.2683990000     -3.0982640000     -0.3355050000
H                 -1.1588280000     -2.7328050000     -2.0686590000
H                 -4.1050350000     -1.1026580000      2.3734150000
H                 -5.6273170000     -0.6306660000      1.5478120000
H                 -4.3549160000      0.5698410000      1.8770640000
$end
$rem
MAX_SCF_CYCLES=200
BASIS  =  6-311++G(d,p)
GUI  =  2
JOB_TYPE  =  SP
METHOD  =  B3LYP
SOLVENT_METHOD = PCM
$end
$pcm
theory = CPCM
$end
$solvent
dielectric 37.219
opticaldielectric 1.43
$end

--------------------------------------------------------------

             Standard Nuclear Orientation (Angstroms)
    I     Atom           X                Y                Z
 ----------------------------------------------------------------
    1      C       1.0828610000     1.4257770000    -1.3132490000
    2      C      -0.1643360000     0.7087160000    -1.4049620000
    3      C      -0.4619750000    -0.4028650000    -0.6538060000
    4      C       0.4977100000    -0.9227440000     0.3102240000
    5      C       1.7653230000    -0.1986610000     0.4217950000
    6      C       2.0469630000     0.9109920000    -0.3450990000
    7      C       3.3592020000     1.6445210000    -0.2214870000
    8      C       2.7627600000    -0.7279750000     1.4232860000
    9      O       1.3167850000     2.4422410000    -2.0318010000
   10      O       0.2581230000    -1.9440540000     1.0172140000
   11      H      -0.8838930000     1.0988230000    -2.1208380000
   12      H       4.2120190000     0.9909510000    -0.4442190000
   13      H       3.5147430000     2.0288340000     0.7944970000
   14      H       3.3694880000     2.4834220000    -0.9182360000
   15      H       2.3461490000    -1.6044080000     1.9200620000
   16      H       3.0099660000     0.0236940000     2.1835270000
   17      H       3.7077690000    -1.0111600000     0.9426530000
   18      C      -1.7945760000    -1.0763350000    -0.8596210000
   19      C      -1.7469220000    -2.5720620000    -1.1600990000
   20      O      -2.6028500000    -0.8680230000     0.3683180000
   21      C      -3.9223850000    -0.7515750000     0.2540340000
   22      C      -4.5512770000    -0.4708590000     1.6039800000
   23      O      -4.5544830000    -0.8350580000    -0.7805710000
   24      H      -2.3296370000    -0.5617670000    -1.6588690000
   25      H      -2.7559800000    -2.9569730000    -1.3314110000
   26      H      -1.2683990000    -3.0982640000    -0.3355050000
   27      H      -1.1588280000    -2.7328050000    -2.0686590000
   28      H      -4.1050350000    -1.1026580000     2.3734150000
   29      H      -5.6273170000    -0.6306660000     1.5478120000
   30      H      -4.3549160000     0.5698410000     1.8770640000
 ----------------------------------------------------------------

    8    -766.9842735763      9.70e-06  Convergence criterion met
 Total energy in the final basis set =     -766.9842735763

                    Orbital Energies (a.u.)
 --------------------------------------------------------------

 Alpha MOs
 -- Occupied --
-19.1653 -19.1139 -19.0759 -19.0752 -10.3062 -10.2317 -10.2195 -10.2163
-10.1715 -10.1705 -10.1664 -10.1657 -10.1609 -10.1536 -10.1507 -10.1502
 -1.1073  -1.0228  -0.9990  -0.9961  -0.8325  -0.8015  -0.7576  -0.7297
 -0.7210  -0.6704  -0.6615  -0.6312  -0.5714  -0.5661  -0.5343  -0.4998
 -0.4860  -0.4816  -0.4744  -0.4498  -0.4372  -0.4310  -0.4197  -0.4121
 -0.4078  -0.3989  -0.3935  -0.3913  -0.3868  -0.3836  -0.3809  -0.3739
 -0.3653  -0.3615  -0.3481  -0.3430  -0.3378  -0.3087  -0.2864  -0.2768
 -0.2439  -0.2400  -0.2336  -0.1604

 Beta MOs
 -- Occupied --
-19.1652 -19.1139 -19.0693 -19.0688 -10.3062 -10.2318 -10.2179 -10.2147
-10.1714 -10.1691 -10.1656 -10.1649 -10.1595 -10.1535 -10.1508 -10.1502
 -1.1071  -1.0226  -0.9877  -0.9843  -0.8274  -0.8001  -0.7558  -0.7290
 -0.7182  -0.6678  -0.6554  -0.6287  -0.5697  -0.5625  -0.5317  -0.4992
 -0.4849  -0.4798  -0.4741  -0.4470  -0.4341  -0.4254  -0.4181  -0.4092
 -0.4072  -0.3964  -0.3898  -0.3881  -0.3847  -0.3805  -0.3765  -0.3645
 -0.3631  -0.3466  -0.3419  -0.3388  -0.3363  -0.3084  -0.2855  -0.2484
 -0.2380  -0.2306  -0.2279

          Ground-State Mulliken Net Atomic Charges

     Atom                 Charge (a.u.)    Spin (a.u.)
  --------------------------------------------------------
      1 C                    -0.704593       0.117916
      2 C                    -0.339389       0.070631
      3 C                     1.089018       0.096517
      4 C                    -0.713622       0.096258
      5 C                     0.319111       0.050382
      6 C                     0.644681       0.081661
      7 C                    -0.442743       0.008345
      8 C                    -0.571365      -0.009318
      9 O                    -0.522309       0.239764
     10 O                    -0.485580       0.238938
     11 H                     0.191617      -0.010197
     12 H                     0.160618       0.002426
     13 H                     0.160672       0.002438
     14 H                     0.177516      -0.001800
     15 H                     0.180115      -0.001225
     16 H                     0.158453       0.002770
     17 H                     0.159850       0.002893
     18 C                    -0.616211      -0.000298
     19 C                    -0.591397       0.009079
     20 O                     0.098876       0.001478
     21 C                     0.323937       0.001667
     22 C                    -0.600988       0.000601
     23 O                    -0.376932       0.000369
     24 H                     0.219807      -0.000869
     25 H                     0.167964       0.000685
     26 H                     0.200274      -0.001626
     27 H                     0.152165       0.000508
     28 H                     0.182549      -0.000050
     29 H                     0.176972       0.000081
     30 H                     0.200934      -0.000024
  --------------------------------------------------------
  Sum of atomic charges =    -1.000000

                    Cartesian Multipole Moments
 -----------------------------------------------------------------
    Charge (ESU x 10^10)
                -4.8032
    Dipole Moment (Debye)
         X      -0.1208      Y      -1.2145      Z       4.4434
       Tot       4.6080
    Quadrupole Moments (Debye-Ang)
        XX    -115.3873     XY     -10.4248     YY    -123.7543
        XZ      -3.9924     YZ      18.7301     ZZ    -111.3391

 Total job time:  50.54s(wall), 344.30s(cpu)
        *  Thank you very much for using Q-Chem.  Have a nice day.  *
