 Q-Chem 5.4, Q-Chem, Inc., Pleasanton, CA (2021)
 Q-Chem 5.4.0 for Intel X86 EM64T Linux

User input:
--------------------------------------------------------------
$molecule
-2 2
C                 -1.7813920000      1.9704760000     -5.1426660000
C                 -1.7678400000      0.6430170000     -5.5244110000
C                 -1.4734600000     -0.3582020000     -4.5688310000
C                 -1.5023270000      2.3539030000     -3.8118900000
C                 -1.2051430000      1.3517020000     -2.8546020000
C                 -1.2023340000     -0.0023920000     -3.2629540000
C                 -1.5392560000      3.7672190000     -3.4485810000
C                 -0.9104140000      1.6764150000     -1.4613850000
C                 -1.2193670000      4.1252320000     -2.0682800000
C                 -0.8579750000      3.1050210000     -1.1018490000
C                 -1.2395390000      5.5214540000     -1.6797550000
C                 -0.8653740000      5.8730610000     -0.3628200000
C                 -0.4698640000      4.8894890000      0.5340590000
C                 -0.4699140000      3.5512270000      0.1836190000
O                 -1.8377980000      4.6155710000     -4.3475660000
O                 -0.7190780000      0.7502470000     -0.6350740000
H                 -2.0077850000      2.7614750000     -5.8482240000
H                 -1.9841340000      0.3676210000     -6.5534690000
H                 -1.4617520000     -1.4046630000     -4.8634040000
H                 -0.9768130000     -0.7451650000     -2.5062580000
Br                 0.1825910000      2.3874850000      1.6090480000
N                 -1.6153700000      6.4845750000     -2.5596730000
S                 -0.9507810000      7.5925040000      0.2623890000
O                 -0.5114020000      8.4477210000     -0.8891470000
O                 -2.3721730000      7.8213540000      0.6335160000
O                 -0.0169790000      7.6335970000      1.4176450000
H                 -0.1515120000      5.1995860000      1.5201130000
H                 -1.7547430000      6.1684080000     -3.5156740000
H                 -1.3759610000      7.4396790000     -2.3104960000
$end

$rem
BASIS  =  6-311++G(d,p)
GUI  =  2
JOB_TYPE  =  SP
METHOD  =  B3LYP
SCF_CONVERGENCE  = 8
SOLVENT_METHOD = sm12
$end

$smx
solvent dimethylformamide
charges CM5
$end

--------------------------------------------------------------

             Standard Nuclear Orientation (Angstroms)
    I     Atom           X                Y                Z
 ----------------------------------------------------------------
    1      C      -1.7813920000     1.9704760000    -5.1426660000
    2      C      -1.7678400000     0.6430170000    -5.5244110000
    3      C      -1.4734600000    -0.3582020000    -4.5688310000
    4      C      -1.5023270000     2.3539030000    -3.8118900000
    5      C      -1.2051430000     1.3517020000    -2.8546020000
    6      C      -1.2023340000    -0.0023920000    -3.2629540000
    7      C      -1.5392560000     3.7672190000    -3.4485810000
    8      C      -0.9104140000     1.6764150000    -1.4613850000
    9      C      -1.2193670000     4.1252320000    -2.0682800000
   10      C      -0.8579750000     3.1050210000    -1.1018490000
   11      C      -1.2395390000     5.5214540000    -1.6797550000
   12      C      -0.8653740000     5.8730610000    -0.3628200000
   13      C      -0.4698640000     4.8894890000     0.5340590000
   14      C      -0.4699140000     3.5512270000     0.1836190000
   15      O      -1.8377980000     4.6155710000    -4.3475660000
   16      O      -0.7190780000     0.7502470000    -0.6350740000
   17      H      -2.0077850000     2.7614750000    -5.8482240000
   18      H      -1.9841340000     0.3676210000    -6.5534690000
   19      H      -1.4617520000    -1.4046630000    -4.8634040000
   20      H      -0.9768130000    -0.7451650000    -2.5062580000
   21      Br      0.1825910000     2.3874850000     1.6090480000
   22      N      -1.6153700000     6.4845750000    -2.5596730000
   23      S      -0.9507810000     7.5925040000     0.2623890000
   24      O      -0.5114020000     8.4477210000    -0.8891470000
   25      O      -2.3721730000     7.8213540000     0.6335160000
   26      O      -0.0169790000     7.6335970000     1.4176450000
   27      H      -0.1515120000     5.1995860000     1.5201130000
   28      H      -1.7547430000     6.1684080000    -3.5156740000
   29      H      -1.3759610000     7.4396790000    -2.3104960000
 ----------------------------------------------------------------

   19   -3941.2343128628      7.01e-09  Convergence criterion met
 Total energy in the final basis set =    -3941.4806320014

                    Orbital Energies (a.u.)
 --------------------------------------------------------------

 Alpha MOs
 -- Occupied --
******** -89.0337 -62.4665 -56.2871 -56.2833 -56.2829 -19.0828 -19.0778
-19.0769 -19.0748 -19.0747 -14.3073 -10.2345 -10.2324 -10.2289 -10.2197
-10.1936 -10.1877 -10.1869 -10.1840 -10.1835 -10.1827 -10.1804 -10.1797
-10.1795 -10.1789  -8.6749  -8.0921  -6.5062  -6.4938  -6.4926  -6.0549
 -6.0546  -6.0540  -2.6171  -2.6137  -2.6129  -2.6030  -2.6029  -1.0936
 -1.0093  -1.0034  -0.9593  -0.9557  -0.9230  -0.8669  -0.8567  -0.7995
 -0.7815  -0.7584  -0.7518  -0.7158  -0.6749  -0.6524  -0.6361  -0.6019
 -0.5748  -0.5632  -0.5547  -0.5242  -0.5106  -0.4852  -0.4806  -0.4752
 -0.4547  -0.4479  -0.4395  -0.4353  -0.4315  -0.4297  -0.4258  -0.4111
 -0.4083  -0.3942  -0.3910  -0.3844  -0.3673  -0.3620  -0.3519  -0.3442
 -0.3354  -0.3186  -0.3172  -0.2921  -0.2853  -0.2836  -0.2810  -0.2781
 -0.2660  -0.2633  -0.2538  -0.2483  -0.2396  -0.2270  -0.2122  -0.1437

 Beta MOs
 -- Occupied --
******** -89.0337 -62.4665 -56.2871 -56.2832 -56.2829 -19.0778 -19.0777
-19.0769 -19.0747 -19.0684 -14.3072 -10.2329 -10.2325 -10.2277 -10.2191
-10.1926 -10.1876 -10.1855 -10.1836 -10.1830 -10.1823 -10.1798 -10.1794
-10.1791 -10.1787  -8.6749  -8.0921  -6.5062  -6.4937  -6.4926  -6.0549
 -6.0547  -6.0541  -2.6171  -2.6136  -2.6129  -2.6029  -2.6029  -1.0935
 -1.0008  -0.9927  -0.9592  -0.9554  -0.9222  -0.8646  -0.8552  -0.7963
 -0.7798  -0.7565  -0.7500  -0.7134  -0.6692  -0.6505  -0.6337  -0.6011
 -0.5736  -0.5614  -0.5530  -0.5232  -0.5092  -0.4834  -0.4795  -0.4732
 -0.4541  -0.4469  -0.4378  -0.4346  -0.4311  -0.4246  -0.4214  -0.4072
 -0.4048  -0.3919  -0.3857  -0.3675  -0.3655  -0.3608  -0.3428  -0.3420
 -0.3278  -0.3182  -0.3169  -0.2893  -0.2844  -0.2816  -0.2770  -0.2754
 -0.2574  -0.2515  -0.2474  -0.2444  -0.2390  -0.2223  -0.2040

          Ground-State Mulliken Net Atomic Charges

     Atom                 Charge (a.u.)    Spin (a.u.)
  --------------------------------------------------------
      1 C                     0.528629       0.025474
      2 C                     1.928970       0.035661
      3 C                     1.958043       0.033456
      4 C                    -0.589901       0.020724
      5 C                     0.615263       0.050651
      6 C                     0.524549       0.032588
      7 C                    -1.408712       0.082903
      8 C                    -2.180696       0.050209
      9 C                    -1.421835      -0.001479
     10 C                    -0.267705       0.073153
     11 C                    -0.848933       0.003695
     12 C                    -2.503292       0.079691
     13 C                    -0.294392       0.034787
     14 C                     0.867377       0.055511
     15 O                    -0.246733       0.184853
     16 O                    -0.099876       0.233291
     17 H                     0.186719      -0.000689
     18 H                     0.404531      -0.002878
     19 H                     0.418092      -0.002417
     20 H                     0.171752      -0.002185
     21 Br                    0.233916       0.006518
     22 N                    -0.391734       0.008670
     23 S                     0.524092      -0.003009
     24 O                    -0.357160       0.003251
     25 O                    -0.287467       0.003889
     26 O                    -0.264482       0.000416
     27 H                     0.192269      -0.003127
     28 H                     0.379938      -0.002676
     29 H                     0.228780      -0.000929
  --------------------------------------------------------
  Sum of atomic charges =    -2.000000

                    Cartesian Multipole Moments
 -----------------------------------------------------------------
    Charge (ESU x 10^10)
                -9.6064
    Dipole Moment (Debye)
         X       9.9119      Y     -49.9787      Z       6.6139
       Tot      51.3796
    Quadrupole Moments (Debye-Ang)
        XX    -177.7074     XY      54.3707     YY    -503.7528
        XZ     -14.6361     YZ      15.5238     ZZ    -201.4855

 Total job time:  1107.60s(wall), 8514.44s(cpu)
        *  Thank you very much for using Q-Chem.  Have a nice day.  *
