 Q-Chem 5.4, Q-Chem, Inc., Pleasanton, CA (2021)
 Q-Chem 5.4.0 for Intel X86 EM64T Linux

User input:
--------------------------------------------------------------
$molecule
-2 1
O                 -4.6071970000     -0.8522040000      1.1962630000
C                 -3.4070010000     -0.3438840000      0.6904710000
C                 -3.4120510000      0.8503160000     -0.0778320000
C                 -2.2173400000      1.3351540000     -0.5732450000
C                 -0.9787120000      0.7064820000     -0.3140570000
C                  0.2385320000      1.2970810000     -0.8473880000
O                  0.2378720000      2.3730470000     -1.5397960000
C                  1.4512370000      0.5644640000     -0.5384970000
C                  2.6949180000      1.0498310000     -1.0115040000
C                  3.8868840000      0.4037050000     -0.7502860000
C                  3.8794660000     -0.7920120000      0.0226570000
C                  2.6848600000     -1.2906200000      0.4994490000
C                  1.4417760000     -0.6538430000      0.2466040000
C                  0.2280830000     -1.2358890000      0.7842510000
O                  0.2300160000     -2.3109020000      1.4850050000
C                 -0.9835980000     -0.5074750000      0.4710540000
C                 -2.2315880000     -1.0057150000      0.9403470000
H                 -5.3287230000     -0.5362650000      0.6314380000
H                 -4.3483440000      1.3764080000     -0.2553720000
H                 -2.1877060000      2.2426200000     -1.1678940000
H                  2.6653640000      1.9643270000     -1.5962680000
H                  4.8250530000      0.8039860000     -1.1306120000
H                  4.8135470000     -1.3095780000      0.2354730000
H                  2.6473400000     -2.1996720000      1.0918850000
H                 -2.2226900000     -1.9293600000      1.5078540000
$end

$rem
BASIS  =  6-311++G(d,p)
GUI  =  2
JOB_TYPE  =  SP
METHOD  =  B3LYP
SCF_CONVERGENCE  = 8
SOLVENT_METHOD = sm12
$end

$smx
solvent dimethylformamide
charges CM5
$end

--------------------------------------------------------------

             Standard Nuclear Orientation (Angstroms)
    I     Atom           X                Y                Z
 ----------------------------------------------------------------
    1      O      -4.6071970000    -0.8522040000     1.1962630000
    2      C      -3.4070010000    -0.3438840000     0.6904710000
    3      C      -3.4120510000     0.8503160000    -0.0778320000
    4      C      -2.2173400000     1.3351540000    -0.5732450000
    5      C      -0.9787120000     0.7064820000    -0.3140570000
    6      C       0.2385320000     1.2970810000    -0.8473880000
    7      O       0.2378720000     2.3730470000    -1.5397960000
    8      C       1.4512370000     0.5644640000    -0.5384970000
    9      C       2.6949180000     1.0498310000    -1.0115040000
   10      C       3.8868840000     0.4037050000    -0.7502860000
   11      C       3.8794660000    -0.7920120000     0.0226570000
   12      C       2.6848600000    -1.2906200000     0.4994490000
   13      C       1.4417760000    -0.6538430000     0.2466040000
   14      C       0.2280830000    -1.2358890000     0.7842510000
   15      O       0.2300160000    -2.3109020000     1.4850050000
   16      C      -0.9835980000    -0.5074750000     0.4710540000
   17      C      -2.2315880000    -1.0057150000     0.9403470000
   18      H      -5.3287230000    -0.5362650000     0.6314380000
   19      H      -4.3483440000     1.3764080000    -0.2553720000
   20      H      -2.1877060000     2.2426200000    -1.1678940000
   21      H       2.6653640000     1.9643270000    -1.5962680000
   22      H       4.8250530000     0.8039860000    -1.1306120000
   23      H       4.8135470000    -1.3095780000     0.2354730000
   24      H       2.6473400000    -2.1996720000     1.0918850000
   25      H      -2.2226900000    -1.9293600000     1.5078540000
 ----------------------------------------------------------------

   18    -764.1597472379      3.78e-09  Convergence criterion met
 Total energy in the final basis set =     -764.4512006976

                    Orbital Energies (a.u.)
 --------------------------------------------------------------

 Alpha MOs
 -- Occupied --
-19.1532 -19.0338 -19.0252 -10.2264 -10.1917 -10.1841 -10.1748 -10.1741
-10.1736 -10.1725 -10.1703 -10.1687 -10.1593 -10.1556 -10.1541 -10.1526
-10.1522  -1.0532  -0.9530  -0.9436  -0.8447  -0.8406  -0.7686  -0.7446
 -0.7431  -0.7230  -0.6537  -0.6308  -0.6128  -0.5833  -0.5564  -0.5409
 -0.5208  -0.4913  -0.4671  -0.4585  -0.4473  -0.4275  -0.4212  -0.4169
 -0.4011  -0.3985  -0.3898  -0.3859  -0.3682  -0.3649  -0.3468  -0.3408
 -0.3371  -0.3340  -0.3165  -0.3039  -0.2539  -0.2418  -0.2357  -0.2231
 -0.2104  -0.2017  -0.1159

          Ground-State Mulliken Net Atomic Charges

     Atom                 Charge (a.u.)
  ----------------------------------------
      1 O                    -0.046385
      2 C                     2.557837
      3 C                     2.895748
      4 C                     0.364497
      5 C                    -1.214507
      6 C                    -2.659794
      7 O                    -0.293627
      8 C                    -1.585540
      9 C                    -0.149810
     10 C                     1.384906
     11 C                     1.369830
     12 C                    -0.391068
     13 C                    -1.902081
     14 C                    -2.571083
     15 O                    -0.346440
     16 C                    -1.500986
     17 C                    -0.036511
     18 H                     0.396622
     19 H                     0.454460
     20 H                     0.146904
     21 H                     0.124562
     22 H                     0.400292
     23 H                     0.389133
     24 H                     0.103446
     25 H                     0.109596
  ----------------------------------------
  Sum of atomic charges =    -2.000000

                    Cartesian Multipole Moments
 -----------------------------------------------------------------
    Charge (ESU x 10^10)
                -9.6064
    Dipole Moment (Debye)
         X      -4.2018      Y       1.1160      Z      -1.0265
       Tot       4.4671
    Quadrupole Moments (Debye-Ang)
        XX    -134.0267     XY      -2.9785     YY    -146.8122
        XZ       8.7014     YZ      22.8043     ZZ    -129.2530

 Total job time:  560.03s(wall), 4195.38s(cpu)
        *  Thank you very much for using Q-Chem.  Have a nice day.  *
