 Q-Chem 5.4, Q-Chem, Inc., Pleasanton, CA (2021)
 Q-Chem 5.4.0 for Intel X86 EM64T Linux

User input:
--------------------------------------------------------------
$molecule
-2 1
C                 -4.9631230000     -0.4480770000     -0.3174340000
C                 -3.6324740000     -0.3782230000      0.3984010000
O                 -3.3833230000     -0.9510960000      1.4335880000
O                 -2.5756580000     -1.8538130000     -1.4533930000
C                 -1.3053770000     -1.7415440000     -1.3575120000
C                 -0.4313390000     -2.6769040000     -1.9588740000
C                  0.9639690000     -2.5877430000     -1.8566680000
C                  1.5550850000     -1.5762150000     -1.1443600000
O                  2.9740770000     -1.4933740000     -1.2162420000
C                  3.7208160000     -1.8173270000     -0.1464330000
C                  5.0985100000     -1.2067710000     -0.2817620000
O                  3.3805990000     -2.5289690000      0.7700870000
C                  0.7947360000     -0.5577490000     -0.4959510000
C                  1.4498660000      0.5250500000      0.2416580000
O                  2.7068450000      0.5880950000      0.4188520000
C                  0.5841440000      1.5632330000      0.7749060000
C                  1.1542120000      2.6621270000      1.4531210000
C                  0.3874600000      3.6872430000      1.9714880000
C                 -1.0259960000      3.6342200000      1.8211580000
C                 -1.6210290000      2.5777990000      1.1748280000
C                 -0.8484940000      1.5006250000      0.6296860000
C                 -1.4146400000      0.4148640000     -0.0350660000
O                 -2.8166200000      0.4830280000     -0.2426350000
C                 -0.6504060000     -0.6227050000     -0.6160900000
H                 -4.7955720000     -1.0671630000     -1.2014770000
H                 -5.2831630000      0.5469870000     -0.6395680000
H                 -5.7131970000     -0.9006770000      0.3330310000
H                 -0.8933240000     -3.4925960000     -2.5084530000
H                  1.6033340000     -3.3193530000     -2.3452390000
H                  4.9827280000     -0.1495110000     -0.0312710000
H                  5.4594390000     -1.2828060000     -1.3109710000
H                  5.7928810000     -1.6897460000      0.4073950000
H                  2.2352590000      2.6609880000      1.5472230000
H                  0.8527760000      4.5224570000      2.4891300000
H                 -1.6437990000      4.4337790000      2.2260550000
H                 -2.6992070000      2.5418660000      1.0687970000
$end
$rem
MAX_SCF_CYCLES=200
BASIS  =  6-311++G(d,p)
GUI  =  2
JOB_TYPE  =  SP
METHOD  =  B3LYP
SOLVENT_METHOD = COSMO
$end
$solvent
dielectric 37.219
opticaldielectric 1.43
$end

--------------------------------------------------------------

             Standard Nuclear Orientation (Angstroms)
    I     Atom           X                Y                Z
 ----------------------------------------------------------------
    1      C      -4.6507417205     1.8024145884    -0.0633866699
    2      C      -3.4666870749     1.0339127242    -0.6068437250
    3      O      -3.1789215495     0.9626255314    -1.7790130637
    4      O      -1.8720254806     2.8328767152     0.3648300283
    5      C      -0.6946402278     2.3340858242     0.3843985499
    6      C       0.4540459414     3.1504635368     0.5049162879
    7      C       1.7567789643     2.6326777071     0.5129581077
    8      C       1.9803482728     1.2855527629     0.3894232700
    9      O       3.3250275268     0.8472777668     0.5485480042
   10      C       4.0193895317     0.4100655216    -0.5162349951
   11      C       5.1895368785    -0.4296591558    -0.0528226755
   12      O       3.7915896544     0.6773901690    -1.6733156329
   13      C       0.9135865529     0.3453722612     0.2714491902
   14      C       1.1768475941    -1.0914399450     0.1619944671
   15      O       2.3464712786    -1.5829686992     0.0861755221
   16      C       0.0154563903    -1.9647608336     0.1504597506
   17      C       0.1988941453    -3.3633548688     0.0974838244
   18      C      -0.8626667195    -4.2468501126     0.0967951884
   19      C      -2.1876146206    -3.7318631276     0.1474891326
   20      C      -2.4095665061    -2.3766407084     0.1915529966
   21      C      -1.3258187728    -1.4386722857     0.1913501615
   22      C      -1.5103746447    -0.0584639884     0.2388648977
   23      O      -2.8510160183     0.3782252975     0.3978061324
   24      C      -0.4415703725     0.8653158762     0.2886656459
   25      H      -4.2351902115     2.6851499413     0.4274983258
   26      H      -5.1914501960     1.2082066707     0.6788394241
   27      H      -5.3138036620     2.0922974595    -0.8800134295
   28      H       0.2853305744     4.2210774252     0.5832851805
   29      H       2.6146543690     3.2922363362     0.6214690389
   30      H       4.7701186329    -1.4001099574     0.2233357883
   31      H       5.6595481875     0.0102317885     0.8308670644
   32      H       5.9147163813    -0.5416989896    -0.8602352536
   33      H       1.2255218255    -3.7125552990     0.0573121215
   34      H      -0.6927677051    -5.3199376981     0.0559050340
   35      H      -3.0345918752    -4.4156341858     0.1456473783
   36      H      -3.4223112835    -1.9916123988     0.2247609748
 ----------------------------------------------------------------

   11   -1144.8439713252      8.45e-06  Convergence criterion met
 Total energy in the final basis set =    -1144.8439713252
    5   -1145.1031779776      9.81e-06  Convergence criterion met
 Total energy in the final basis set =    -1145.1031779776

                    Orbital Energies (a.u.)
 --------------------------------------------------------------

 Alpha MOs
 -- Occupied --
-19.1552 -19.1522 -19.1076 -19.1051 -19.0441 -19.0355 -10.2989 -10.2972
-10.2082 -10.1997 -10.1992 -10.1974 -10.1657 -10.1652 -10.1624 -10.1601
-10.1598 -10.1595 -10.1580 -10.1577 -10.1559 -10.1511 -10.1488 -10.1298
 -1.0980  -1.0957  -1.0194  -1.0174  -0.9700  -0.9582  -0.8486  -0.8218
 -0.7839  -0.7481  -0.7435  -0.7318  -0.7212  -0.6986  -0.6705  -0.6213
 -0.6089  -0.5985  -0.5934  -0.5514  -0.5221  -0.5157  -0.4957  -0.4883
 -0.4764  -0.4716  -0.4698  -0.4619  -0.4563  -0.4455  -0.4379  -0.4325
 -0.4244  -0.4113  -0.4047  -0.4010  -0.3968  -0.3901  -0.3852  -0.3767
 -0.3736  -0.3711  -0.3675  -0.3594  -0.3576  -0.3451  -0.3382  -0.3354
 -0.3211  -0.3127  -0.3023  -0.2924  -0.2818  -0.2763  -0.2741  -0.2431
 -0.2298  -0.2217  -0.2067  -0.1882  -0.1352

          Ground-State Mulliken Net Atomic Charges

     Atom                 Charge (a.u.)
  ----------------------------------------
      1 C                    -0.499898
      2 C                     0.122235
      3 O                    -0.347647
      4 O                    -0.625243
      5 C                    -0.381498
      6 C                    -0.281122
      7 C                     0.168925
      8 C                    -0.656625
      9 O                    -0.031267
     10 C                     0.124560
     11 C                    -0.490806
     12 O                    -0.352807
     13 C                     0.529572
     14 C                    -0.380063
     15 O                    -0.557204
     16 C                     0.385660
     17 C                     0.000956
     18 C                    -0.449540
     19 C                    -0.577867
     20 C                    -0.078139
     21 C                     0.305680
     22 C                    -0.628951
     23 O                    -0.038099
     24 C                     0.592574
     25 H                     0.206268
     26 H                     0.168006
     27 H                     0.163284
     28 H                     0.165305
     29 H                     0.193918
     30 H                     0.203657
     31 H                     0.176083
     32 H                     0.162273
     33 H                     0.157080
     34 H                     0.190715
     35 H                     0.195530
     36 H                     0.164495
  ----------------------------------------
  Sum of atomic charges =    -2.000000

                    Cartesian Multipole Moments
 -----------------------------------------------------------------
    Charge (ESU x 10^10)
                -9.6064
    Dipole Moment (Debye)
         X      -0.9139      Y      -5.6625      Z       3.6766
       Tot       6.8130
    Quadrupole Moments (Debye-Ang)
        XX    -175.9236     XY      15.3199     YY    -183.6971
        XZ       2.6414     YZ       2.3155     ZZ    -166.5839

 Total job time:  143.84s(wall), 1076.15s(cpu)
        *  Thank you very much for using Q-Chem.  Have a nice day.  *
