 Q-Chem 5.4, Q-Chem, Inc., Pleasanton, CA (2021)
 Q-Chem 5.4.0 for Intel X86 EM64T Linux

User input:
--------------------------------------------------------------
$molecule
-1 2
C                  2.4859390000      3.0111910000      1.4327150000
C                  2.3867920000      1.5303070000      1.6844360000
O                  2.0713100000      1.0121770000      2.7222870000
O                  2.7570840000      0.8460700000      0.5661340000
C                  2.4490060000     -0.5168530000      0.4751430000
C                  3.4934430000     -1.3902470000      0.6816050000
C                  3.2981700000     -2.7728690000      0.5121950000
C                  2.0614730000     -3.2391120000      0.1256200000
C                  0.9866840000     -2.3546830000     -0.1033890000
C                 -0.2819820000     -2.9285670000     -0.5499720000
O                 -0.4335370000     -4.1667700000     -0.6830490000
C                 -1.3545200000     -1.9862020000     -0.8660590000
C                 -2.5585360000     -2.5119540000     -1.3796220000
C                 -3.6020790000     -1.6868830000     -1.7353440000
C                 -3.4652810000     -0.2951870000     -1.5838890000
C                 -2.3006270000      0.2305070000     -1.0705160000
O                 -2.2111440000      1.6277250000     -1.0490430000
C                 -2.3788690000      2.2787360000      0.1358830000
C                 -1.8989890000      3.6999890000      0.0095240000
O                 -2.8768810000      1.7880990000      1.1138150000
C                 -1.1967430000     -0.5768900000     -0.6840360000
C                  0.0406990000     -0.0095420000     -0.1301970000
O                  0.1390950000      1.2110440000      0.1574330000
C                  1.1529990000     -0.9466270000      0.0808710000
H                  1.6715670000      3.2801520000      0.7574120000
H                  2.3895350000      3.5524880000      2.3725430000
H                  3.4304350000      3.2570880000      0.9423050000
H                  4.4567040000     -0.9865790000      0.9711280000
H                  4.1208840000     -3.4595350000      0.6829690000
H                  1.8701870000     -4.2945630000     -0.0241280000
H                 -2.6188120000     -3.5879530000     -1.4872260000
H                 -4.5237830000     -2.0989730000     -2.1330600000
H                 -4.2602910000      0.3851330000     -1.8663260000
H                 -2.2132610000      4.2742300000      0.8796070000
H                 -0.8093930000      3.6701360000     -0.0491390000
H                 -2.2772780000      4.1549160000     -0.9086320000
$end

$rem
BASIS  =  6-311++G(d,p)
GUI  =  2
JOB_TYPE  =  SP
METHOD  =  B3LYP
SCF_CONVERGENCE  = 8
SOLVENT_METHOD = sm12
$end

$smx
solvent dimethylformamide
charges CM5
$end

--------------------------------------------------------------

             Standard Nuclear Orientation (Angstroms)
    I     Atom           X                Y                Z
 ----------------------------------------------------------------
    1      C       2.4859390000     3.0111910000     1.4327150000
    2      C       2.3867920000     1.5303070000     1.6844360000
    3      O       2.0713100000     1.0121770000     2.7222870000
    4      O       2.7570840000     0.8460700000     0.5661340000
    5      C       2.4490060000    -0.5168530000     0.4751430000
    6      C       3.4934430000    -1.3902470000     0.6816050000
    7      C       3.2981700000    -2.7728690000     0.5121950000
    8      C       2.0614730000    -3.2391120000     0.1256200000
    9      C       0.9866840000    -2.3546830000    -0.1033890000
   10      C      -0.2819820000    -2.9285670000    -0.5499720000
   11      O      -0.4335370000    -4.1667700000    -0.6830490000
   12      C      -1.3545200000    -1.9862020000    -0.8660590000
   13      C      -2.5585360000    -2.5119540000    -1.3796220000
   14      C      -3.6020790000    -1.6868830000    -1.7353440000
   15      C      -3.4652810000    -0.2951870000    -1.5838890000
   16      C      -2.3006270000     0.2305070000    -1.0705160000
   17      O      -2.2111440000     1.6277250000    -1.0490430000
   18      C      -2.3788690000     2.2787360000     0.1358830000
   19      C      -1.8989890000     3.6999890000     0.0095240000
   20      O      -2.8768810000     1.7880990000     1.1138150000
   21      C      -1.1967430000    -0.5768900000    -0.6840360000
   22      C       0.0406990000    -0.0095420000    -0.1301970000
   23      O       0.1390950000     1.2110440000     0.1574330000
   24      C       1.1529990000    -0.9466270000     0.0808710000
   25      H       1.6715670000     3.2801520000     0.7574120000
   26      H       2.3895350000     3.5524880000     2.3725430000
   27      H       3.4304350000     3.2570880000     0.9423050000
   28      H       4.4567040000    -0.9865790000     0.9711280000
   29      H       4.1208840000    -3.4595350000     0.6829690000
   30      H       1.8701870000    -4.2945630000    -0.0241280000
   31      H      -2.6188120000    -3.5879530000    -1.4872260000
   32      H      -4.5237830000    -2.0989730000    -2.1330600000
   33      H      -4.2602910000     0.3851330000    -1.8663260000
   34      H      -2.2132610000     4.2742300000     0.8796070000
   35      H      -0.8093930000     3.6701360000    -0.0491390000
   36      H      -2.2772780000     4.1549160000    -0.9086320000
 ----------------------------------------------------------------

   19   -1144.9001654318      4.93e-09  Convergence criterion met
 Total energy in the final basis set =    -1144.9886006582

                    Orbital Energies (a.u.)
 --------------------------------------------------------------

 Alpha MOs
 -- Occupied --
-19.1704 -19.1704 -19.1131 -19.1130 -19.0798 -19.0785 -10.3069 -10.3068
-10.2451 -10.2450 -10.2385 -10.2284 -10.1904 -10.1903 -10.1846 -10.1846
-10.1838 -10.1838 -10.1827 -10.1826 -10.1772 -10.1772 -10.1733 -10.1732
 -1.1134  -1.1132  -1.0312  -1.0304  -1.0079  -1.0057  -0.8723  -0.8633
 -0.7985  -0.7786  -0.7775  -0.7539  -0.7379  -0.7354  -0.6807  -0.6580
 -0.6435  -0.6308  -0.6154  -0.5603  -0.5600  -0.5264  -0.5233  -0.4926
 -0.4916  -0.4904  -0.4875  -0.4850  -0.4837  -0.4737  -0.4646  -0.4613
 -0.4488  -0.4309  -0.4308  -0.4155  -0.4112  -0.4099  -0.4078  -0.4023
 -0.3990  -0.3952  -0.3844  -0.3804  -0.3762  -0.3750  -0.3652  -0.3603
 -0.3543  -0.3443  -0.3223  -0.3177  -0.2854  -0.2852  -0.2761  -0.2613
 -0.2599  -0.2584  -0.2485  -0.2371  -0.1474

 Beta MOs
 -- Occupied --
-19.1704 -19.1703 -19.1131 -19.1130 -19.0738 -19.0727 -10.3069 -10.3068
-10.2451 -10.2451 -10.2371 -10.2270 -10.1896 -10.1896 -10.1841 -10.1841
-10.1829 -10.1829 -10.1821 -10.1821 -10.1772 -10.1772 -10.1733 -10.1732
 -1.1133  -1.1131  -1.0309  -1.0304  -0.9978  -0.9954  -0.8698  -0.8621
 -0.7945  -0.7774  -0.7769  -0.7520  -0.7364  -0.7348  -0.6739  -0.6566
 -0.6424  -0.6292  -0.6138  -0.5590  -0.5578  -0.5255  -0.5212  -0.4921
 -0.4914  -0.4897  -0.4869  -0.4833  -0.4832  -0.4727  -0.4639  -0.4602
 -0.4484  -0.4296  -0.4223  -0.4109  -0.4107  -0.4061  -0.4056  -0.4020
 -0.3976  -0.3923  -0.3802  -0.3780  -0.3735  -0.3638  -0.3611  -0.3586
 -0.3509  -0.3334  -0.3218  -0.3166  -0.2851  -0.2851  -0.2566  -0.2554
 -0.2548  -0.2477  -0.2431  -0.2319

          Ground-State Mulliken Net Atomic Charges

     Atom                 Charge (a.u.)    Spin (a.u.)
  --------------------------------------------------------
      1 C                     0.170738       0.001657
      2 C                    -0.383245      -0.000360
      3 O                    -0.268593      -0.000485
      4 O                     0.102656      -0.001992
      5 C                    -0.343199       0.035036
      6 C                     1.874707       0.047741
      7 C                     1.049638       0.042277
      8 C                    -0.149859       0.026041
      9 C                    -1.066101       0.035444
     10 C                    -2.491049       0.068121
     11 O                    -0.300951       0.220470
     12 C                    -1.069941       0.035401
     13 C                    -0.147579       0.026120
     14 C                     1.045119       0.042333
     15 C                     1.876575       0.047750
     16 C                    -0.347290       0.034866
     17 O                     0.104132      -0.001960
     18 C                    -0.386340      -0.000329
     19 C                     0.172314       0.001669
     20 O                    -0.267856      -0.000488
     21 C                    -0.640958       0.045486
     22 C                    -1.777662       0.033110
     23 O                    -0.155198       0.233258
     24 C                    -0.641923       0.045285
     25 H                     0.252034       0.000039
     26 H                     0.200516      -0.000145
     27 H                     0.242277       0.000199
     28 H                     0.289387      -0.003672
     29 H                     0.382260      -0.003026
     30 H                     0.154215      -0.001624
     31 H                     0.154267      -0.001614
     32 H                     0.382004      -0.003031
     33 H                     0.289652      -0.003672
     34 H                     0.200323      -0.000148
     35 H                     0.252475       0.000041
     36 H                     0.242457       0.000201
  --------------------------------------------------------
  Sum of atomic charges =    -1.000000

                    Cartesian Multipole Moments
 -----------------------------------------------------------------
    Charge (ESU x 10^10)
                -4.8032
    Dipole Moment (Debye)
         X       1.9773      Y       7.5580      Z      -2.4082
       Tot       8.1751
    Quadrupole Moments (Debye-Ang)
        XX    -146.9582     XY      -0.6119     YY    -165.6796
        XZ       3.1051     YZ      -7.7725     ZZ    -159.1682

 Total job time:  1812.75s(wall), 13750.64s(cpu)
        *  Thank you very much for using Q-Chem.  Have a nice day.  *
