 Gaussian 16, Revision A.03,
 Gaussian 16:  ES64L-G16RevA.03 25-Dec-2016

 ----------------------------------------------------------------------
 #P UB3LYP/6-311++G(d,p) nosym opt freq SCRF=(PCM,Solvent=n,n-DiMethylF
 ormamide)
 ----------------------------------------------------------------------

 --------
 Oxidized
 --------
 Symbolic Z-matrix:
 Charge =  0 Multiplicity = 1

 SCF Done:  E(UB3LYP) =  -685.784918693     A.U. after   15 cycles
 SCF Done:  E(UB3LYP) =  -685.785003798     A.U. after   11 cycles
 SCF Done:  E(UB3LYP) =  -685.785013489     A.U. after   11 cycles
 SCF Done:  E(UB3LYP) =  -685.785016078     A.U. after   10 cycles
 SCF Done:  E(UB3LYP) =  -685.785016483     A.U. after    9 cycles
 SCF Done:  E(UB3LYP) =  -685.785016517     A.U. after    8 cycles
 Optimization completed.
    -- Stationary point found.
 Normal termination of Gaussian 16 at Sun Feb 11 15:12:46 2024.

 ----------------------------------------------------------------------
 #P Geom=AllCheck Guess=TCheck SCRF=Check GenChk UB3LYP/6-311++G(d,p) F
 req
 ----------------------------------------------------------------------

 Structure from the checkpoint file:  "310.chk"
 --------
 Oxidized
 --------
 Charge =  0 Multiplicity = 1

                          Input orientation:
 ---------------------------------------------------------------------
 Center     Atomic      Atomic             Coordinates (Angstroms)
 Number     Number       Type             X           Y           Z
 ---------------------------------------------------------------------
      1          8           0       -2.225143   -2.041468    0.204047
      2          6           0       -1.650732   -0.834909    0.099365
      3          6           0       -2.497646    0.296925    0.030204
      4          6           0       -1.972051    1.559675   -0.078075
      5          6           0       -0.571422    1.757961   -0.122799
      6          8           0       -0.119931    3.015549   -0.229305
      7          6           0        0.286524    0.650538   -0.055288
      8          6           0        1.732842    0.841790   -0.100362
      9          8           0        2.244753    1.973368   -0.197609
     10          6           0        2.591592   -0.351850   -0.028760
     11          6           0        2.077230   -1.587685    0.076619
     12          6           0        0.624480   -1.820862    0.126929
     13          8           0        0.182167   -2.981276    0.225572
     14          6           0       -0.259615   -0.661551    0.057186
     15          1           0       -1.492985   -2.706862    0.240362
     16          1           0       -3.569061    0.141817    0.064801
     17          1           0       -2.617419    2.427927   -0.131135
     18          1           0        0.868709    2.966339   -0.245160
     19          1           0        3.660694   -0.177128   -0.065872
     20          1           0        2.707011   -2.468297    0.129282
 ---------------------------------------------------------------------

 SCF Done:  E(UB3LYP) =  -685.785016517     A.U. after    1 cycles

 Alpha  occ. eigenvalues --  -19.17149 -19.17149 -19.14567 -19.14566 -10.29242
 Alpha  occ. eigenvalues --  -10.29241 -10.27463 -10.27461 -10.21843 -10.21763
 Alpha  occ. eigenvalues --  -10.21400 -10.21356 -10.21044 -10.20980  -1.09850
 Alpha  occ. eigenvalues --   -1.09687  -1.06539  -1.06402  -0.89542  -0.84940
 Alpha  occ. eigenvalues --   -0.79236  -0.77438  -0.71545  -0.67430  -0.66176
 Alpha  occ. eigenvalues --   -0.62904  -0.56205  -0.55308  -0.55218  -0.54231
 Alpha  occ. eigenvalues --   -0.51081  -0.48136  -0.47440  -0.47303  -0.44634
 Alpha  occ. eigenvalues --   -0.44557  -0.44491  -0.44013  -0.42689  -0.42082
 Alpha  occ. eigenvalues --   -0.40824  -0.39547  -0.39065  -0.34032  -0.31549
 Alpha  occ. eigenvalues --   -0.30302  -0.29378  -0.28916  -0.24102
 Alpha virt. eigenvalues --   -0.13816  -0.05130  -0.04518  -0.00388   0.00673
 Alpha virt. eigenvalues --    0.00876   0.01826   0.02482   0.03042   0.04211
 Alpha virt. eigenvalues --    0.04644   0.05019   0.05056   0.06082   0.06780

  Beta  occ. eigenvalues --  -19.17149 -19.17149 -19.14567 -19.14566 -10.29242
  Beta  occ. eigenvalues --  -10.29241 -10.27463 -10.27461 -10.21843 -10.21763
  Beta  occ. eigenvalues --  -10.21400 -10.21356 -10.21044 -10.20980  -1.09850
  Beta  occ. eigenvalues --   -1.09687  -1.06539  -1.06402  -0.89542  -0.84940
  Beta  occ. eigenvalues --   -0.79236  -0.77438  -0.71545  -0.67430  -0.66176
  Beta  occ. eigenvalues --   -0.62904  -0.56205  -0.55308  -0.55218  -0.54231
  Beta  occ. eigenvalues --   -0.51081  -0.48136  -0.47440  -0.47303  -0.44634
  Beta  occ. eigenvalues --   -0.44557  -0.44491  -0.44013  -0.42689  -0.42082
  Beta  occ. eigenvalues --   -0.40824  -0.39547  -0.39065  -0.34032  -0.31549
  Beta  occ. eigenvalues --   -0.30302  -0.29378  -0.28916  -0.24102
  Beta virt. eigenvalues --   -0.13816  -0.05130  -0.04518  -0.00388   0.00673
  Beta virt. eigenvalues --    0.00876   0.01826   0.02482   0.03042   0.04211
  Beta virt. eigenvalues --    0.04644   0.05019   0.05056   0.06082   0.06780

 Mulliken charges and spin densities:
               1          2
     1  O   -0.316507   0.000000
     2  C   -0.220224   0.000000
     3  C    0.053986  -0.000000
     4  C    0.054256  -0.000000
     5  C   -0.220444  -0.000000
     6  O   -0.316455   0.000000
     7  C    0.485223   0.000000
     8  C   -0.347909   0.000000
     9  O   -0.358507  -0.000000
    10  C   -0.120254  -0.000000
    11  C   -0.120279  -0.000000
    12  C   -0.348308   0.000000
    13  O   -0.358328  -0.000000
    14  C    0.485517  -0.000000
    15  H    0.349941  -0.000000
    16  H    0.234468   0.000000
    17  H    0.234544  -0.000000
    18  H    0.349877  -0.000000
    19  H    0.239673  -0.000000
    20  H    0.239731   0.000000
 Sum of Mulliken charges =  -0.00000   0.00000

 Dipole moment (field-independent basis, Debye):
    X=              0.2360    Y=             -0.0998    Z=              0.0018  Tot=              0.2563
 Quadrupole moment (field-independent basis, Debye-Ang):
   XX=            -71.5988   YY=            -95.2468   ZZ=            -80.7100
   XY=            -11.9005   XZ=              0.7102   YZ=              1.3838

  Exact polarizability: 258.039  -5.353 247.076  -3.271 -12.413  84.551
 Approx polarizability: 322.107   1.251 324.103  -4.792 -17.332 100.134

                      1                      2                      3
                      A                      A                      A
 Frequencies --    100.0990               110.5974               171.2055
 Red. masses --      5.3626                11.5634                 7.4740
 Frc consts  --      0.0317                 0.0833                 0.1291
 IR Inten    --     11.1004                 0.0042                 0.0286

                      4                      5                      6
                      A                      A                      A
 Frequencies --    182.9209               287.1481               290.2804
 Red. masses --      7.2075                 4.5244                 6.9695
 Frc consts  --      0.1421                 0.2198                 0.3460
 IR Inten    --      0.4250                 0.0265                12.0072

                      7                      8                      9
                      A                      A                      A
 Frequencies --    354.7594               367.1897               406.9050
 Red. masses --      6.3542                 5.4424                10.2865
 Frc consts  --      0.4712                 0.4323                 1.0035
 IR Inten    --      0.1618                 0.0007                 0.6523

                     10                     11                     12
                      A                      A                      A
 Frequencies --    426.9694               454.7545               459.3503
 Red. masses --     10.3295                 6.1571                11.2077
 Frc consts  --      1.1095                 0.7502                 1.3933
 IR Inten    --      0.4967                 0.0333                94.5230

                     13                     14                     15
                      A                      A                      A
 Frequencies --    468.6930               501.6631               545.2685
 Red. masses --      9.1408                 5.0624                 3.0085
 Frc consts  --      1.1831                 0.7506                 0.5270
 IR Inten    --      2.4193                16.3423                 1.9126

                     16                     17                     18
                      A                      A                      A
 Frequencies --    620.9426               641.0842               645.1300
 Red. masses --      7.9300                 2.2151                 4.1231
 Frc consts  --      1.8015                 0.5364                 1.0110
 IR Inten    --     33.0969                37.0085                28.9688

                     19                     20                     21
                      A                      A                      A
 Frequencies --    678.6065               736.9105               748.1707
 Red. masses --      6.9714                 7.2118                 8.3507
 Frc consts  --      1.8915                 2.3074                 2.7541
 IR Inten    --      0.0015                11.2032                 0.0167

                     22                     23                     24
                      A                      A                      A
 Frequencies --    770.2724               784.9184               785.0598
 Red. masses --      6.1020                 1.0829                 1.1145
 Frc consts  --      2.1331                 0.3931                 0.4047
 IR Inten    --      6.6524                35.6759               290.5448

                     25                     26                     27
                      A                      A                      A
 Frequencies --    853.4738               868.1742               955.4468
 Red. masses --      1.5467                 2.1308                 7.2384
 Frc consts  --      0.6638                 0.9462                 3.8932
 IR Inten    --      7.0501                86.5665                51.1053

                     28                     29                     30
                      A                      A                      A
 Frequencies --    962.0408               984.1458              1014.8093
 Red. masses --      6.5134                 1.2897                 1.2594
 Frc consts  --      3.5518                 0.7359                 0.7642
 IR Inten    --      0.9804                 0.0004                 0.0010

                     31                     32                     33
                      A                      A                      A
 Frequencies --   1111.4435              1116.6466              1163.5439
 Red. masses --      3.1181                 1.4905                 1.2239
 Frc consts  --      2.2694                 1.0950                 0.9762
 IR Inten    --     16.4055                90.7120               247.8957

                     34                     35                     36
                      A                      A                      A
 Frequencies --   1244.9207              1249.3086              1289.0331
 Red. masses --      2.2074                 1.9111                 5.6539
 Frc consts  --      2.0156                 1.7574                 5.5351
 IR Inten    --    265.8185               622.6431               132.0739

                     37                     38                     39
                      A                      A                      A
 Frequencies --   1338.8932              1371.7487              1383.6831
 Red. masses --      2.9837                 2.7163                 1.5814
 Frc consts  --      3.1513                 3.0114                 1.7839
 IR Inten    --      6.6842               403.1551               285.9471

                     40                     41                     42
                      A                      A                      A
 Frequencies --   1416.4639              1429.7382              1473.4413
 Red. masses --      3.5502                 8.5411                 2.4853
 Frc consts  --      4.1967                10.2868                 3.1790
 IR Inten    --    125.5949                65.2556               378.6918

                     43                     44                     45
                      A                      A                      A
 Frequencies --   1496.9773              1590.8639              1619.1782
 Red. masses --      3.7570                 3.3544                 3.1666
 Frc consts  --      4.9605                 5.0019                 4.8914
 IR Inten    --      0.0344               437.9282               217.0367

                     46                     47                     48
                      A                      A                      A
 Frequencies --   1631.4154              1635.7747              1690.7329
 Red. masses --     10.4414                 7.2859                 7.3101
 Frc consts  --     16.3733                11.4864                12.3119
 IR Inten    --   1013.7850                 3.8159                 7.0844

                     49                     50                     51
                      A                      A                      A
 Frequencies --   3185.2312              3193.1664              3200.3973
 Red. masses --      1.0879                 1.0887                 1.0987
 Frc consts  --      6.5028                 6.5401                 6.6305
 IR Inten    --      1.7518                 2.9069                 7.1061

                     52                     53                     54
                      A                      A                      A
 Frequencies --   3205.6529              3286.5970              3291.1569
 Red. masses --      1.0963                 1.0691                 1.0681
 Frc consts  --      6.6378                 6.8039                 6.8166
 IR Inten    --      3.9173               388.9756                65.7530

 - Thermochemistry -
 -------------------
 Temperature   298.150 Kelvin.  Pressure   1.00000 Atm.
 Atom     1 has atomic number  8 and mass  15.99491

 Molecular mass:   190.02661 amu.
 Principal axes and moments of inertia in atomic units:
                           1         2         3
     Eigenvalues --  1861.355682252.555314113.91026
           X            0.38309   0.92347   0.02114
           Y            0.92035  -0.38354   0.07648
           Z           -0.07874   0.00984   0.99685
 This molecule is an asymmetric top.
 Rotational symmetry number  1.
 Warning -- assumption of classical behavior for rotation
           may cause significant error
 Rotational temperatures (Kelvin)      0.04653     0.03845     0.02105
 Rotational constants (GHZ):           0.96958     0.80120     0.43869
 Zero-point vibrational energy     369604.2 (Joules/Mol)
                                   88.33753 (Kcal/Mol)
 Warning -- explicit consideration of  15 degrees of freedom as
           vibrations may cause significant error
 Vibrational temperatures:    144.02   159.12   246.33   263.18   413.14
          (Kelvin)            417.65   510.42   528.30   585.45   614.31
                              654.29   660.90   674.34   721.78   784.52
                              893.40   922.38   928.20   976.36  1060.25
                             1076.45  1108.25  1129.32  1129.53  1227.96
                             1249.11  1374.67  1384.16  1415.97  1460.08
                             1599.12  1606.61  1674.08  1791.16  1797.48
                             1854.63  1926.37  1973.64  1990.81  2037.98
                             2057.07  2119.95  2153.82  2288.90  2329.64
                             2347.24  2353.52  2432.59  4582.84  4594.25
                             4604.66  4612.22  4728.68  4735.24

 Zero-point correction=                           0.140775 (Hartree/Particle)
 Thermal correction to Energy=                    0.151033
 Thermal correction to Enthalpy=                  0.151978
 Thermal correction to Gibbs Free Energy=         0.105109
 Sum of electronic and zero-point Energies=           -685.644242
 Sum of electronic and thermal Energies=              -685.633983
 Sum of electronic and thermal Enthalpies=            -685.633039
 Sum of electronic and thermal Free Energies=         -685.679908

                     E (Thermal)             CV                S
                      KCal/Mol        Cal/Mol-Kelvin    Cal/Mol-Kelvin
 Total                   94.775             41.591             98.644
 Electronic               0.000              0.000              0.000
 Translational            0.889              2.981             41.632
 Rotational               0.889              2.981             31.223
 Vibrational             92.997             35.629             25.789
 Vibration     1          0.604              1.949              3.452
 Vibration     2          0.606              1.941              3.258
 Vibration     3          0.626              1.878              2.422
 Vibration     4          0.630              1.863              2.298
 Vibration     5          0.684              1.698              1.491
 Vibration     6          0.686              1.692              1.472
 Vibration     7          0.731              1.565              1.145
 Vibration     8          0.740              1.540              1.092
 Vibration     9          0.772              1.455              0.938
 Vibration    10          0.789              1.412              0.869
 Vibration    11          0.813              1.350              0.782
 Vibration    12          0.817              1.340              0.768
 Vibration    13          0.826              1.320              0.741
 Vibration    14          0.857              1.246              0.654
 Vibration    15          0.900              1.150              0.554

 Optimization completed.
    -- Stationary point found.
 Normal termination of Gaussian 16 at Sun Feb 11 15:39:13 2024.
