 Gaussian 16, Revision A.03,
 Gaussian 16:  ES64L-G16RevA.03 25-Dec-2016

 ----------------------------------------------------------------------
 #P UB3LYP/6-311++G(d,p) nosym opt freq SCRF=(PCM,Solvent=n,n-DiMethylF
 ormamide)
 ----------------------------------------------------------------------

 --------
 Oxidized
 --------
 Symbolic Z-matrix:
 Charge =  0 Multiplicity = 1

 SCF Done:  E(UB3LYP) =  -1760.42409024     A.U. after   18 cycles
 SCF Done:  E(UB3LYP) =  -1760.42413691     A.U. after   13 cycles
 SCF Done:  E(UB3LYP) =  -1760.42413964     A.U. after   17 cycles
 SCF Done:  E(UB3LYP) =  -1760.42414215     A.U. after   13 cycles
 Optimization completed.
    -- Stationary point found.
 Normal termination of Gaussian 16 at Sat Feb 10 10:08:04 2024.

 ----------------------------------------------------------------------
 #P Geom=AllCheck Guess=TCheck SCRF=Check GenChk UB3LYP/6-311++G(d,p) F
 req
 ----------------------------------------------------------------------

 Structure from the checkpoint file:  "026.chk"
 --------
 Oxidized
 --------
 Charge =  0 Multiplicity = 1

                          Input orientation:
 ---------------------------------------------------------------------
 Center     Atomic      Atomic             Coordinates (Angstroms)
 Number     Number       Type             X           Y           Z
 ---------------------------------------------------------------------
      1         17           0       -2.652090   -1.759905   -0.009525
      2          6           0       -1.259673   -0.733298   -0.006992
      3          6           0       -1.360795    0.599240   -0.038388
      4          6           0       -0.164937    1.463462   -0.036197
      5          8           0       -0.268368    2.674296   -0.065749
      6          6           0        1.177759    0.794528    0.004615
      7          6           0        1.280091   -0.548873    0.036055
      8         17           0        2.792820   -1.375102    0.084016
      9          6           0        0.066867   -1.430302    0.031945
     10          8           0        0.158215   -2.635789    0.058896
     11         17           0        2.544766    1.842076    0.008391
     12          1           0       -2.314656    1.109666   -0.067063
 ---------------------------------------------------------------------

 SCF Done:  E(UB3LYP) =  -1760.42414215     A.U. after    2 cycles

 Alpha  occ. eigenvalues -- -101.59070-101.59040-101.58749 -19.16937 -19.16329
 Alpha  occ. eigenvalues --  -10.32376 -10.31629 -10.29147 -10.29039 -10.28936
 Alpha  occ. eigenvalues --  -10.23393  -9.50511  -9.50480  -9.50191  -7.27002
 Alpha  occ. eigenvalues --   -7.26977  -7.26677  -7.26020  -7.25983  -7.25895
 Alpha  occ. eigenvalues --   -7.25865  -7.25693  -7.25590  -1.10654  -1.09686
 Alpha  occ. eigenvalues --   -0.94649  -0.92093  -0.89054  -0.84480  -0.77615
 Alpha  occ. eigenvalues --   -0.72589  -0.64798  -0.62959  -0.57206  -0.53073
 Alpha  occ. eigenvalues --   -0.50683  -0.49026  -0.48854  -0.47800  -0.46766
 Alpha  occ. eigenvalues --   -0.45029  -0.44862  -0.41507  -0.38591  -0.36831
 Alpha  occ. eigenvalues --   -0.36094  -0.34870  -0.33894  -0.32077  -0.31296
 Alpha  occ. eigenvalues --   -0.30964  -0.28824
 Alpha virt. eigenvalues --   -0.15796  -0.05495  -0.03298  -0.02462  -0.00415
 Alpha virt. eigenvalues --    0.00001   0.01868   0.02012   0.02868   0.04496
 Alpha virt. eigenvalues --    0.04892   0.05259   0.06679   0.06772   0.07330

  Beta  occ. eigenvalues -- -101.59070-101.59040-101.58749 -19.16937 -19.16329
  Beta  occ. eigenvalues --  -10.32376 -10.31629 -10.29147 -10.29039 -10.28936
  Beta  occ. eigenvalues --  -10.23393  -9.50511  -9.50480  -9.50191  -7.27002
  Beta  occ. eigenvalues --   -7.26977  -7.26677  -7.26020  -7.25983  -7.25895
  Beta  occ. eigenvalues --   -7.25865  -7.25693  -7.25590  -1.10654  -1.09686
  Beta  occ. eigenvalues --   -0.94649  -0.92093  -0.89054  -0.84480  -0.77615
  Beta  occ. eigenvalues --   -0.72589  -0.64798  -0.62959  -0.57206  -0.53073
  Beta  occ. eigenvalues --   -0.50683  -0.49026  -0.48854  -0.47800  -0.46766
  Beta  occ. eigenvalues --   -0.45029  -0.44862  -0.41507  -0.38591  -0.36831
  Beta  occ. eigenvalues --   -0.36094  -0.34870  -0.33894  -0.32077  -0.31296
  Beta  occ. eigenvalues --   -0.30964  -0.28824
  Beta virt. eigenvalues --   -0.15796  -0.05495  -0.03298  -0.02462  -0.00415
  Beta virt. eigenvalues --    0.00001   0.01868   0.02012   0.02868   0.04496
  Beta virt. eigenvalues --    0.04892   0.05259   0.06679   0.06772   0.07330

 Mulliken charges and spin densities:
               1          2
     1  Cl   0.336436   0.000000
     2  C    1.111060  -0.000000
     3  C   -0.198049   0.000000
     4  C   -1.130660  -0.000000
     5  O   -0.220050  -0.000000
     6  C    0.424841   0.000000
     7  C    0.669816  -0.000000
     8  Cl   0.411082  -0.000000
     9  C   -1.932091  -0.000000
    10  O   -0.157796  -0.000000
    11  Cl   0.425006  -0.000000
    12  H    0.260407   0.000000
 Sum of Mulliken charges =  -0.00000  -0.00000

 Dipole moment (field-independent basis, Debye):
    X=             -1.0300    Y=              0.4533    Z=             -0.0241  Tot=              1.1256
 Quadrupole moment (field-independent basis, Debye-Ang):
   XX=            -77.7805   YY=           -100.6745   ZZ=            -80.5632
   XY=              0.0210   XZ=              0.0525   YZ=              0.4430

  Exact polarizability: 164.111  14.113 237.478   1.399  -3.349  74.009
 Approx polarizability: 172.647  10.050 327.380   1.399  -5.111  87.385

                      1                      2                      3
                      A                      A                      A
 Frequencies --     54.1423                77.2820               141.0986
 Red. masses --     19.6375                20.2775                 9.0194
 Frc consts  --      0.0339                 0.0714                 0.1058
 IR Inten    --      3.6901                 0.6271                11.5614

                      4                      5                      6
                      A                      A                      A
 Frequencies --    199.0187               211.0469               238.3928
 Red. masses --     26.1704                28.3927                 7.3480
 Frc consts  --      0.6107                 0.7451                 0.2460
 IR Inten    --      0.1289                 0.0577                 0.7600

                      7                      8                      9
                      A                      A                      A
 Frequencies --    270.8377               315.5275               360.4072
 Red. masses --     19.7728                20.0121                18.9398
 Frc consts  --      0.8545                 1.1739                 1.4495
 IR Inten    --      0.8681                 0.0012                 3.6521

                     10                     11                     12
                      A                      A                      A
 Frequencies --    380.4901               398.2524               486.0755
 Red. masses --      7.9599                16.8482                14.4397
 Frc consts  --      0.6790                 1.5744                 2.0101
 IR Inten    --      0.0726                13.7536                 1.6080

                     13                     14                     15
                      A                      A                      A
 Frequencies --    515.6051               594.5841               675.4368
 Red. masses --      7.7699                 9.1066                 6.9399
 Frc consts  --      1.2170                 1.8968                 1.8654
 IR Inten    --      0.0993               106.0711                 9.0729

                     16                     17                     18
                      A                      A                      A
 Frequencies --    713.2220               783.9886               804.3902
 Red. masses --      6.0496                11.8186                 9.1614
 Frc consts  --      1.8131                 4.2799                 3.4926
 IR Inten    --      6.5854               185.7509                 3.5910

                     19                     20                     21
                      A                      A                      A
 Frequencies --    869.9678               902.7471               962.0198
 Red. masses --      8.8815                 1.5007                11.1716
 Frc consts  --      3.9604                 0.7206                 6.0916
 IR Inten    --     26.3053                42.5006                 6.1128

                     22                     23                     24
                      A                      A                      A
 Frequencies --   1051.7711              1187.4980              1250.2698
 Red. masses --      5.5965                 4.1052                 9.4906
 Frc consts  --      3.6476                 3.4108                 8.7408
 IR Inten    --    599.9172               104.1607               225.0008

                     25                     26                     27
                      A                      A                      A
 Frequencies --   1315.7767              1600.2310              1663.3606
 Red. masses --      1.8034                11.5968                 9.0343
 Frc consts  --      1.8395                17.4966                14.7271
 IR Inten    --     13.1134               319.5222                71.9634

                     28                     29                     30
                      A                      A                      A
 Frequencies --   1712.1951              1739.2579              3213.7317
 Red. masses --     12.5435                13.2390                 1.0942
 Frc consts  --     21.6659                23.5957                 6.6582
 IR Inten    --    783.8008               354.2713                 2.5037

 - Thermochemistry -
 -------------------
 Temperature   298.150 Kelvin.  Pressure   1.00000 Atm.
 Atom     1 has atomic number 17 and mass  34.96885

 Molecular mass:   209.90421 amu.
 Principal axes and moments of inertia in atomic units:
                           1         2         3
     Eigenvalues --  1688.097993234.340444922.43628
           X            0.86198  -0.50659  -0.01886
           Y            0.50692   0.86171   0.02214
           Z            0.00504  -0.02865   0.99958
 This molecule is an asymmetric top.
 Rotational symmetry number  1.
 Warning -- assumption of classical behavior for rotation
           may cause significant error
 Rotational temperatures (Kelvin)      0.05131     0.02678     0.01760
 Rotational constants (GHZ):           1.06910     0.55799     0.36664
 Zero-point vibrational energy     147670.8 (Joules/Mol)
                                   35.29416 (Kcal/Mol)
 Warning -- explicit consideration of  14 degrees of freedom as
           vibrations may cause significant error
 Vibrational temperatures:     77.90   111.19   203.01   286.34   303.65
          (Kelvin)            342.99   389.67   453.97   518.55   547.44
                              573.00   699.35   741.84   855.47   971.80
                             1026.17  1127.98  1157.34  1251.69  1298.85
                             1384.13  1513.26  1708.54  1798.86  1893.11
                             2302.38  2393.20  2463.47  2502.40  4623.84

 Zero-point correction=                           0.056245 (Hartree/Particle)
 Thermal correction to Energy=                    0.066038
 Thermal correction to Enthalpy=                  0.066982
 Thermal correction to Gibbs Free Energy=         0.019245
 Sum of electronic and zero-point Energies=          -1760.367897
 Sum of electronic and thermal Energies=             -1760.358104
 Sum of electronic and thermal Enthalpies=           -1760.357160
 Sum of electronic and thermal Free Energies=        -1760.404897

                     E (Thermal)             CV                S
                      KCal/Mol        Cal/Mol-Kelvin    Cal/Mol-Kelvin
 Total                   41.440             34.186            100.472
 Electronic               0.000              0.000              0.000
 Translational            0.889              2.981             41.928
 Rotational               0.889              2.981             31.664
 Vibrational             39.662             28.224             26.881
 Vibration     1          0.596              1.976              4.660
 Vibration     2          0.599              1.964              3.959
 Vibration     3          0.615              1.912              2.789
 Vibration     4          0.637              1.841              2.142
 Vibration     5          0.643              1.824              2.035
 Vibration     6          0.656              1.782              1.815
 Vibration     7          0.675              1.727              1.591
 Vibration     8          0.703              1.644              1.333
 Vibration     9          0.735              1.554              1.120
 Vibration    10          0.750              1.512              1.037
 Vibration    11          0.765              1.474              0.969
 Vibration    12          0.842              1.281              0.694
 Vibration    13          0.871              1.215              0.620
 Vibration    14          0.952              1.043              0.459

 Optimization completed.
    -- Stationary point found.
 Normal termination of Gaussian 16 at Sat Feb 10 10:12:36 2024.
