 Gaussian 16, Revision A.03,
 Gaussian 16:  ES64L-G16RevA.03 25-Dec-2016

 ----------------------------------------------------------------------
 #P UB3LYP/6-311++G(d,p) nosym opt freq SCRF=(PCM,Solvent=n,n-DiMethylF
 ormamide)
 ----------------------------------------------------------------------

 -------
 Radical
 -------
 Symbolic Z-matrix:
 Charge = -1 Multiplicity = 2

 SCF Done:  E(UB3LYP) =  -807.065456930     A.U. after   18 cycles
 SCF Done:  E(UB3LYP) =  -807.066504673     A.U. after   15 cycles
 SCF Done:  E(UB3LYP) =  -807.066793500     A.U. after   15 cycles
 SCF Done:  E(UB3LYP) =  -807.066892484     A.U. after   15 cycles
 SCF Done:  E(UB3LYP) =  -807.067029171     A.U. after   13 cycles
 SCF Done:  E(UB3LYP) =  -807.067135356     A.U. after   14 cycles
 SCF Done:  E(UB3LYP) =  -807.067195388     A.U. after   13 cycles
 SCF Done:  E(UB3LYP) =  -807.067212465     A.U. after   14 cycles
 SCF Done:  E(UB3LYP) =  -807.067216729     A.U. after   12 cycles
 SCF Done:  E(UB3LYP) =  -807.067217733     A.U. after   12 cycles
 SCF Done:  E(UB3LYP) =  -807.067218080     A.U. after   11 cycles
 SCF Done:  E(UB3LYP) =  -807.067218304     A.U. after   10 cycles
 SCF Done:  E(UB3LYP) =  -807.067218339     A.U. after   10 cycles
 Optimization completed.
    -- Stationary point found.
 Normal termination of Gaussian 16 at Sat Feb 10 12:47:13 2024.

 ----------------------------------------------------------------------
 #P Geom=AllCheck Guess=TCheck SCRF=Check GenChk UB3LYP/6-311++G(d,p) F
 req
 ----------------------------------------------------------------------

 Structure from the checkpoint file:  "107-rad.chk"
 -------
 Radical
 -------
 Charge = -1 Multiplicity = 2

                          Input orientation:
 ---------------------------------------------------------------------
 Center     Atomic      Atomic             Coordinates (Angstroms)
 Number     Number       Type             X           Y           Z
 ---------------------------------------------------------------------
      1          6           0       -0.535085   -2.176948    1.210237
      2          6           0        0.852479   -2.445964    1.056937
      3          6           0        1.804710   -1.441128    0.929807
      4          6           0        1.380466   -0.028645    0.943183
      5          6           0       -0.005348    0.240652    1.110849
      6          6           0       -0.956595   -0.764046    1.246478
      7          8           0       -1.421545   -3.097987    1.315163
      8          8           0        2.263134    0.891487    0.803717
      9          7           0       -2.307744   -0.602972    1.442856
     10          7           0        3.164576   -1.600620    0.808318
     11          6           0       -3.160045    0.583291    1.248500
     12          6           0       -4.608619    0.094397    1.417685
     13          6           0       -2.874308    1.650518    2.324664
     14          6           0       -2.994676    1.177736   -0.165860
     15          6           0        3.953448   -2.798988    0.472663
     16          6           0        3.928898   -3.818035    1.630240
     17          6           0        5.399917   -2.312317    0.280716
     18          6           0        3.467357   -3.452012   -0.838278
     19          1           0        1.132904   -3.490685    1.042036
     20          1           0       -0.285961    1.285366    1.124510
     21          1           0       -2.775466   -1.502730    1.411476
     22          1           0        3.608294   -0.705003    0.634010
     23          1           0       -4.855064   -0.662818    0.667205
     24          1           0       -5.306055    0.926608    1.300691
     25          1           0       -4.757789   -0.340410    2.410139
     26          1           0       -3.010938    1.225987    3.322680
     27          1           0       -3.564493    2.491170    2.210828
     28          1           0       -1.858766    2.042342    2.259404
     29          1           0       -3.244373    0.429288   -0.922951
     30          1           0       -1.973745    1.516595   -0.347425
     31          1           0       -3.662982    2.033600   -0.296192
     32          1           0        2.927280   -4.205553    1.819200
     33          1           0        4.292066   -3.352760    2.550327
     34          1           0        4.576664   -4.667245    1.395139
     35          1           0        5.773537   -1.836859    1.192119
     36          1           0        5.462897   -1.589154   -0.538058
     37          1           0        6.054349   -3.153064    0.040883
     38          1           0        2.433452   -3.791992   -0.764023
     39          1           0        4.090616   -4.316765   -1.082942
     40          1           0        3.532034   -2.738034   -1.663957
 ---------------------------------------------------------------------

 SCF Done:  E(UB3LYP) =  -807.067218339     A.U. after    1 cycles

 Alpha  occ. eigenvalues --  -19.05992 -19.05991 -14.30955 -14.30947 -10.21691
 Alpha  occ. eigenvalues --  -10.21685 -10.20686 -10.20684 -10.19594 -10.19590
 Alpha  occ. eigenvalues --  -10.15827 -10.15826 -10.15414 -10.15414 -10.15354
 Alpha  occ. eigenvalues --  -10.15352 -10.13683 -10.13679  -0.98353  -0.97939
 Alpha  occ. eigenvalues --   -0.92082  -0.92005  -0.81214  -0.79565  -0.76825
 Alpha  occ. eigenvalues --   -0.71166  -0.68942  -0.68674  -0.68674  -0.68568
 Alpha  occ. eigenvalues --   -0.66103  -0.61036  -0.56997  -0.56706  -0.53839
 Alpha  occ. eigenvalues --   -0.50637  -0.48377  -0.47882  -0.46586  -0.44797
 Alpha  occ. eigenvalues --   -0.44733  -0.44312  -0.42717  -0.42382  -0.41272
 Alpha  occ. eigenvalues --   -0.40767  -0.40665  -0.39761  -0.39066  -0.38471
 Alpha  occ. eigenvalues --   -0.38386  -0.38028  -0.37128  -0.36669  -0.36636
 Alpha  occ. eigenvalues --   -0.36514  -0.36388  -0.34363  -0.34311  -0.33462
 Alpha  occ. eigenvalues --   -0.32948  -0.32667  -0.30553  -0.29029  -0.23683
 Alpha  occ. eigenvalues --   -0.23029  -0.22645  -0.19021  -0.13244
 Alpha virt. eigenvalues --   -0.00645  -0.00084   0.00927   0.01252   0.01778
 Alpha virt. eigenvalues --    0.02170   0.02420   0.02984   0.03299   0.03465
 Alpha virt. eigenvalues --    0.03861   0.03954   0.04527   0.04650   0.04895

  Beta  occ. eigenvalues --  -19.05520 -19.05519 -14.30756 -14.30748 -10.21698
  Beta  occ. eigenvalues --  -10.21693 -10.20452 -10.20451 -10.19355 -10.19350
  Beta  occ. eigenvalues --  -10.15826 -10.15825 -10.15406 -10.15405 -10.15344
  Beta  occ. eigenvalues --  -10.15341 -10.13777 -10.13773  -0.97538  -0.97096
  Beta  occ. eigenvalues --   -0.91678  -0.91565  -0.80851  -0.79427  -0.76593
  Beta  occ. eigenvalues --   -0.71055  -0.68925  -0.68648  -0.68648  -0.68529
  Beta  occ. eigenvalues --   -0.65197  -0.60838  -0.56642  -0.56549  -0.53675
  Beta  occ. eigenvalues --   -0.50399  -0.48270  -0.47610  -0.46454  -0.44632
  Beta  occ. eigenvalues --   -0.44616  -0.44232  -0.42679  -0.42271  -0.40611
  Beta  occ. eigenvalues --   -0.40548  -0.40356  -0.39562  -0.38666  -0.38350
  Beta  occ. eigenvalues --   -0.38004  -0.37751  -0.36900  -0.36644  -0.36613
  Beta  occ. eigenvalues --   -0.36317  -0.35048  -0.34088  -0.33375  -0.33298
  Beta  occ. eigenvalues --   -0.32922  -0.32568  -0.29694  -0.27203  -0.23239
  Beta  occ. eigenvalues --   -0.22562  -0.20942  -0.18225
  Beta virt. eigenvalues --   -0.06612  -0.00631  -0.00082   0.01269   0.01317
  Beta virt. eigenvalues --    0.01794   0.02176   0.02442   0.03301   0.03476
  Beta virt. eigenvalues --    0.03632   0.03889   0.03968   0.04568   0.04927

 Mulliken charges and spin densities:
               1          2
     1  C   -0.494302   0.144675
     2  C   -0.048530  -0.122545
     3  C    0.067379   0.216526
     4  C   -0.488526   0.144749
     5  C   -0.038423  -0.122440
     6  C    0.065246   0.217308
     7  O   -0.549524   0.173569
     8  O   -0.549592   0.173607
     9  N    0.029913   0.087143
    10  N    0.029152   0.087314
    11  C   -0.046088  -0.001305
    12  C   -0.489896   0.001623
    13  C   -0.425336   0.000243
    14  C   -0.452657   0.004279
    15  C   -0.047902  -0.001294
    16  C   -0.424944   0.000215
    17  C   -0.488852   0.001681
    18  C   -0.451536   0.004265
    19  H    0.224221  -0.001293
    20  H    0.224775  -0.001284
    21  H    0.347543  -0.004058
    22  H    0.347706  -0.004116
    23  H    0.152893  -0.000020
    24  H    0.152273  -0.000244
    25  H    0.153191   0.000727
    26  H    0.153324   0.001098
    27  H    0.162788   0.000529
    28  H    0.110126  -0.001391
    29  H    0.158640   0.000409
    30  H    0.130801  -0.001347
    31  H    0.156208   0.000815
    32  H    0.110300  -0.001396
    33  H    0.153286   0.001095
    34  H    0.162978   0.000536
    35  H    0.153175   0.000717
    36  H    0.152642  -0.000014
    37  H    0.152340  -0.000245
    38  H    0.130155  -0.001361
    39  H    0.156478   0.000823
    40  H    0.158572   0.000410
 Sum of Mulliken charges =  -1.00000   1.00000

 Dipole moment (field-independent basis, Debye):
    X=             -2.1364    Y=              5.2749    Z=             -6.1295  Tot=              8.3642
 Quadrupole moment (field-independent basis, Debye-Ang):
   XX=           -116.5695   YY=           -142.1122   ZZ=           -126.4360
   XY=            -25.1328   XZ=             -2.5240   YZ=             10.3014

  Exact polarizability: 403.090   8.562 299.781 -23.446  -2.704 210.132
 Approx polarizability: 414.065  38.989 321.993 -23.629  -6.481 224.643

                      1                      2                      3
                      A                      A                      A
 Frequencies --     18.9680                37.8878                46.9098
 Red. masses --      3.7024                 4.1918                 2.8470
 Frc consts  --      0.0008                 0.0035                 0.0037
 IR Inten    --     10.2616                 8.0477                 1.0067

                      4                      5                      6
                      A                      A                      A
 Frequencies --     74.0942                88.8720               111.2076
 Red. masses --      3.2243                 3.8913                 6.0677
 Frc consts  --      0.0104                 0.0181                 0.0442
 IR Inten    --      0.5429                 8.0612                 5.7229

                      7                      8                      9
                      A                      A                      A
 Frequencies --    132.4381               180.3143               191.0568
 Red. masses --      4.0090                 1.7639                 1.1075
 Frc consts  --      0.0414                 0.0338                 0.0238
 IR Inten    --      0.0283                 2.3782                 0.1857

                     10                     11                     12
                      A                      A                      A
 Frequencies --    208.4433               218.4383               227.4045
 Red. masses --      1.9291                 2.6955                 1.2715
 Frc consts  --      0.0494                 0.0758                 0.0387
 IR Inten    --      0.0102                 0.4686                 7.8181

                     13                     14                     15
                      A                      A                      A
 Frequencies --    233.1169               250.6662               265.3104
 Red. masses --      1.3600                 3.1295                 2.2131
 Frc consts  --      0.0435                 0.1159                 0.0918
 IR Inten    --      0.3256                 0.1198                13.9024

                     16                     17                     18
                      A                      A                      A
 Frequencies --    271.5210               273.8556               283.5795
 Red. masses --      1.0743                 1.1386                 2.1774
 Frc consts  --      0.0467                 0.0503                 0.1032
 IR Inten    --      0.1773                 0.7696                 0.3688

                     19                     20                     21
                      A                      A                      A
 Frequencies --    307.5202               347.7444               349.0643
 Red. masses --      3.4845                 2.5874                 2.5875
 Frc consts  --      0.1941                 0.1843                 0.1858
 IR Inten    --     14.6922                 3.9879                 3.6527

                     22                     23                     24
                      A                      A                      A
 Frequencies --    386.7801               391.6742               432.1328
 Red. masses --      2.5078                 2.5159                 3.8962
 Frc consts  --      0.2210                 0.2274                 0.4287
 IR Inten    --      0.5598                 1.6862                 7.0153

                     25                     26                     27
                      A                      A                      A
 Frequencies --    440.9673               442.0614               449.9544
 Red. masses --      3.4012                 3.1546                 3.0566
 Frc consts  --      0.3897                 0.3632                 0.3646
 IR Inten    --     30.5844                21.4643                 2.8062

                     28                     29                     30
                      A                      A                      A
 Frequencies --    472.2113               478.8672               479.9626
 Red. masses --      3.2767                 4.7858                 4.5817
 Frc consts  --      0.4305                 0.6466                 0.6219
 IR Inten    --     22.1756                69.3688                 4.6990

                     31                     32                     33
                      A                      A                      A
 Frequencies --    523.9203               540.9541               555.9315
 Red. masses --      1.8470                 1.3146                 1.5395
 Frc consts  --      0.2987                 0.2267                 0.2803
 IR Inten    --     32.3038               155.7757                69.4953

                     34                     35                     36
                      A                      A                      A
 Frequencies --    594.0101               643.9953               707.5048
 Red. masses --      3.4005                 4.6385                 4.9203
 Frc consts  --      0.7069                 1.1334                 1.4511
 IR Inten    --     30.4781                 1.2088                38.3127

                     37                     38                     39
                      A                      A                      A
 Frequencies --    732.3172               735.6532               767.9959
 Red. masses --      2.8488                 7.6727                 4.7471
 Frc consts  --      0.9001                 2.4465                 1.6497
 IR Inten    --      2.5308                 2.5885                 0.6326

                     40                     41                     42
                      A                      A                      A
 Frequencies --    776.2328               782.0003               806.3917
 Red. masses --      3.6060                 3.6514                 1.6792
 Frc consts  --      1.2801                 1.3156                 0.6433
 IR Inten    --     17.6870                 1.9067                 0.6489

                     43                     44                     45
                      A                      A                      A
 Frequencies --    827.5475               897.6730               912.2239
 Red. masses --      1.4809                 2.7266                 1.7634
 Frc consts  --      0.5975                 1.2945                 0.8646
 IR Inten    --    116.2041                52.5443                 0.7863

                     46                     47                     48
                      A                      A                      A
 Frequencies --    912.3445               922.0147               928.6704
 Red. masses --      1.7583                 1.8260                 1.6299
 Frc consts  --      0.8623                 0.9146                 0.8282
 IR Inten    --      0.2886                 0.1628                 1.1266

                     49                     50                     51
                      A                      A                      A
 Frequencies --    950.3066               960.8422               961.1138
 Red. masses --      2.1681                 1.1994                 1.2020
 Frc consts  --      1.1536                 0.6524                 0.6542
 IR Inten    --      0.0335                 0.0796                 0.0665

                     52                     53                     54
                      A                      A                      A
 Frequencies --    972.5590              1043.5138              1043.7634
 Red. masses --      2.5547                 1.3927                 1.3928
 Frc consts  --      1.4237                 0.8935                 0.8940
 IR Inten    --     35.8477                 3.4161                 4.3450

                     55                     56                     57
                      A                      A                      A
 Frequencies --   1053.7687              1054.1755              1189.4038
 Red. masses --      1.4164                 1.4209                 2.7326
 Frc consts  --      0.9267                 0.9303                 2.2777
 IR Inten    --      6.7655                 1.0755               132.0625

                     58                     59                     60
                      A                      A                      A
 Frequencies --   1204.9819              1228.0301              1228.5774
 Red. masses --      1.8315                 2.5484                 2.5273
 Frc consts  --      1.5668                 2.2643                 2.2476
 IR Inten    --      0.0943                33.5880                22.2902

                     61                     62                     63
                      A                      A                      A
 Frequencies --   1230.3860              1234.5488              1235.2368
 Red. masses --      6.0921                 2.6658                 2.7838
 Frc consts  --      5.4337                 2.3938                 2.5026
 IR Inten    --    188.0301                17.4681                70.6663

                     64                     65                     66
                      A                      A                      A
 Frequencies --   1250.7537              1251.2664              1268.0028
 Red. masses --      2.7841                 2.9072                 2.1887
 Frc consts  --      2.5661                 2.6818                 2.0734
 IR Inten    --    239.6707               426.5430                 0.1071

                     67                     68                     69
                      A                      A                      A
 Frequencies --   1301.2059              1391.5784              1392.0665
 Red. masses --      2.2719                 1.2362                 1.2371
 Frc consts  --      2.2663                 1.4104                 1.4124
 IR Inten    --    555.6265                17.5350                13.1976

                     70                     71                     72
                      A                      A                      A
 Frequencies --   1392.8322              1393.7278              1400.2631
 Red. masses --      1.2978                 1.2413                 2.8424
 Frc consts  --      1.4834                 1.4206                 3.2836
 IR Inten    --     11.4257                13.9659                 2.6320

                     73                     74                     75
                      A                      A                      A
 Frequencies --   1417.6924              1419.6660              1471.5874
 Red. masses --      1.2377                 1.2807                 1.0620
 Frc consts  --      1.4656                 1.5208                 1.3550
 IR Inten    --     82.2605                 1.7100                13.3530

                     76                     77                     78
                      A                      A                      A
 Frequencies --   1471.9458              1473.3091              1477.0272
 Red. masses --      1.0656                 3.6591                 2.8072
 Frc consts  --      1.3603                 4.6797                 3.6083
 IR Inten    --     18.6313                 1.1966              1273.9193

                     79                     80                     81
                      A                      A                      A
 Frequencies --   1480.1261              1480.3201              1480.8464
 Red. masses --      1.0468                 1.0458                 1.0737
 Frc consts  --      1.3511                 1.3503                 1.3872
 IR Inten    --      3.6197                 1.4481                18.5855

                     82                     83                     84
                      A                      A                      A
 Frequencies --   1481.4260              1489.8641              1493.1427
 Red. masses --      1.0807                 1.1461                 1.1118
 Frc consts  --      1.3974                 1.4989                 1.4604
 IR Inten    --      0.0565               406.0126                13.3226

                     85                     86                     87
                      A                      A                      A
 Frequencies --   1494.6019              1495.2731              1505.8971
 Red. masses --      1.1929                 1.1448                 1.1568
 Frc consts  --      1.5701                 1.5081                 1.5457
 IR Inten    --     40.6219               215.8022               135.9000

                     88                     89                     90
                      A                      A                      A
 Frequencies --   1507.8758              1523.6478              1528.3653
 Red. masses --      1.0679                 3.9833                 1.5326
 Frc consts  --      1.4306                 5.4483                 2.1092
 IR Inten    --      0.9248              1056.2201               228.6487

                     91                     92                     93
                      A                      A                      A
 Frequencies --   1548.3399              1598.5629              3021.0446
 Red. masses --      1.8471                 6.1586                 1.0354
 Frc consts  --      2.6090                 9.2724                 5.5678
 IR Inten    --      0.4915                 0.0835                39.3520

                     94                     95                     96
                      A                      A                      A
 Frequencies --   3021.1596              3026.2429              3026.3725
 Red. masses --      1.0354                 1.0364                 1.0364
 Frc consts  --      5.5681                 5.5925                 5.5930
 IR Inten    --     37.1999                47.9920                60.5673

                     97                     98                     99
                      A                      A                      A
 Frequencies --   3033.9308              3034.1540              3083.7369
 Red. masses --      1.0377                 1.0376                 1.1027
 Frc consts  --      5.6276                 5.6281                 6.1783
 IR Inten    --     57.6608                15.7993                18.8586

                    100                    101                    102
                      A                      A                      A
 Frequencies --   3083.8283              3088.0920              3088.4001
 Red. masses --      1.1027                 1.1023                 1.1023
 Frc consts  --      6.1787                 6.1932                 6.1946
 IR Inten    --     17.8570                65.3047                66.0972

                    103                    104                    105
                      A                      A                      A
 Frequencies --   3090.5741              3091.0645              3102.4870
 Red. masses --      1.1021                 1.1020                 1.1011
 Frc consts  --      6.2024                 6.2039                 6.2446
 IR Inten    --     41.3441                39.8642                98.0955

                    106                    107                    108
                      A                      A                      A
 Frequencies --   3102.6136              3110.5669              3110.6586
 Red. masses --      1.1011                 1.0997                 1.0997
 Frc consts  --      6.2449                 6.2689                 6.2695
 IR Inten    --     64.0770                29.4622                21.1005

                    109                    110                    111
                      A                      A                      A
 Frequencies --   3114.8817              3115.1917              3193.2380
 Red. masses --      1.0992                 1.0990                 1.0877
 Frc consts  --      6.2835                 6.2837                 6.5344
 IR Inten    --     70.6326                45.3078                65.2786

                    112                    113                    114
                      A                      A                      A
 Frequencies --   3195.5208              3520.3930              3521.2208
 Red. masses --      1.0880                 1.0751                 1.0751
 Frc consts  --      6.5460                 7.8505                 7.8538
 IR Inten    --      0.0643                70.2485               133.9186

 - Thermochemistry -
 -------------------
 Temperature   298.150 Kelvin.  Pressure   1.00000 Atm.
 Atom     1 has atomic number  6 and mass  12.00000

 Molecular mass:   250.16813 amu.
 Principal axes and moments of inertia in atomic units:
                           1         2         3
     Eigenvalues --  1875.069329372.58188**********
           X            0.91317   0.39036   0.11726
           Y           -0.39503   0.91848   0.01873
           Z           -0.10039  -0.06342   0.99292
 This molecule is an asymmetric top.
 Rotational symmetry number  1.
 Warning -- assumption of classical behavior for rotation
           may cause significant error
 Rotational temperatures (Kelvin)      0.04619     0.00924     0.00831
 Rotational constants (GHZ):           0.96249     0.19256     0.17318
 Zero-point vibrational energy     890668.8 (Joules/Mol)
                                  212.87496 (Kcal/Mol)
 Warning -- explicit consideration of  34 degrees of freedom as
           vibrations may cause significant error
 Vibrational temperatures:     27.29    54.51    67.49   106.61   127.87
          (Kelvin)            160.00   190.55   259.43   274.89   299.90
                              314.28   327.18   335.40   360.65   381.72
                              390.66   394.02   408.01   442.45   500.33
                              502.23   556.49   563.53   621.74   634.45
                              636.03   647.38   679.41   688.98   690.56
                              753.80   778.31   799.86   854.65   926.57
                             1017.94  1053.64  1058.44  1104.97  1116.83
                             1125.12  1160.22  1190.66  1291.55  1312.49
                             1312.66  1326.57  1336.15  1367.28  1382.44
                             1382.83  1399.30  1501.38  1501.74  1516.14
                             1516.72  1711.29  1733.70  1766.86  1767.65
                             1770.25  1776.24  1777.23  1799.56  1800.29
                             1824.37  1872.15  2002.17  2002.87  2003.97
                             2005.26  2014.67  2039.74  2042.58  2117.29
                             2117.80  2119.76  2125.11  2129.57  2129.85
                             2130.61  2131.44  2143.58  2148.30  2150.40
                             2151.36  2166.65  2169.50  2192.19  2198.98
                             2227.72  2299.98  4346.61  4346.77  4354.09
                             4354.28  4365.15  4365.47  4436.81  4436.94
                             4443.08  4443.52  4446.65  4447.35  4463.79
                             4463.97  4475.41  4475.54  4481.62  4482.07
                             4594.36  4597.64  5065.06  5066.25

 Zero-point correction=                           0.339238 (Hartree/Particle)
 Thermal correction to Energy=                    0.359222
 Thermal correction to Enthalpy=                  0.360166
 Thermal correction to Gibbs Free Energy=         0.290591
 Sum of electronic and zero-point Energies=           -806.727980
 Sum of electronic and thermal Energies=              -806.707996
 Sum of electronic and thermal Enthalpies=            -806.707052
 Sum of electronic and thermal Free Energies=         -806.776627

                     E (Thermal)             CV                S
                      KCal/Mol        Cal/Mol-Kelvin    Cal/Mol-Kelvin
 Total                  225.415             77.147            146.434
 Electronic               0.000              0.000              1.377
 Translational            0.889              2.981             42.451
 Rotational               0.889              2.981             33.571
 Vibrational            223.638             71.186             69.034
 Vibration     1          0.593              1.986              6.739
 Vibration     2          0.594              1.982              5.367
 Vibration     3          0.595              1.979              4.944
 Vibration     4          0.599              1.966              4.042
 Vibration     5          0.602              1.957              3.685
 Vibration     6          0.607              1.940              3.248
 Vibration     7          0.613              1.921              2.910
 Vibration     8          0.629              1.866              2.325
 Vibration     9          0.634              1.852              2.218
 Vibration    10          0.642              1.828              2.057
 Vibration    11          0.646              1.813              1.972
 Vibration    12          0.651              1.799              1.899
 Vibration    13          0.654              1.790              1.855
 Vibration    14          0.663              1.762              1.726
 Vibration    15          0.671              1.737              1.627
 Vibration    16          0.675              1.726              1.587
 Vibration    17          0.676              1.722              1.572
 Vibration    18          0.682              1.704              1.512
 Vibration    19          0.697              1.659              1.376
 Vibration    20          0.725              1.580              1.176
 Vibration    21          0.726              1.577              1.170
 Vibration    22          0.755              1.498              1.013
 Vibration    23          0.759              1.488              0.994
 Vibration    24          0.793              1.400              0.852
 Vibration    25          0.801              1.381              0.824
 Vibration    26          0.802              1.378              0.820
 Vibration    27          0.809              1.361              0.796
 Vibration    28          0.829              1.312              0.731
 Vibration    29          0.835              1.297              0.713
 Vibration    30          0.836              1.294              0.710
 Vibration    31          0.879              1.197              0.601
 Vibration    32          0.896              1.160              0.563
 Vibration    33          0.911              1.127              0.532
 Vibration    34          0.952              1.045              0.460

                           ! Non-Optimized Parameters !
 Normal termination of Gaussian 16 at Sat Feb 10 14:04:34 2024.
