 Gaussian 16, Revision A.03,
 Gaussian 16:  ES64L-G16RevA.03 25-Dec-2016

 --------------------------------------
 #P UB3LYP/6-311++G(d,p) nosym opt freq
 --------------------------------------

 -------
 Reduced
 -------
 Symbolic Z-matrix:
 Charge = -2 Multiplicity = 1

 SCF Done:  E(UB3LYP) =  -917.868713846     A.U. after   36 cycles
 Optimization completed.
    -- Stationary point found.
 Normal termination of Gaussian 16 at Sun Jan  7 06:55:29 2024.

 ----------------------------------------------------------------------
 #P Geom=AllCheck Guess=TCheck SCRF=Check GenChk UB3LYP/6-311++G(d,p) F
 req
 ----------------------------------------------------------------------

 Structure from the checkpoint file:  "211-an.chk"
 -------
 Reduced
 -------
 Charge = -2 Multiplicity = 1

                          Input orientation:
 ---------------------------------------------------------------------
 Center     Atomic      Atomic             Coordinates (Angstroms)
 Number     Number       Type             X           Y           Z
 ---------------------------------------------------------------------
      1          6           0        5.248338   -2.323735    0.383684
      2          6           0        6.013942   -1.505175   -0.424327
      3          6           0        5.380518   -0.606245   -1.319387
      4          6           0        3.832228   -2.300667    0.351279
      5          6           0        3.195563   -1.391060   -0.556116
      6          6           0        4.000257   -0.562151   -1.371605
      7          6           0        3.095174   -3.197564    1.241963
      8          6           0        1.660251   -3.129185    1.151275
      9          6           0        1.024619   -2.198309    0.228244
     10          6           0        1.746064   -1.304186   -0.650483
     11          6           0        0.790694   -3.977553    1.968129
     12          6           0       -0.639929   -3.864472    1.863096
     13          6           0       -0.388871   -2.140137    0.169265
     14          6           0       -1.203117   -2.922324    0.942979
     15          8           0        3.750369   -3.974946    2.030267
     16          8           0        1.174694   -0.492010   -1.456534
     17          1           0        5.701781   -3.021247    1.080139
     18          1           0        7.100619   -1.549409   -0.374486
     19          1           0        5.977244    0.042311   -1.958199
     20          1           0       -2.286374   -2.838214    0.876803
     21          1           0        3.477431    0.111951   -2.042868
     22          1           0       -0.802404   -1.424070   -0.534286
     23          6           0       -1.476141   -4.692039    2.647387
     24          6           0       -0.946853   -5.612443    3.539494
     25          6           0        0.435027   -5.730635    3.668498
     26          6           0        1.280399   -4.937092    2.892324
     27          8           0       -1.764401   -6.434902    4.321244
     28          1           0       -2.555975   -4.615839    2.521074
     29          1           0        0.843097   -6.442760    4.379713
     30          1           0        2.355925   -5.021405    2.973727
     31          1           0       -2.656982   -6.067057    4.299104
 ---------------------------------------------------------------------

 SCF Done:  E(UB3LYP) =  -917.868713846     A.U. after    4 cycles

 Alpha  occ. eigenvalues --  -18.95121 -18.80042 -18.79391 -10.01099  -9.95986
 Alpha  occ. eigenvalues --   -9.95578  -9.95498  -9.94909  -9.94689  -9.94631
 Alpha  occ. eigenvalues --   -9.94457  -9.94437  -9.93753  -9.93482  -9.93150
 Alpha  occ. eigenvalues --   -9.93082  -9.92926  -9.92399  -9.92298  -9.91781
 Alpha  occ. eigenvalues --   -9.91310  -0.85191  -0.72005  -0.71263  -0.63389
 Alpha  occ. eigenvalues --   -0.61493  -0.58206  -0.54243  -0.52194  -0.51147
 Alpha  occ. eigenvalues --   -0.50725  -0.47901  -0.42703  -0.40107  -0.39908
 Alpha  occ. eigenvalues --   -0.37293  -0.35860  -0.33148  -0.31410  -0.29878
 Alpha  occ. eigenvalues --   -0.28051  -0.26576  -0.24111  -0.22917  -0.22038
 Alpha  occ. eigenvalues --   -0.21561  -0.20426  -0.19923  -0.19150  -0.18491
 Alpha  occ. eigenvalues --   -0.17318  -0.16230  -0.16084  -0.15434  -0.14973
 Alpha  occ. eigenvalues --   -0.13617  -0.13344  -0.12161  -0.10597  -0.10374
 Alpha  occ. eigenvalues --   -0.10138  -0.09692  -0.08272  -0.07037  -0.03508
 Alpha  occ. eigenvalues --   -0.01706  -0.00402  -0.00331   0.02344   0.02364
 Alpha  occ. eigenvalues --    0.03443   0.11560
 Alpha virt. eigenvalues --    0.13101   0.15270   0.16785   0.17120   0.17458
 Alpha virt. eigenvalues --    0.18464   0.19293   0.19753   0.19957   0.20990
 Alpha virt. eigenvalues --    0.21738   0.22011   0.22591   0.23328   0.23769

  Beta  occ. eigenvalues --  -18.95121 -18.80042 -18.79391 -10.01099  -9.95986
  Beta  occ. eigenvalues --   -9.95578  -9.95498  -9.94909  -9.94689  -9.94631
  Beta  occ. eigenvalues --   -9.94457  -9.94437  -9.93753  -9.93482  -9.93150
  Beta  occ. eigenvalues --   -9.93082  -9.92926  -9.92399  -9.92298  -9.91781
  Beta  occ. eigenvalues --   -9.91310  -0.85191  -0.72005  -0.71263  -0.63389
  Beta  occ. eigenvalues --   -0.61493  -0.58206  -0.54243  -0.52194  -0.51147
  Beta  occ. eigenvalues --   -0.50725  -0.47901  -0.42703  -0.40107  -0.39908
  Beta  occ. eigenvalues --   -0.37293  -0.35860  -0.33148  -0.31410  -0.29878
  Beta  occ. eigenvalues --   -0.28051  -0.26576  -0.24111  -0.22917  -0.22038
  Beta  occ. eigenvalues --   -0.21561  -0.20426  -0.19923  -0.19150  -0.18491
  Beta  occ. eigenvalues --   -0.17318  -0.16230  -0.16084  -0.15434  -0.14973
  Beta  occ. eigenvalues --   -0.13617  -0.13344  -0.12161  -0.10597  -0.10374
  Beta  occ. eigenvalues --   -0.10138  -0.09692  -0.08272  -0.07037  -0.03508
  Beta  occ. eigenvalues --   -0.01706  -0.00402  -0.00331   0.02344   0.02364
  Beta  occ. eigenvalues --    0.03443   0.11560
  Beta virt. eigenvalues --    0.13101   0.15270   0.16785   0.17120   0.17458
  Beta virt. eigenvalues --    0.18464   0.19293   0.19753   0.19957   0.20990
  Beta virt. eigenvalues --    0.21738   0.22011   0.22591   0.23328   0.23769

 Mulliken charges and spin densities:
               1          2
     1  C   -0.055990  -0.000000
     2  C   -0.484925  -0.000000
     3  C   -0.434331   0.000000
     4  C    0.394882  -0.000000
     5  C    0.381442   0.000000
     6  C   -0.129458   0.000000
     7  C   -0.722487  -0.000000
     8  C    0.623899  -0.000000
     9  C    0.776590   0.000000
    10  C   -1.145346  -0.000000
    11  C    0.965166  -0.000000
    12  C    0.663321  -0.000000
    13  C   -0.188483  -0.000000
    14  C   -0.425215  -0.000000
    15  O   -0.449693  -0.000000
    16  O   -0.469583  -0.000000
    17  H    0.130403   0.000000
    18  H    0.083410   0.000000
    19  H    0.081329   0.000000
    20  H    0.064780  -0.000000
    21  H    0.130472   0.000000
    22  H    0.133336  -0.000000
    23  C   -1.039385   0.000000
    24  C   -0.080418  -0.000000
    25  C    0.008008  -0.000000
    26  C   -0.548261   0.000000
    27  O   -0.316241   0.000000
    28  H   -0.111585   0.000000
    29  H    0.135333  -0.000000
    30  H    0.163020   0.000000
    31  H   -0.133991   0.000000
 Sum of Mulliken charges =  -2.00000   0.00000

 Dipole moment (field-independent basis, Debye):
    X=            -16.7174    Y=             28.5650    Z=             -9.5147  Tot=             34.4378
 Quadrupole moment (field-independent basis, Debye-Ang):
   XX=           -220.9353   YY=           -266.2911   ZZ=           -188.8605
   XY=             27.4706   XZ=              4.7757   YZ=             71.5156

  Exact polarizability:1642.077 696.679 609.251-813.287-535.433 764.755
 Approx polarizability:3244.7931528.7191276.292****************1553.195

                      1                      2                      3
                      A                      A                      A
 Frequencies --     40.6530                59.1433               101.3452
 Red. masses --      6.9325                 5.6114                 6.0392
 Frc consts  --      0.0068                 0.0116                 0.0365
 IR Inten    --      1.5221                 1.5450                 5.6798

                      4                      5                      6
                      A                      A                      A
 Frequencies --    134.4613               154.8249               178.3304
 Red. masses --      4.6224                 6.2956                 8.2725
 Frc consts  --      0.0492                 0.0889                 0.1550
 IR Inten    --      0.5274                 1.3635                 7.2604

                      7                      8                      9
                      A                      A                      A
 Frequencies --    192.2531               252.1002               273.6379
 Red. masses --      4.7506                 4.7903                 5.3335
 Frc consts  --      0.1035                 0.1794                 0.2353
 IR Inten    --      1.6886                 8.9538                 2.9012

                     10                     11                     12
                      A                      A                      A
 Frequencies --    280.0394               287.0521               327.9485
 Red. masses --      1.8059                 2.2076                 8.3012
 Frc consts  --      0.0834                 0.1072                 0.5260
 IR Inten    --     41.1688                39.2138                76.4096

                     13                     14                     15
                      A                      A                      A
 Frequencies --    340.1353               388.0426               400.5839
 Red. masses --      6.5290                10.4246                 4.6553
 Frc consts  --      0.4450                 0.9248                 0.4401
 IR Inten    --      8.7432                64.8003                22.2444

                     16                     17                     18
                      A                      A                      A
 Frequencies --    404.4173               437.5042               448.4419
 Red. masses --      6.5792                 4.7931                 3.2338
 Frc consts  --      0.6340                 0.5405                 0.3832
 IR Inten    --     13.6321                 8.7400                10.1966

                     19                     20                     21
                      A                      A                      A
 Frequencies --    463.3084               473.5830               520.8336
 Red. masses --      4.7849                11.0735                 7.6649
 Frc consts  --      0.6051                 1.4633                 1.2250
 IR Inten    --    378.3119               707.8024                 5.9113

                     22                     23                     24
                      A                      A                      A
 Frequencies --    531.3729               546.2408               547.7408
 Red. masses --      3.2269                 5.9427                 4.8613
 Frc consts  --      0.5368                 1.0447                 0.8593
 IR Inten    --     11.9508                22.7736                23.7478

                     25                     26                     27
                      A                      A                      A
 Frequencies --    615.4918               626.5415               652.7227
 Red. masses --      6.6048                 3.6568                 6.7344
 Frc consts  --      1.4742                 0.8458                 1.6905
 IR Inten    --     15.1198                 8.0698                 0.1834

                     28                     29                     30
                      A                      A                      A
 Frequencies --    679.2845               682.0719               696.1539
 Red. masses --      4.3191                 6.8602                 1.7307
 Frc consts  --      1.1742                 1.8804                 0.4942
 IR Inten    --      3.2684                 2.4145                78.0148

                     31                     32                     33
                      A                      A                      A
 Frequencies --    731.4895               739.0483               748.3404
 Red. masses --      6.2670                 1.5413                 2.4198
 Frc consts  --      1.9757                 0.4960                 0.7984
 IR Inten    --     83.4821                43.0880                 8.5035

                     34                     35                     36
                      A                      A                      A
 Frequencies --    767.8253               794.8038               796.8331
 Red. masses --      2.4852                 1.8519                 5.6141
 Frc consts  --      0.8632                 0.6893                 2.1002
 IR Inten    --     22.7401                14.7951                45.8231

                     37                     38                     39
                      A                      A                      A
 Frequencies --    803.6903               814.0605               822.1208
 Red. masses --      2.1973                 1.5698                 6.2519
 Frc consts  --      0.8362                 0.6129                 2.4896
 IR Inten    --     12.4207                47.8428                 5.9746

                     40                     41                     42
                      A                      A                      A
 Frequencies --    835.2309               910.3311               955.4785
 Red. masses --      3.0825                 6.5248                 4.3325
 Frc consts  --      1.2670                 3.1858                 2.3304
 IR Inten    --      1.1385                 2.7655               349.6977

                     43                     44                     45
                      A                      A                      A
 Frequencies --    957.4728               967.5039               976.1200
 Red. masses --      1.2594                 1.3289                 1.2742
 Frc consts  --      0.6803                 0.7329                 0.7153
 IR Inten    --      0.7075                 2.4257                51.3528

                     46                     47                     48
                      A                      A                      A
 Frequencies --    983.6304               998.6700              1023.7317
 Red. masses --      1.3087                 4.8862                 2.0015
 Frc consts  --      0.7460                 2.8712                 1.2359
 IR Inten    --      6.8055               335.3416               251.0418

                     49                     50                     51
                      A                      A                      A
 Frequencies --   1075.0028              1100.3258              1114.8236
 Red. masses --      3.1364                 1.8213                 1.6578
 Frc consts  --      2.1355                 1.2992                 1.2140
 IR Inten    --     43.3934                12.7805               130.2107

                     52                     53                     54
                      A                      A                      A
 Frequencies --   1134.1291              1138.6997              1170.7239
 Red. masses --      1.3267                 1.5188                 1.6256
 Frc consts  --      1.0054                 1.1603                 1.3127
 IR Inten    --   1540.6311              1206.5707               282.9370

                     55                     56                     57
                      A                      A                      A
 Frequencies --   1179.2859              1190.8561              1212.6341
 Red. masses --      1.5579                 2.5305                 2.1363
 Frc consts  --      1.2765                 2.1144                 1.8509
 IR Inten    --    121.9879               283.4900               227.5577

                     58                     59                     60
                      A                      A                      A
 Frequencies --   1228.7392              1244.5744              1269.1365
 Red. masses --      2.6374                 2.3523                 2.3069
 Frc consts  --      2.3461                 2.1468                 2.1893
 IR Inten    --     66.2635               465.2831                35.8708

                     61                     62                     63
                      A                      A                      A
 Frequencies --   1284.6131              1322.9365              1347.0569
 Red. masses --      2.8088                 5.1164                 6.0576
 Frc consts  --      2.7310                 5.2758                 6.4762
 IR Inten    --     63.1087               181.1387               218.2274

                     64                     65                     66
                      A                      A                      A
 Frequencies --   1353.1715              1387.9899              1395.6038
 Red. masses --      8.4762                 2.9044                 2.2439
 Frc consts  --      9.1444                 3.2967                 2.5750
 IR Inten    --    134.3937               128.6021               332.3679

                     67                     68                     69
                      A                      A                      A
 Frequencies --   1429.6125              1453.9889              1461.8804
 Red. masses --      5.5576                 4.2305                 3.0445
 Frc consts  --      6.6923                 5.2694                 3.8335
 IR Inten    --   1407.0151               818.5999               760.8022

                     70                     71                     72
                      A                      A                      A
 Frequencies --   1482.0273              1492.4810              1521.4855
 Red. masses --      3.1493                 3.6617                 4.9269
 Frc consts  --      4.0755                 4.8057                 6.7199
 IR Inten    --    615.5148               272.7912               624.5865

                     73                     74                     75
                      A                      A                      A
 Frequencies --   1555.7596              1570.3689              1588.5392
 Red. masses --      5.2158                 6.7980                 5.4896
 Frc consts  --      7.4380                 9.8773                 8.1618
 IR Inten    --    152.2086              3671.1832                53.0065

                     76                     77                     78
                      A                      A                      A
 Frequencies --   1596.1565              1618.8473              3094.9971
 Red. masses --      5.5165                 6.5687                 1.0829
 Frc consts  --      8.2807                10.1425                 6.1117
 IR Inten    --     52.2953                28.5373                35.3513

                     79                     80                     81
                      A                      A                      A
 Frequencies --   3096.4440              3106.5502              3118.6175
 Red. masses --      1.0879                 1.0867                 1.0910
 Frc consts  --      6.1455                 6.1790                 6.2519
 IR Inten    --    205.4320               141.9026               363.0623

                     82                     83                     84
                      A                      A                      A
 Frequencies --   3145.4911              3158.2250              3161.3297
 Red. masses --      1.0888                 1.0908                 1.0908
 Frc consts  --      6.3471                 6.4106                 6.4227
 IR Inten    --     29.9184                37.4375               120.0614

                     85                     86                     87
                      A                      A                      A
 Frequencies --   3167.5192              3185.6442              3737.5351
 Red. masses --      1.0907                 1.0921                 1.0655
 Frc consts  --      6.4476                 6.5301                 8.7695
 IR Inten    --    156.0379                54.9702              7774.4026

 - Thermochemistry -
 -------------------
 Temperature   298.150 Kelvin.  Pressure   1.00000 Atm.
 Atom     1 has atomic number  6 and mass  12.00000

 Molecular mass:   274.06299 amu.
 Principal axes and moments of inertia in atomic units:
                           1         2         3
     Eigenvalues --  2350.660069395.40056**********
           X            0.67538   0.73745  -0.00547
           Y            0.52924  -0.47949   0.70000
           Z           -0.51359   0.47566   0.71413
 This molecule is an asymmetric top.
 Rotational symmetry number  1.
 Warning -- assumption of classical behavior for rotation
           may cause significant error
 Rotational temperatures (Kelvin)      0.03685     0.00922     0.00737
 Rotational constants (GHZ):           0.76776     0.19209     0.15366
 Zero-point vibrational energy     587704.0 (Joules/Mol)
                                  140.46464 (Kcal/Mol)
 Warning -- explicit consideration of  25 degrees of freedom as
           vibrations may cause significant error
 Vibrational temperatures:     58.49    85.09   145.81   193.46   222.76
          (Kelvin)            256.58   276.61   362.72   393.70   402.91
                              413.00   471.84   489.38   558.31   576.35
                              581.87   629.47   645.21   666.60   681.38
                              749.36   764.53   785.92   788.08   885.56
                              901.45   939.12   977.34   981.35  1001.61
                             1052.45  1063.33  1076.69  1104.73  1143.55
                             1146.47  1156.33  1171.25  1182.85  1201.71
                             1309.76  1374.72  1377.59  1392.02  1404.42
                             1415.22  1436.86  1472.92  1546.69  1583.12
                             1603.98  1631.76  1638.33  1684.41  1696.73
                             1713.38  1744.71  1767.88  1790.66  1826.00
                             1848.27  1903.41  1938.11  1946.91  1997.01
                             2007.96  2056.89  2091.97  2103.32  2132.31
                             2147.35  2189.08  2238.39  2259.41  2285.55
                             2296.51  2329.16  4453.01  4455.09  4469.63
                             4487.00  4525.66  4543.98  4548.45  4557.35
                             4583.43  5377.48

 Zero-point correction=                           0.223845 (Hartree/Particle)
 Thermal correction to Energy=                    0.239187
 Thermal correction to Enthalpy=                  0.240131
 Thermal correction to Gibbs Free Energy=         0.181687
 Sum of electronic and zero-point Energies=           -917.644869
 Sum of electronic and thermal Energies=              -917.629527
 Sum of electronic and thermal Enthalpies=            -917.628583
 Sum of electronic and thermal Free Energies=         -917.687027

                     E (Thermal)             CV                S
                      KCal/Mol        Cal/Mol-Kelvin    Cal/Mol-Kelvin
 Total                  150.092             63.785            123.006
 Electronic               0.000              0.000              0.000
 Translational            0.889              2.981             42.723
 Rotational               0.889              2.981             33.916
 Vibrational            148.315             57.823             46.366
 Vibration     1          0.594              1.981              5.227
 Vibration     2          0.597              1.974              4.486
 Vibration     3          0.604              1.948              3.428
 Vibration     4          0.613              1.919              2.881
 Vibration     5          0.620              1.897              2.612
 Vibration     6          0.629              1.869              2.346
 Vibration     7          0.634              1.851              2.206
 Vibration     8          0.664              1.759              1.716
 Vibration     9          0.676              1.722              1.573
 Vibration    10          0.680              1.711              1.533
 Vibration    11          0.684              1.698              1.491
 Vibration    12          0.711              1.620              1.270
 Vibration    13          0.720              1.595              1.212
 Vibration    14          0.756              1.496              1.008
 Vibration    15          0.766              1.469              0.961
 Vibration    16          0.770              1.461              0.947
 Vibration    17          0.798              1.388              0.834
 Vibration    18          0.807              1.364              0.800
 Vibration    19          0.821              1.331              0.757
 Vibration    20          0.830              1.309              0.728
 Vibration    21          0.876              1.204              0.608
 Vibration    22          0.886              1.181              0.584
 Vibration    23          0.901              1.148              0.552
 Vibration    24          0.903              1.145              0.549
 Vibration    25          0.975              0.999              0.424

 Optimization completed.
    -- Stationary point found.
 Normal termination of Gaussian 16 at Sun Jan  7 08:30:12 2024.
