 Q-Chem 5.4, Q-Chem, Inc., Pleasanton, CA (2021)
 Q-Chem 5.4.0 for Intel X86 EM64T Linux

User input:
--------------------------------------------------------------
$molecule
-2 1
C                  5.2483380000     -2.3237350000      0.3836840000
C                  6.0139420000     -1.5051750000     -0.4243270000
C                  5.3805180000     -0.6062450000     -1.3193870000
C                  3.8322280000     -2.3006670000      0.3512790000
C                  3.1955630000     -1.3910600000     -0.5561160000
C                  4.0002570000     -0.5621510000     -1.3716050000
C                  3.0951740000     -3.1975640000      1.2419630000
C                  1.6602510000     -3.1291850000      1.1512750000
C                  1.0246190000     -2.1983090000      0.2282440000
C                  1.7460640000     -1.3041860000     -0.6504830000
C                  0.7906940000     -3.9775530000      1.9681290000
C                 -0.6399290000     -3.8644720000      1.8630960000
C                 -0.3888710000     -2.1401370000      0.1692650000
C                 -1.2031170000     -2.9223240000      0.9429790000
O                  3.7503690000     -3.9749460000      2.0302670000
O                  1.1746940000     -0.4920100000     -1.4565340000
H                  5.7017810000     -3.0212470000      1.0801390000
H                  7.1006190000     -1.5494090000     -0.3744860000
H                  5.9772440000      0.0423110000     -1.9581990000
H                 -2.2863740000     -2.8382140000      0.8768030000
H                  3.4774310000      0.1119510000     -2.0428680000
H                 -0.8024040000     -1.4240700000     -0.5342860000
C                 -1.4761410000     -4.6920390000      2.6473870000
C                 -0.9468530000     -5.6124430000      3.5394940000
C                  0.4350270000     -5.7306350000      3.6684980000
C                  1.2803990000     -4.9370920000      2.8923240000
O                 -1.7644010000     -6.4349020000      4.3212440000
H                 -2.5559750000     -4.6158390000      2.5210740000
H                  0.8430970000     -6.4427600000      4.3797130000
H                  2.3559250000     -5.0214050000      2.9737270000
H                 -2.6569820000     -6.0670570000      4.2991040000
$end

$rem
BASIS  =  6-311++G(d,p)
GUI  =  2
JOB_TYPE  =  SP
METHOD  =  B3LYP
SCF_CONVERGENCE  = 8
SOLVENT_METHOD = sm12
$end

$smx
solvent dimethylformamide
charges CM5
$end

--------------------------------------------------------------

             Standard Nuclear Orientation (Angstroms)
    I     Atom           X                Y                Z
 ----------------------------------------------------------------
    1      C       5.2483380000    -2.3237350000     0.3836840000
    2      C       6.0139420000    -1.5051750000    -0.4243270000
    3      C       5.3805180000    -0.6062450000    -1.3193870000
    4      C       3.8322280000    -2.3006670000     0.3512790000
    5      C       3.1955630000    -1.3910600000    -0.5561160000
    6      C       4.0002570000    -0.5621510000    -1.3716050000
    7      C       3.0951740000    -3.1975640000     1.2419630000
    8      C       1.6602510000    -3.1291850000     1.1512750000
    9      C       1.0246190000    -2.1983090000     0.2282440000
   10      C       1.7460640000    -1.3041860000    -0.6504830000
   11      C       0.7906940000    -3.9775530000     1.9681290000
   12      C      -0.6399290000    -3.8644720000     1.8630960000
   13      C      -0.3888710000    -2.1401370000     0.1692650000
   14      C      -1.2031170000    -2.9223240000     0.9429790000
   15      O       3.7503690000    -3.9749460000     2.0302670000
   16      O       1.1746940000    -0.4920100000    -1.4565340000
   17      H       5.7017810000    -3.0212470000     1.0801390000
   18      H       7.1006190000    -1.5494090000    -0.3744860000
   19      H       5.9772440000     0.0423110000    -1.9581990000
   20      H      -2.2863740000    -2.8382140000     0.8768030000
   21      H       3.4774310000     0.1119510000    -2.0428680000
   22      H      -0.8024040000    -1.4240700000    -0.5342860000
   23      C      -1.4761410000    -4.6920390000     2.6473870000
   24      C      -0.9468530000    -5.6124430000     3.5394940000
   25      C       0.4350270000    -5.7306350000     3.6684980000
   26      C       1.2803990000    -4.9370920000     2.8923240000
   27      O      -1.7644010000    -6.4349020000     4.3212440000
   28      H      -2.5559750000    -4.6158390000     2.5210740000
   29      H       0.8430970000    -6.4427600000     4.3797130000
   30      H       2.3559250000    -5.0214050000     2.9737270000
   31      H      -2.6569820000    -6.0670570000     4.2991040000
 ----------------------------------------------------------------

   18    -917.8543810404      4.67e-09  Convergence criterion met
 Total energy in the final basis set =     -918.1364221106

                    Orbital Energies (a.u.)
 --------------------------------------------------------------

 Alpha MOs
 -- Occupied --
-19.1567 -19.0342 -19.0273 -10.2328 -10.1934 -10.1888 -10.1855 -10.1773
-10.1755 -10.1748 -10.1739 -10.1703 -10.1697 -10.1679 -10.1663 -10.1647
-10.1610 -10.1584 -10.1575 -10.1532 -10.1485  -1.0577  -0.9546  -0.9477
 -0.8628  -0.8471  -0.8127  -0.7744  -0.7516  -0.7439  -0.7365  -0.7092
 -0.6574  -0.6300  -0.6266  -0.6037  -0.5877  -0.5540  -0.5455  -0.5256
 -0.5084  -0.4936  -0.4669  -0.4579  -0.4511  -0.4456  -0.4299  -0.4233
 -0.4159  -0.4128  -0.3986  -0.3944  -0.3916  -0.3865  -0.3749  -0.3666
 -0.3634  -0.3531  -0.3399  -0.3350  -0.3335  -0.3281  -0.3173  -0.2991
 -0.2653  -0.2500  -0.2387  -0.2341  -0.2105  -0.2081  -0.1997  -0.1214

          Ground-State Mulliken Net Atomic Charges

     Atom                 Charge (a.u.)
  ----------------------------------------
      1 C                    -0.031495
      2 C                     1.764012
      3 C                     2.028549
      4 C                    -1.463663
      5 C                    -1.402703
      6 C                     0.122891
      7 C                    -2.622908
      8 C                    -2.785522
      9 C                    -3.289612
     10 C                    -3.329908
     11 C                    -1.764547
     12 C                     0.349675
     13 C                    -0.166694
     14 C                     0.538764
     15 O                    -0.295928
     16 O                    -0.284667
     17 H                     0.118633
     18 H                     0.414548
     19 H                     0.417314
     20 H                     0.242583
     21 H                     0.124351
     22 H                     0.190933
     23 C                     3.337885
     24 C                     3.691742
     25 C                     1.188413
     26 C                    -0.170067
     27 O                    -0.091004
     28 H                     0.355316
     29 H                     0.308838
     30 H                     0.093243
     31 H                     0.411027
  ----------------------------------------
  Sum of atomic charges =    -2.000000

                    Cartesian Multipole Moments
 -----------------------------------------------------------------
    Charge (ESU x 10^10)
                -9.6064
    Dipole Moment (Debye)
         X     -21.9040      Y      24.9303      Z      -5.5466
       Tot      33.6462
    Quadrupole Moments (Debye-Ang)
        XX    -206.6640     XY      55.6468     YY    -234.6974
        XZ     -14.6997     YZ      44.8568     ZZ    -168.2800

 Total job time:  1071.73s(wall), 8274.43s(cpu)
        *  Thank you very much for using Q-Chem.  Have a nice day.  *
