 Q-Chem 5.4, Q-Chem, Inc., Pleasanton, CA (2021)
 Q-Chem 5.4.0 for Intel X86 EM64T Linux

User input:
--------------------------------------------------------------
$molecule
-1 2
C                  1.6646040000      1.0521620000     -0.8332310000
C                  0.4330850000      1.5668520000     -0.2505570000
C                 -0.5338690000      0.7273010000      0.2630200000
C                 -0.3663820000     -0.7193840000      0.2735810000
C                  0.8692750000     -1.2313240000     -0.3023850000
C                  1.8261960000     -0.3950840000     -0.8291210000
O                  2.5489630000      1.8092960000     -1.3316120000
O                 -1.2335850000     -1.5003570000      0.7652960000
O                  2.9350270000     -0.9496980000     -1.4340990000
C                  4.1820860000     -0.6452100000     -0.8168210000
C                  0.2540570000      3.0650240000     -0.2498540000
C                 -1.8103180000      1.2694600000      0.8574460000
H                  4.3529010000      0.4333860000     -0.7972260000
H                  4.9505610000     -1.1338450000     -1.4210250000
H                  4.2165150000     -1.0536260000      0.2023880000
O                  1.1227190000     -2.5865380000     -0.2547890000
C                  0.2372910000     -3.3992660000     -1.0192670000
H                 -0.7945280000     -3.2705740000     -0.6850440000
H                  0.5551540000     -4.4326700000     -0.8598310000
H                  0.3226160000     -3.1607550000     -2.0881980000
H                  1.1307880000      3.5336530000     -0.6980410000
H                  0.1247990000      3.4581630000      0.7666840000
H                 -0.6339220000      3.3686430000     -0.8191560000
H                 -1.6124200000      1.9345090000      1.7079220000
H                 -2.4290460000      0.4401140000      1.2016770000
H                 -2.3816470000      1.8560290000      0.1265740000
$end
$rem
MAX_SCF_CYCLES=200
BASIS  =  6-311++G(d,p)
GUI  =  2
JOB_TYPE  =  SP
METHOD  =  B3LYP
SOLVENT_METHOD = COSMO
$end
$solvent
dielectric 37.219
opticaldielectric 1.43
$end

--------------------------------------------------------------

             Standard Nuclear Orientation (Angstroms)
    I     Atom           X                Y                Z
 ----------------------------------------------------------------
    1      C      -0.4056823215    -1.4427714871     0.2013851421
    2      C      -1.6436706777    -0.6838725728     0.0895321070
    3      C      -1.6434488312     0.6841639799    -0.0895857199
    4      C      -0.4052459919     1.4427104127    -0.2014872712
    5      C       0.8313515635     0.6807188051    -0.0972620621
    6      C       0.8311253876    -0.6810812446     0.0975366163
    7      O      -0.3907811839    -2.6946667344     0.3918125609
    8      O      -0.3900314264     2.6945596171    -0.3922373634
    9      O       2.0365908810    -1.3290730805     0.2709170672
   10      C       2.3571985817    -2.2960432017    -0.7246132980
   11      C      -2.9317819292    -1.4622835597     0.1963805969
   12      C      -2.9312921934     1.4630532283    -0.1963176913
   13      H       1.5947179226    -3.0768715542    -0.7677571035
   14      H       3.3179613566    -2.7282665628    -0.4339273524
   15      H       2.4647194589    -1.8157173812    -1.7067040972
   16      O       2.0370912890     1.3282631833    -0.2704158055
   17      C       2.3573825897     2.2960720904     0.7244186329
   18      H       1.5953775655     3.0774412115     0.7659846410
   19      H       3.3187411181     2.7272921114     0.4342124556
   20      H       2.4635895430     1.8167535710     1.7071470672
   21      H      -2.7042380404    -2.5199327862     0.3332888342
   22      H      -3.5510813266    -1.3481628271    -0.7025410482
   23      H      -3.5423701413    -1.1237020943     1.0433402154
   24      H      -3.5428277818     1.1236605132    -1.0422491463
   25      H      -2.7033286629     2.5204213874    -0.3346625935
   26      H      -3.5498345557     1.3504218255     0.7033341366
 ----------------------------------------------------------------

    9    -689.3991793475      9.10e-06  Convergence criterion met
 Total energy in the final basis set =     -689.3991793475
    4    -689.4865102440      7.69e-06  Convergence criterion met
 Total energy in the final basis set =     -689.4865102440

                    Orbital Energies (a.u.)
 --------------------------------------------------------------

 Alpha MOs
 -- Occupied --
-19.1350 -19.1350 -19.0782 -19.0782 -10.2209 -10.2208 -10.2141 -10.2135
-10.2026 -10.2026 -10.1668 -10.1662 -10.1512 -10.1512  -1.0602  -1.0414
 -0.9980  -0.9955  -0.8273  -0.7715  -0.7234  -0.7019  -0.6920  -0.6456
 -0.6376  -0.5634  -0.5594  -0.5156  -0.4949  -0.4843  -0.4669  -0.4436
 -0.4391  -0.4381  -0.4269  -0.4176  -0.4119  -0.3945  -0.3870  -0.3827
 -0.3807  -0.3656  -0.3609  -0.3535  -0.3451  -0.3425  -0.2905  -0.2862
 -0.2665  -0.2410  -0.2383  -0.2239  -0.1602

 Beta MOs
 -- Occupied --
-19.1349 -19.1348 -19.0716 -19.0716 -10.2190 -10.2190 -10.2131 -10.2125
-10.2025 -10.2025 -10.1658 -10.1652 -10.1513 -10.1513  -1.0592  -1.0402
 -0.9867  -0.9843  -0.8221  -0.7697  -0.7197  -0.7004  -0.6904  -0.6380
 -0.6366  -0.5605  -0.5559  -0.5142  -0.4927  -0.4826  -0.4631  -0.4421
 -0.4365  -0.4360  -0.4229  -0.4157  -0.4054  -0.3889  -0.3856  -0.3814
 -0.3689  -0.3578  -0.3529  -0.3439  -0.3409  -0.3380  -0.2876  -0.2825
 -0.2399  -0.2359  -0.2325  -0.2178

          Ground-State Mulliken Net Atomic Charges

     Atom                 Charge (a.u.)    Spin (a.u.)
  --------------------------------------------------------
      1 C                    -0.693165       0.099240
      2 C                     0.683657       0.081188
      3 C                     0.684215       0.081139
      4 C                    -0.694899       0.099269
      5 C                    -0.020974       0.078147
      6 C                    -0.014396       0.078148
      7 O                    -0.521242       0.236402
      8 O                    -0.521210       0.236422
      9 O                    -0.209985       0.000489
     10 C                    -0.291230       0.002117
     11 C                    -0.444908      -0.004070
     12 C                    -0.444752      -0.004055
     13 H                     0.172588      -0.000313
     14 H                     0.170924       0.000637
     15 H                     0.146788       0.000654
     16 O                    -0.209240       0.000508
     17 C                    -0.291003       0.002117
     18 H                     0.172541      -0.000312
     19 H                     0.170839       0.000635
     20 H                     0.146674       0.000655
     21 H                     0.185509      -0.001470
     22 H                     0.157972       0.003237
     23 H                     0.160983       0.003727
     24 H                     0.160842       0.003717
     25 H                     0.185439      -0.001470
     26 H                     0.158034       0.003241
  --------------------------------------------------------
  Sum of atomic charges =    -1.000000

                    Cartesian Multipole Moments
 -----------------------------------------------------------------
    Charge (ESU x 10^10)
                -4.8032
    Dipole Moment (Debye)
         X      -0.3415      Y       0.0016      Z      -0.0004
       Tot       0.3415
    Quadrupole Moments (Debye-Ang)
        XX     -86.6050     XY      -0.0020     YY    -119.8716
        XZ      -0.0056     YZ      11.4707     ZZ     -87.3514

 Total job time:  55.49s(wall), 414.87s(cpu)
        *  Thank you very much for using Q-Chem.  Have a nice day.  *
