 Gaussian 16, Revision A.03,
 Gaussian 16:  ES64L-G16RevA.03 25-Dec-2016

 ----------------------------------------------
 #P UB3LYP/6-311++G(d,p) nosym opt freq SCF=YQC
 ----------------------------------------------

 -------
 Reduced
 -------
 Symbolic Z-matrix:
 Charge = -2 Multiplicity = 1

 SCF Done:  E(UB3LYP) =  -858.815607994     a.u. after    8 cycles
 SCF Done:  E(UB3LYP) =  -858.826937731     A.U. after   33 cycles
 SCF Done:  E(UB3LYP) =  -858.826937735     a.u. after    2 cycles
 SCF Done:  E(UB3LYP) =  -858.841902822     a.u. after   70 cycles
 SCF Done:  E(UB3LYP) =  -858.842950528     A.U. after   33 cycles
 SCF Done:  E(UB3LYP) =  -858.842950528     a.u. after    1 cycles
 SCF Done:  E(UB3LYP) =  -858.845935280     a.u. after   34 cycles
 SCF Done:  E(UB3LYP) =  -858.846295312     A.U. after   26 cycles
 SCF Done:  E(UB3LYP) =  -858.846727445     a.u. after   32 cycles
 SCF Done:  E(UB3LYP) =  -858.846877558     A.U. after   25 cycles
 SCF Done:  E(UB3LYP) =  -858.847728585     a.u. after    1 cycles
 SCF Done:  E(UB3LYP) =  -858.847735636     A.U. after   21 cycles
 SCF Done:  E(UB3LYP) =  -858.847731518     a.u. after    1 cycles
 SCF Done:  E(UB3LYP) =  -858.847735760     A.U. after   22 cycles
 SCF Done:  E(UB3LYP) =  -858.847731062     a.u. after    1 cycles
 SCF Done:  E(UB3LYP) =  -858.847735890     A.U. after   21 cycles
 SCF Done:  E(UB3LYP) =  -858.847734824     a.u. after    1 cycles
 SCF Done:  E(UB3LYP) =  -858.847735929     A.U. after   22 cycles
 Optimization completed.
    -- Stationary point found.
 Normal termination of Gaussian 16 at Thu Dec 21 15:22:44 2023.

 ----------------------------------------------------------------------
 #P Geom=AllCheck Guess=TCheck SCRF=Check GenChk UB3LYP/6-311++G(d,p) F
 req
 ----------------------------------------------------------------------

 Structure from the checkpoint file:  "155-an.chk"
 -------
 Reduced
 -------
 Charge = -2 Multiplicity = 1

                          Input orientation:
 ---------------------------------------------------------------------
 Center     Atomic      Atomic             Coordinates (Angstroms)
 Number     Number       Type             X           Y           Z
 ---------------------------------------------------------------------
      1          6           0       -2.234727    3.237773    4.099805
      2          6           0       -3.458255    2.686276    4.375649
      3          6           0       -3.892680    1.532297    3.671534
      4          6           0       -3.084865    0.969440    2.692806
      5          6           0       -1.797095    1.517230    2.355723
      6          6           0       -1.374500    2.686928    3.110159
      7          6           0       -0.110866    3.350977    2.904502
      8          6           0       -0.933059    0.946913    1.331370
      9          6           0        0.737322    2.814431    1.867169
     10          6           0        0.345813    1.637337    1.132549
     11          6           0        2.018912    3.405415    1.561806
     12          6           0        2.863510    2.816713    0.628208
     13          6           0        2.471678    1.644785   -0.061695
     14          6           0        1.236826    1.083451    0.179086
     15          8           0        0.223402    4.378929    3.633998
     16          8           0       -1.213618   -0.080932    0.639326
     17          7           0        2.387150    4.608178    2.187522
     18          8           0       -3.497375   -0.145114    2.000970
     19          6           0       -4.748922   -0.708628    2.300577
     20          1           0       -1.870617    4.116088    4.619670
     21          1           0       -4.106103    3.119609    5.135401
     22          1           0       -4.863134    1.110188    3.897536
     23          1           0        3.817839    3.294132    0.409159
     24          1           0        3.146785    1.199608   -0.790894
     25          1           0        0.898657    0.193623   -0.339180
     26          1           0        1.736299    4.792357    2.974219
     27          1           0        3.372412    4.659439    2.409289
     28          1           0       -4.843198   -1.591409    1.663179
     29          1           0       -5.584134   -0.024595    2.083803
     30          1           0       -4.832759   -1.024609    3.351992
 ---------------------------------------------------------------------

 SCF Done:  E(UB3LYP) =  -858.847735929     a.u. after    1 cycles
 SCF Done:  E(UB3LYP) =  -858.847735929     A.U. after    1 cycles

 Alpha  occ. eigenvalues --  -18.91963 -18.79997 -18.78763 -14.06628 -10.01227
 Alpha  occ. eigenvalues --   -9.99769  -9.97188  -9.95526  -9.95432  -9.93470
 Alpha  occ. eigenvalues --   -9.93361  -9.92955  -9.92619  -9.92009  -9.91977
 Alpha  occ. eigenvalues --   -9.91975  -9.91525  -9.91516  -9.91271  -0.83718
 Alpha  occ. eigenvalues --   -0.71825  -0.71075  -0.66644  -0.60426  -0.58779
 Alpha  occ. eigenvalues --   -0.53196  -0.52363  -0.49070  -0.48153  -0.46797
 Alpha  occ. eigenvalues --   -0.41406  -0.38602  -0.37815  -0.33969  -0.31738
 Alpha  occ. eigenvalues --   -0.30481  -0.28469  -0.26511  -0.25128  -0.24700
 Alpha  occ. eigenvalues --   -0.23924  -0.22541  -0.21998  -0.20374  -0.19908
 Alpha  occ. eigenvalues --   -0.18341  -0.16198  -0.16071  -0.14964  -0.14241
 Alpha  occ. eigenvalues --   -0.13936  -0.12855  -0.11678  -0.10809  -0.10431
 Alpha  occ. eigenvalues --   -0.09891  -0.09577  -0.08543  -0.07423  -0.05844
 Alpha  occ. eigenvalues --    0.00248   0.00366   0.01368   0.01992   0.03211
 Alpha  occ. eigenvalues --    0.04312   0.12650
 Alpha virt. eigenvalues --    0.14150   0.15676   0.16254   0.17092   0.17750
 Alpha virt. eigenvalues --    0.18231   0.19196   0.20201   0.20496   0.21493
 Alpha virt. eigenvalues --    0.21769   0.22066   0.23004   0.23770   0.24986

  Beta  occ. eigenvalues --  -18.91963 -18.79997 -18.78763 -14.06628 -10.01227
  Beta  occ. eigenvalues --   -9.99769  -9.97188  -9.95526  -9.95432  -9.93470
  Beta  occ. eigenvalues --   -9.93361  -9.92955  -9.92619  -9.92009  -9.91977
  Beta  occ. eigenvalues --   -9.91975  -9.91525  -9.91516  -9.91271  -0.83718
  Beta  occ. eigenvalues --   -0.71825  -0.71075  -0.66644  -0.60426  -0.58779
  Beta  occ. eigenvalues --   -0.53196  -0.52363  -0.49070  -0.48153  -0.46797
  Beta  occ. eigenvalues --   -0.41406  -0.38602  -0.37815  -0.33969  -0.31738
  Beta  occ. eigenvalues --   -0.30481  -0.28469  -0.26511  -0.25128  -0.24700
  Beta  occ. eigenvalues --   -0.23924  -0.22541  -0.21998  -0.20374  -0.19908
  Beta  occ. eigenvalues --   -0.18341  -0.16198  -0.16071  -0.14964  -0.14241
  Beta  occ. eigenvalues --   -0.13936  -0.12855  -0.11678  -0.10809  -0.10431
  Beta  occ. eigenvalues --   -0.09891  -0.09577  -0.08543  -0.07423  -0.05844
  Beta  occ. eigenvalues --    0.00248   0.00366   0.01368   0.01992   0.03211
  Beta  occ. eigenvalues --    0.04312   0.12650
  Beta virt. eigenvalues --    0.14150   0.15676   0.16254   0.17092   0.17750
  Beta virt. eigenvalues --    0.18231   0.19196   0.20201   0.20496   0.21493
  Beta virt. eigenvalues --    0.21769   0.22066   0.23004   0.23770   0.24986

 Mulliken charges and spin densities:
               1          2
     1  C   -0.137000  -0.000000
     2  C   -0.254745   0.000000
     3  C   -0.343024   0.000000
     4  C   -0.173989  -0.000000
     5  C    0.248818  -0.000000
     6  C    0.449700  -0.000000
     7  C   -0.640915   0.000000
     8  C   -0.605281   0.000000
     9  C    0.225451   0.000000
    10  C    0.679818  -0.000000
    11  C    0.189181  -0.000000
    12  C   -0.215082  -0.000000
    13  C   -0.506887   0.000000
    14  C   -0.182106  -0.000000
    15  O   -0.493347  -0.000000
    16  O   -0.458774  -0.000000
    17  N   -0.423098   0.000000
    18  O   -0.109264   0.000000
    19  C    0.649843  -0.000000
    20  H    0.142838   0.000000
    21  H   -0.013804   0.000000
    22  H   -0.053143   0.000000
    23  H    0.050564   0.000000
    24  H    0.081871   0.000000
    25  H    0.129604  -0.000000
    26  H    0.297909   0.000000
    27  H    0.178927  -0.000000
    28  H   -0.277624   0.000000
    29  H   -0.076184   0.000000
    30  H   -0.360257   0.000000
 Sum of Mulliken charges =  -2.00000  -0.00000

 Dipole moment (field-independent basis, Debye):
    X=             10.5253    Y=            -16.8203    Z=            -20.3379  Tot=             28.4136
 Quadrupole moment (field-independent basis, Debye-Ang):
   XX=           -195.8131   YY=           -205.3652   ZZ=           -194.5710
   XY=            -13.4560   XZ=             39.0554   YZ=            -47.4665

  Exact polarizability:1620.640 692.8481051.462-239.481 145.643 621.424
 Approx polarizability:4220.9292401.7592188.653-704.369-144.370 703.506

                      1                      2                      3
                      A                      A                      A
 Frequencies --     32.5263                56.2256                84.2905
 Red. masses --      5.2968                 5.3147                 4.0999
 Frc consts  --      0.0033                 0.0099                 0.0172
 IR Inten    --      2.4343                 1.9692                 5.2279

                      4                      5                      6
                      A                      A                      A
 Frequencies --     93.3774               162.5591               168.5259
 Red. masses --      5.4886                 5.5965                 4.6495
 Frc consts  --      0.0282                 0.0871                 0.0778
 IR Inten    --      3.5556                 4.9639                13.8146

                      7                      8                      9
                      A                      A                      A
 Frequencies --    197.6625               228.6733               265.4977
 Red. masses --      3.4065                 3.4218                 4.6315
 Frc consts  --      0.0784                 0.1054                 0.1924
 IR Inten    --      2.2091                 2.9981                25.2957

                     10                     11                     12
                      A                      A                      A
 Frequencies --    276.7989               298.2592               322.2509
 Red. masses --      2.1207                 1.9345                 3.7182
 Frc consts  --      0.0957                 0.1014                 0.2275
 IR Inten    --     41.4254                 4.5681                29.8610

                     13                     14                     15
                      A                      A                      A
 Frequencies --    353.1204               376.2108               390.7597
 Red. masses --      7.2556                 6.7269                 2.3643
 Frc consts  --      0.5331                 0.5610                 0.2127
 IR Inten    --     42.4781               100.5202               157.9351

                     16                     17                     18
                      A                      A                      A
 Frequencies --    395.9975               416.6866               434.7342
 Red. masses --      6.3445                 5.5792                 2.1475
 Frc consts  --      0.5862                 0.5707                 0.2391
 IR Inten    --     28.5042                 0.2593               264.9334

                     19                     20                     21
                      A                      A                      A
 Frequencies --    468.5081               488.7761               496.3394
 Red. masses --      7.1893                 4.2628                 6.1044
 Frc consts  --      0.9298                 0.6000                 0.8860
 IR Inten    --    470.5344                14.3925               374.6660

                     22                     23                     24
                      A                      A                      A
 Frequencies --    537.6454               554.9596               579.2093
 Red. masses --      4.3782                 5.6201                 4.8532
 Frc consts  --      0.7456                 1.0198                 0.9593
 IR Inten    --     11.7607                14.8277                 3.6536

                     25                     26                     27
                      A                      A                      A
 Frequencies --    590.2258               624.2289               648.2426
 Red. masses --      6.0787                 4.9713                 3.0644
 Frc consts  --      1.2477                 1.1413                 0.7587
 IR Inten    --     37.4898                39.6756                35.0934

                     28                     29                     30
                      A                      A                      A
 Frequencies --    686.3225               701.1567               720.3572
 Red. masses --      1.7431                 6.4558                 1.3891
 Frc consts  --      0.4838                 1.8699                 0.4247
 IR Inten    --     47.6792                69.3350                 6.0247

                     31                     32                     33
                      A                      A                      A
 Frequencies --    741.8147               763.4536               771.5987
 Red. masses --      2.7112                 4.1671                 5.2456
 Frc consts  --      0.8790                 1.4310                 1.8401
 IR Inten    --      3.9446                44.5523                15.1804

                     34                     35                     36
                      A                      A                      A
 Frequencies --    781.5402               793.7988               825.0300
 Red. masses --      1.6059                 1.6439                 6.2934
 Frc consts  --      0.5779                 0.6103                 2.5239
 IR Inten    --     35.6810                17.6632                 6.5401

                     37                     38                     39
                      A                      A                      A
 Frequencies --    842.5436               873.7904               913.8811
 Red. masses --      6.4704                 2.5800                 2.1311
 Frc consts  --      2.7062                 1.1606                 1.0486
 IR Inten    --      9.4500               267.4622               137.1677

                     40                     41                     42
                      A                      A                      A
 Frequencies --    937.4976               950.0412               951.4171
 Red. masses --      1.2691                 2.1619                 1.9205
 Frc consts  --      0.6572                 1.1497                 1.0243
 IR Inten    --     10.1380                54.3267                51.3267

                     43                     44                     45
                      A                      A                      A
 Frequencies --   1021.1458              1058.5817              1080.8795
 Red. masses --      4.3089                 2.1607                 2.1902
 Frc consts  --      2.6472                 1.4266                 1.5076
 IR Inten    --    336.9126               194.3986               276.9049

                     46                     47                     48
                      A                      A                      A
 Frequencies --   1087.8293              1134.7813              1156.9125
 Red. masses --      3.9272                 1.8434                 1.2871
 Frc consts  --      2.7381                 1.3986                 1.0150
 IR Inten    --    344.9001                76.7273                20.0706

                     49                     50                     51
                      A                      A                      A
 Frequencies --   1159.8902              1165.7365              1175.4728
 Red. masses --      1.2853                 2.1158                 1.8963
 Frc consts  --      1.0188                 1.6941                 1.5437
 IR Inten    --     86.8058               709.0063               394.1353

                     52                     53                     54
                      A                      A                      A
 Frequencies --   1181.4151              1217.2787              1232.7008
 Red. masses --      1.6307                 1.9075                 2.8792
 Frc consts  --      1.3410                 1.6653                 2.5778
 IR Inten    --     76.0687               464.6471               506.3304

                     55                     56                     57
                      A                      A                      A
 Frequencies --   1237.6884              1268.1059              1321.5296
 Red. masses --      3.3221                 3.6356                 4.6059
 Frc consts  --      2.9984                 3.4445                 4.7394
 IR Inten    --     64.2757               892.4712               990.9428

                     58                     59                     60
                      A                      A                      A
 Frequencies --   1346.6678              1361.9153              1382.1933
 Red. masses --      4.6112                 3.8046                 3.2694
 Frc consts  --      4.9270                 4.1577                 3.6801
 IR Inten    --    588.4562               152.6666               195.0664

                     61                     62                     63
                      A                      A                      A
 Frequencies --   1422.3786              1438.8760              1455.0190
 Red. masses --      3.1133                 3.3630                 1.8287
 Frc consts  --      3.7110                 4.1023                 2.2811
 IR Inten    --    284.8450              1149.7831               629.2283

                     64                     65                     66
                      A                      A                      A
 Frequencies --   1463.3866              1470.4290              1476.5727
 Red. masses --      1.8727                 2.6833                 1.0645
 Frc consts  --      2.3628                 3.4183                 1.3675
 IR Inten    --    554.4720               536.9368               161.0574

                     67                     68                     69
                      A                      A                      A
 Frequencies --   1492.1686              1503.9236              1532.3443
 Red. masses --      1.1880                 4.2801                 4.1455
 Frc consts  --      1.5585                 5.7037                 5.7350
 IR Inten    --    192.9523               445.2814               403.4413

                     70                     71                     72
                      A                      A                      A
 Frequencies --   1563.7201              1587.4717              1593.3554
 Red. masses --      6.1938                 2.9096                 5.0731
 Frc consts  --      8.9232                 4.3202                 7.5884
 IR Inten    --   3403.6267               720.6422                88.7820

                     73                     74                     75
                      A                      A                      A
 Frequencies --   1610.2000              2936.2619              2976.9668
 Red. masses --      1.5781                 1.0373                 1.1027
 Frc consts  --      2.4106                 5.2692                 5.7579
 IR Inten    --     12.1857                32.6062                11.3779

                     76                     77                     78
                      A                      A                      A
 Frequencies --   3070.8363              3088.6665              3107.1406
 Red. masses --      1.0941                 1.0828                 1.0864
 Frc consts  --      6.0787                 6.0864                 6.1794
 IR Inten    --     27.0568                40.2716                89.7397

                     79                     80                     81
                      A                      A                      A
 Frequencies --   3110.3165              3113.3953              3176.2099
 Red. masses --      1.0726                 1.0918                 1.0904
 Frc consts  --      6.1136                 6.2351                 6.4814
 IR Inten    --   1199.6257               228.3521                81.5693

                     82                     83                     84
                      A                      A                      A
 Frequencies --   3178.7243              3182.6840              3571.6591
 Red. masses --      1.0899                 1.0898                 1.0786
 Frc consts  --      6.4886                 6.5039                 8.1071
 IR Inten    --     22.1695                75.5988                13.9469

 - Thermochemistry -
 -------------------
 Temperature   298.150 Kelvin.  Pressure   1.00000 Atm.
 Atom     1 has atomic number  6 and mass  12.00000

 Molecular mass:   253.07389 amu.
 Principal axes and moments of inertia in atomic units:
                           1         2         3
     Eigenvalues --  2511.643046181.181318676.79708
           X            0.89708  -0.11829   0.42574
           Y            0.37166   0.72310  -0.58223
           Z           -0.23898   0.68054   0.69264
 This molecule is an asymmetric top.
 Rotational symmetry number  1.
 Warning -- assumption of classical behavior for rotation
           may cause significant error
 Rotational temperatures (Kelvin)      0.03448     0.01401     0.00998
 Rotational constants (GHZ):           0.71855     0.29197     0.20800
 Zero-point vibrational energy     583239.1 (Joules/Mol)
                                  139.39750 (Kcal/Mol)
 Warning -- explicit consideration of  25 degrees of freedom as
           vibrations may cause significant error
 Vibrational temperatures:     46.80    80.90   121.28   134.35   233.89
          (Kelvin)            242.47   284.39   329.01   381.99   398.25
                              429.13   463.65   508.06   541.28   562.22
                              569.75   599.52   625.49   674.08   703.24
                              714.12   773.55   798.46   833.35   849.20
                              898.13   932.68   987.46  1008.81  1036.43
                             1067.31  1098.44  1110.16  1124.46  1142.10
                             1187.03  1212.23  1257.19  1314.87  1348.85
                             1366.90  1368.88  1469.20  1523.06  1555.14
                             1565.14  1632.70  1664.54  1668.82  1677.23
                             1691.24  1699.79  1751.39  1773.58  1780.76
                             1824.52  1901.39  1937.55  1959.49  1988.67
                             2046.49  2070.22  2093.45  2105.49  2115.62
                             2124.46  2146.90  2163.81  2204.70  2249.84
                             2284.02  2292.48  2316.72  4224.63  4283.19
                             4418.25  4443.90  4470.48  4475.05  4479.48
                             4569.86  4573.48  4579.17  5138.82

 Zero-point correction=                           0.222144 (Hartree/Particle)
 Thermal correction to Energy=                    0.237382
 Thermal correction to Enthalpy=                  0.238326
 Thermal correction to Gibbs Free Energy=         0.179787
 Sum of electronic and zero-point Energies=           -858.625592
 Sum of electronic and thermal Energies=              -858.610354
 Sum of electronic and thermal Enthalpies=            -858.609410
 Sum of electronic and thermal Free Energies=         -858.667949

                     E (Thermal)             CV                S
                      KCal/Mol        Cal/Mol-Kelvin    Cal/Mol-Kelvin
 Total                  148.960             61.424            123.207
 Electronic               0.000              0.000              0.000
 Translational            0.889              2.981             42.486
 Rotational               0.889              2.981             33.265
 Vibrational            147.182             55.463             47.456
 Vibration     1          0.594              1.983              5.669
 Vibration     2          0.596              1.975              4.585
 Vibration     3          0.601              1.960              3.788
 Vibration     4          0.602              1.954              3.588
 Vibration     5          0.623              1.888              2.520
 Vibration     6          0.625              1.881              2.452
 Vibration     7          0.637              1.843              2.155
 Vibration     8          0.651              1.797              1.889
 Vibration     9          0.671              1.736              1.625
 Vibration    10          0.678              1.716              1.553
 Vibration    11          0.691              1.677              1.427
 Vibration    12          0.707              1.631              1.299
 Vibration    13          0.729              1.569              1.152
 Vibration    14          0.747              1.521              1.054
 Vibration    15          0.758              1.490              0.997
 Vibration    16          0.763              1.479              0.977
 Vibration    17          0.780              1.434              0.903
 Vibration    18          0.795              1.395              0.843
 Vibration    19          0.826              1.320              0.742
 Vibration    20          0.845              1.275              0.687
 Vibration    21          0.852              1.258              0.667
 Vibration    22          0.893              1.167              0.570
 Vibration    23          0.910              1.129              0.534
 Vibration    24          0.936              1.076              0.487
 Vibration    25          0.948              1.053              0.467

 Optimization completed.
    -- Stationary point found.
 Normal termination of Gaussian 16 at Thu Dec 21 16:29:51 2023.
