 Gaussian 16, Revision A.03,
 Gaussian 16:  ES64L-G16RevA.03 25-Dec-2016

 --------------------------------------
 #P UB3LYP/6-311++G(d,p) nosym opt freq
 --------------------------------------

 -------
 Reduced
 -------
 Symbolic Z-matrix:
 Charge = -2 Multiplicity = 1

 SCF Done:  E(UB3LYP) =  -460.147864331     A.U. after   37 cycles
 SCF Done:  E(UB3LYP) =  -460.175469348     A.U. after   32 cycles
 SCF Done:  E(UB3LYP) =  -460.179598915     A.U. after   30 cycles
 SCF Done:  E(UB3LYP) =  -460.179900118     A.U. after   29 cycles
 SCF Done:  E(UB3LYP) =  -460.180007569     A.U. after   29 cycles
 SCF Done:  E(UB3LYP) =  -460.180049077     A.U. after   27 cycles
 SCF Done:  E(UB3LYP) =  -460.180061329     A.U. after   28 cycles
 SCF Done:  E(UB3LYP) =  -460.180082366     A.U. after   27 cycles
 SCF Done:  E(UB3LYP) =  -460.180119264     A.U. after   28 cycles
 SCF Done:  E(UB3LYP) =  -460.180156228     A.U. after   28 cycles
 SCF Done:  E(UB3LYP) =  -460.180164097     A.U. after   27 cycles
 SCF Done:  E(UB3LYP) =  -460.180167364     A.U. after   30 cycles
 SCF Done:  E(UB3LYP) =  -460.180167762     A.U. after   24 cycles
 SCF Done:  E(UB3LYP) =  -460.180168767     A.U. after   24 cycles
 SCF Done:  E(UB3LYP) =  -460.180169333     A.U. after   27 cycles
 SCF Done:  E(UB3LYP) =  -460.180169429     A.U. after   19 cycles
 Optimization completed.
    -- Stationary point found.
 Normal termination of Gaussian 16 at Sun Dec 17 21:39:13 2023.

 ----------------------------------------------------------------------
 #P Geom=AllCheck Guess=TCheck SCRF=Check GenChk UB3LYP/6-311++G(d,p) F
 req
 ----------------------------------------------------------------------

 Structure from the checkpoint file:  "037-an.chk"
 -------
 Reduced
 -------
 Charge = -2 Multiplicity = 1

                          Input orientation:
 ---------------------------------------------------------------------
 Center     Atomic      Atomic             Coordinates (Angstroms)
 Number     Number       Type             X           Y           Z
 ---------------------------------------------------------------------
      1          6           0       -1.593122   -1.386965   -0.167247
      2          6           0       -0.256035   -0.683609   -0.110448
      3          6           0       -0.183865    0.700503    0.143099
      4          6           0       -1.440110    1.503581    0.393660
      5          6           0        1.068577    1.416015    0.210364
      6          8           0        1.151157    2.687583    0.485653
      7          6           0        2.217354    0.599957   -0.032596
      8          6           0        2.145324   -0.767716   -0.293136
      9          6           0        0.914314   -1.492284   -0.358469
     10          8           0        0.857934   -2.764904   -0.635578
     11          1           0       -1.418591   -2.465755   -0.144530
     12          1           0       -2.154440   -1.169339   -1.099572
     13          1           0       -2.255763   -1.100530    0.657925
     14          1           0       -1.870625    1.325671    1.400970
     15          1           0       -2.238404    1.271915   -0.321190
     16          1           0       -1.189409    2.566007    0.337303
     17          1           0        3.188135    1.096884    0.014791
     18          1           0        3.057568   -1.337015   -0.481000
 ---------------------------------------------------------------------

 SCF Done:  E(UB3LYP) =  -460.180169429     A.U. after    7 cycles

 Alpha  occ. eigenvalues --  -18.74292 -18.74291  -9.89869  -9.89867  -9.88898
 Alpha  occ. eigenvalues --   -9.88897  -9.86477  -9.86428  -9.85801  -9.85747
 Alpha  occ. eigenvalues --   -0.65195  -0.64809  -0.52118  -0.47045  -0.44268
 Alpha  occ. eigenvalues --   -0.37232  -0.36097  -0.27134  -0.24873  -0.18661
 Alpha  occ. eigenvalues --   -0.15455  -0.15171  -0.13278  -0.12462  -0.11009
 Alpha  occ. eigenvalues --   -0.10237  -0.09647  -0.07734  -0.06824  -0.04243
 Alpha  occ. eigenvalues --   -0.04226  -0.02965   0.05170   0.06434   0.07891
 Alpha  occ. eigenvalues --    0.08277   0.15893
 Alpha virt. eigenvalues --    0.17989   0.19818   0.20103   0.20739   0.21783
 Alpha virt. eigenvalues --    0.23103   0.23320   0.25571   0.26915   0.28564
 Alpha virt. eigenvalues --    0.28590   0.28837   0.30395   0.31062   0.31564

  Beta  occ. eigenvalues --  -18.74292 -18.74291  -9.89869  -9.89867  -9.88898
  Beta  occ. eigenvalues --   -9.88897  -9.86477  -9.86428  -9.85801  -9.85747
  Beta  occ. eigenvalues --   -0.65195  -0.64809  -0.52118  -0.47045  -0.44268
  Beta  occ. eigenvalues --   -0.37232  -0.36097  -0.27134  -0.24873  -0.18661
  Beta  occ. eigenvalues --   -0.15455  -0.15171  -0.13278  -0.12462  -0.11009
  Beta  occ. eigenvalues --   -0.10237  -0.09647  -0.07734  -0.06824  -0.04243
  Beta  occ. eigenvalues --   -0.04226  -0.02965   0.05170   0.06434   0.07891
  Beta  occ. eigenvalues --    0.08277   0.15893
  Beta virt. eigenvalues --    0.17989   0.19818   0.20103   0.20739   0.21783
  Beta virt. eigenvalues --    0.23103   0.23320   0.25571   0.26915   0.28564
  Beta virt. eigenvalues --    0.28590   0.28837   0.30395   0.31062   0.31564

 Mulliken charges and spin densities:
               1          2
     1  C    0.374168   0.000000
     2  C    0.293883  -0.000000
     3  C    0.289261   0.000000
     4  C    0.373229  -0.000000
     5  C   -1.251333   0.000000
     6  O   -0.572504  -0.000000
     7  C    0.261125   0.000000
     8  C    0.260764  -0.000000
     9  C   -1.249845  -0.000000
    10  O   -0.572506  -0.000000
    11  H    0.116527   0.000000
    12  H   -0.165368   0.000000
    13  H   -0.091450   0.000000
    14  H   -0.165247   0.000000
    15  H   -0.091811   0.000000
    16  H    0.116648  -0.000000
    17  H    0.037230   0.000000
    18  H    0.037230  -0.000000
 Sum of Mulliken charges =  -2.00000   0.00000

 Dipole moment (field-independent basis, Debye):
    X=             -4.4366    Y=              0.1707    Z=              0.3315  Tot=              4.4522
 Quadrupole moment (field-independent basis, Debye-Ang):
   XX=           -100.0719   YY=           -128.9981   ZZ=            -79.0484
   XY=             -2.1263   XZ=              1.0443   YZ=            -13.5991

  Exact polarizability: 983.349  -3.867 537.097 -27.671 187.547 505.002
 Approx polarizability:1461.151 -32.268 427.533 -79.097 103.220 352.103

                      1                      2                      3
                      A                      A                      A
 Frequencies --     88.4634               119.5329               132.5632
 Red. masses --      1.1627                 1.3055                 3.0909
 Frc consts  --      0.0054                 0.0110                 0.0320
 IR Inten    --     25.3387                 2.4704                 8.7157

                      4                      5                      6
                      A                      A                      A
 Frequencies --    139.7981               237.7484               316.1125
 Red. masses --      2.4037                 3.0907                 2.4069
 Frc consts  --      0.0277                 0.1029                 0.1417
 IR Inten    --     11.4513                 9.5014                73.5764

                      7                      8                      9
                      A                      A                      A
 Frequencies --    317.9446               339.7249               366.7495
 Red. masses --      3.5182                 6.9194                 9.0029
 Frc consts  --      0.2095                 0.4705                 0.7135
 IR Inten    --     11.1773                42.9734               118.2948

                     10                     11                     12
                      A                      A                      A
 Frequencies --    442.5562               464.8267               477.5451
 Red. masses --      8.6603                 4.2842                 4.8041
 Frc consts  --      0.9993                 0.5454                 0.6455
 IR Inten    --    930.8898               108.7656                10.7205

                     13                     14                     15
                      A                      A                      A
 Frequencies --    596.3492               596.8937               646.3404
 Red. masses --      2.0349                 3.6184                 5.3161
 Frc consts  --      0.4264                 0.7596                 1.3085
 IR Inten    --     20.1404                 1.9949                 0.2143

                     16                     17                     18
                      A                      A                      A
 Frequencies --    728.1689               766.3019               793.7221
 Red. masses --      4.3970                 7.1361                 2.2407
 Frc consts  --      1.3736                 2.4690                 0.8317
 IR Inten    --     18.2181                14.1543                21.5652

                     19                     20                     21
                      A                      A                      A
 Frequencies --    847.4831               855.3854               955.9878
 Red. masses --      2.2203                 1.3498                 1.6770
 Frc consts  --      0.9396                 0.5819                 0.9030
 IR Inten    --     41.3954                 0.0004                36.2190

                     22                     23                     24
                      A                      A                      A
 Frequencies --   1026.0129              1027.7003              1036.1640
 Red. masses --      1.4027                 1.4488                 2.2520
 Frc consts  --      0.8700                 0.9015                 1.4245
 IR Inten    --     68.9910                26.0194                26.2974

                     25                     26                     27
                      A                      A                      A
 Frequencies --   1093.6875              1134.2043              1169.0871
 Red. masses --      2.5218                 1.5719                 2.4476
 Frc consts  --      1.7772                 1.1914                 1.9710
 IR Inten    --     57.3412               825.5559                38.1691

                     28                     29                     30
                      A                      A                      A
 Frequencies --   1199.4304              1300.8751              1308.8483
 Red. masses --      4.9600                 2.1175                 5.1375
 Frc consts  --      4.2042                 2.1113                 5.1853
 IR Inten    --      2.5661                23.2526              2456.6972

                     31                     32                     33
                      A                      A                      A
 Frequencies --   1350.4466              1373.3871              1417.7355
 Red. masses --      1.4965                 1.5048                 3.1504
 Frc consts  --      1.6080                 1.6723                 3.7308
 IR Inten    --    608.6070               114.9932               273.5034

                     34                     35                     36
                      A                      A                      A
 Frequencies --   1425.2491              1460.3908              1470.6132
 Red. masses --      3.9780                 1.4342                 1.0901
 Frc consts  --      4.7609                 1.8022                 1.3890
 IR Inten    --      2.0115               496.2869               401.4556

                     37                     38                     39
                      A                      A                      A
 Frequencies --   1482.5664              1493.2465              1498.0187
 Red. masses --      1.1117                 2.9427                 1.0545
 Frc consts  --      1.4396                 3.8659                 1.3942
 IR Inten    --     76.9411               126.2629                 6.5538

                     40                     41                     42
                      A                      A                      A
 Frequencies --   1553.7631              2854.8960              2855.0705
 Red. masses --      5.4830                 1.0675                 1.0672
 Frc consts  --      7.7990                 5.1265                 5.1253
 IR Inten    --   3490.3659               590.9016               352.9917

                     43                     44                     45
                      A                      A                      A
 Frequencies --   2995.9803              2996.4407              3058.8618
 Red. masses --      1.0667                 1.0659                 1.0826
 Frc consts  --      5.6412                 5.6386                 5.9680
 IR Inten    --   1116.9100               257.6154                74.8879

                     46                     47                     48
                      A                      A                      A
 Frequencies --   3072.9516              3073.4859              3088.5950
 Red. masses --      1.0953                 1.0957                 1.0917
 Frc consts  --      6.0940                 6.0982                 6.1361
 IR Inten    --     58.7671                 9.3873               640.3125

 - Thermochemistry -
 -------------------
 Temperature   298.150 Kelvin.  Pressure   1.00000 Atm.
 Atom     1 has atomic number  6 and mass  12.00000

 Molecular mass:   136.05243 amu.
 Principal axes and moments of inertia in atomic units:
                           1         2         3
     Eigenvalues --   873.875161438.198132289.75455
           X            0.05233   0.99650   0.06526
           Y            0.97893  -0.03828  -0.20056
           Z            0.19736  -0.07438   0.97750
 This molecule is an asymmetric top.
 Rotational symmetry number  1.
 Warning -- assumption of classical behavior for rotation
           may cause significant error
 Rotational temperatures (Kelvin)      0.09911     0.06022     0.03783
 Rotational constants (GHZ):           2.06522     1.25486     0.78818
 Zero-point vibrational energy     353184.9 (Joules/Mol)
                                   84.41322 (Kcal/Mol)
 Warning -- explicit consideration of  14 degrees of freedom as
           vibrations may cause significant error
 Vibrational temperatures:    127.28   171.98   190.73   201.14   342.07
          (Kelvin)            454.82   457.45   488.79   527.67   636.74
                              668.78   687.08   858.01   858.80   929.94
                             1047.67  1102.54  1141.99  1219.34  1230.71
                             1375.45  1476.20  1478.63  1490.81  1573.57
                             1631.87  1682.06  1725.71  1871.67  1883.14
                             1942.99  1976.00  2039.81  2050.62  2101.18
                             2115.88  2133.08  2148.45  2155.31  2235.52
                             4107.56  4107.81  4310.55  4311.21  4401.02
                             4421.29  4422.06  4443.80

 Zero-point correction=                           0.134521 (Hartree/Particle)
 Thermal correction to Energy=                    0.144094
 Thermal correction to Enthalpy=                  0.145038
 Thermal correction to Gibbs Free Energy=         0.100006
 Sum of electronic and zero-point Energies=           -460.045648
 Sum of electronic and thermal Energies=              -460.036075
 Sum of electronic and thermal Enthalpies=            -460.035131
 Sum of electronic and thermal Free Energies=         -460.080164

                     E (Thermal)             CV                S
                      KCal/Mol        Cal/Mol-Kelvin    Cal/Mol-Kelvin
 Total                   90.420             35.818             94.779
 Electronic               0.000              0.000              0.000
 Translational            0.889              2.981             40.636
 Rotational               0.889              2.981             29.444
 Vibrational             88.643             29.856             24.700
 Vibration     1          0.601              1.957              3.694
 Vibration     2          0.609              1.933              3.108
 Vibration     3          0.613              1.921              2.909
 Vibration     4          0.615              1.914              2.807
 Vibration     5          0.656              1.783              1.820
 Vibration     6          0.703              1.643              1.330
 Vibration     7          0.704              1.639              1.321
 Vibration     8          0.720              1.596              1.213
 Vibration     9          0.740              1.541              1.093
 Vibration    10          0.802              1.377              0.819
 Vibration    11          0.822              1.328              0.752
 Vibration    12          0.834              1.300              0.717
 Vibration    13          0.954              1.040              0.456
 Vibration    14          0.955              1.038              0.455

 Optimization completed.
    -- Stationary point found.
 Normal termination of Gaussian 16 at Sun Dec 17 21:48:43 2023.
