 Gaussian 16, Revision A.03,
 Gaussian 16:  ES64L-G16RevA.03 25-Dec-2016

 --------------------------------------
 #P UB3LYP/6-311++G(d,p) nosym opt freq
 --------------------------------------

 --------
 Oxidized
 --------
 Symbolic Z-matrix:
 Charge =  0 Multiplicity = 1

 SCF Done:  E(UB3LYP) =  -992.142991597     A.U. after   16 cycles
 SCF Done:  E(UB3LYP) =  -992.149944130     A.U. after   16 cycles
 SCF Done:  E(UB3LYP) =  -992.150326884     A.U. after   13 cycles
 SCF Done:  E(UB3LYP) =  -992.150216065     A.U. after   13 cycles
 SCF Done:  E(UB3LYP) =  -992.150774089     A.U. after   12 cycles
 SCF Done:  E(UB3LYP) =  -992.150907183     A.U. after   13 cycles
 SCF Done:  E(UB3LYP) =  -992.150919235     A.U. after   12 cycles
 SCF Done:  E(UB3LYP) =  -992.150981094     A.U. after   12 cycles
 SCF Done:  E(UB3LYP) =  -992.151007293     A.U. after   12 cycles
 SCF Done:  E(UB3LYP) =  -992.151023443     A.U. after   12 cycles
 SCF Done:  E(UB3LYP) =  -992.151052340     A.U. after   11 cycles
 SCF Done:  E(UB3LYP) =  -992.151056060     A.U. after   11 cycles
 SCF Done:  E(UB3LYP) =  -992.151057008     A.U. after   10 cycles
 SCF Done:  E(UB3LYP) =  -992.151057697     A.U. after   10 cycles
 SCF Done:  E(UB3LYP) =  -992.151058012     A.U. after   10 cycles
 SCF Done:  E(UB3LYP) =  -992.151058267     A.U. after    9 cycles
 SCF Done:  E(UB3LYP) =  -992.151058412     A.U. after    9 cycles
 SCF Done:  E(UB3LYP) =  -992.151058461     A.U. after    8 cycles
 SCF Done:  E(UB3LYP) =  -992.151058486     A.U. after    8 cycles
 Optimization completed.
    -- Stationary point found.
 Normal termination of Gaussian 16 at Thu Dec 21 08:48:22 2023.

 ----------------------------------------------------------------------
 #P Geom=AllCheck Guess=TCheck SCRF=Check GenChk UB3LYP/6-311++G(d,p) F
 req
 ----------------------------------------------------------------------

 Structure from the checkpoint file:  "180.chk"
 --------
 Oxidized
 --------
 Charge =  0 Multiplicity = 1

                          Input orientation:
 ---------------------------------------------------------------------
 Center     Atomic      Atomic             Coordinates (Angstroms)
 Number     Number       Type             X           Y           Z
 ---------------------------------------------------------------------
      1          6           0       -1.529327    1.907156   -4.775952
      2          6           0       -1.493002    0.539121   -5.013161
      3          6           0       -1.254248   -0.348312   -3.959567
      4          6           0       -1.328292    2.397820   -3.480959
      5          6           0       -1.088373    1.508703   -2.422643
      6          6           0       -1.051459    0.133405   -2.671989
      7          6           0       -1.373180    3.856835   -3.240209
      8          6           0       -0.855903    1.995013   -1.029936
      9          6           0       -1.177777    4.356819   -1.874011
     10          6           0       -0.922748    3.468105   -0.788040
     11          6           0       -1.259482    5.751637   -1.646083
     12          6           0       -1.099342    6.252003   -0.343562
     13          6           0       -0.855227    5.388560    0.700371
     14          6           0       -0.761150    4.007896    0.488839
     15          8           0       -1.582051    4.633682   -4.184873
     16          8           0       -0.624437    1.193350   -0.138621
     17          1           0       -1.711135    2.613261   -5.576156
     18          1           0       -1.649116    0.160150   -6.016626
     19          1           0       -1.225264   -1.415647   -4.146965
     20          1           0       -0.860500   -0.536725   -1.843501
     21          1           0       -0.729276    5.759882    1.710180
     22          8           0       -1.490616    6.636120   -2.620528
     23          8           0       -0.582847    3.227998    1.617258
     24          6           0        0.652515    2.645486    1.831876
     25          6           0        0.568754    1.671742    2.968674
     26          8           0        1.621147    2.920212    1.183390
     27          1           0       -1.169359    7.321665   -0.190298
     28          1           0       -1.579024    6.123342   -3.463147
     29          1           0        0.037872    0.785220    2.612993
     30          1           0        0.001786    2.092489    3.800463
     31          1           0        1.571917    1.395912    3.287122
 ---------------------------------------------------------------------

 SCF Done:  E(UB3LYP) =  -992.151058486     A.U. after    2 cycles

 Alpha  occ. eigenvalues --  -19.18254 -19.16301 -19.14268 -19.13145 -19.12321
 Alpha  occ. eigenvalues --  -10.31613 -10.29293 -10.28791 -10.27281 -10.26565
 Alpha  occ. eigenvalues --  -10.22317 -10.21739 -10.21583 -10.21493 -10.21169
 Alpha  occ. eigenvalues --  -10.20812 -10.20751 -10.20575 -10.20570 -10.20424
 Alpha  occ. eigenvalues --  -10.18418  -1.12538  -1.09515  -1.06672  -1.06385
 Alpha  occ. eigenvalues --   -1.04261  -0.90182  -0.88788  -0.82482  -0.79296
 Alpha  occ. eigenvalues --   -0.78567  -0.78320  -0.75191  -0.70487  -0.68020
 Alpha  occ. eigenvalues --   -0.66595  -0.65039  -0.61158  -0.59162  -0.57641
 Alpha  occ. eigenvalues --   -0.56380  -0.54180  -0.51068  -0.50860  -0.50281
 Alpha  occ. eigenvalues --   -0.49893  -0.49161  -0.47867  -0.46722  -0.46388
 Alpha  occ. eigenvalues --   -0.46070  -0.45904  -0.45086  -0.44660  -0.43264
 Alpha  occ. eigenvalues --   -0.42498  -0.42396  -0.41596  -0.40365  -0.39337
 Alpha  occ. eigenvalues --   -0.39031  -0.38902  -0.38441  -0.37660  -0.35553
 Alpha  occ. eigenvalues --   -0.33324  -0.29972  -0.29639  -0.29321  -0.28655
 Alpha  occ. eigenvalues --   -0.28529  -0.27640  -0.25039
 Alpha virt. eigenvalues --   -0.12571  -0.07735  -0.04698  -0.02714  -0.01181
 Alpha virt. eigenvalues --   -0.00658  -0.00528   0.00326   0.00967   0.01335
 Alpha virt. eigenvalues --    0.02530   0.02738   0.03314   0.03361   0.03633

  Beta  occ. eigenvalues --  -19.18254 -19.16301 -19.14268 -19.13145 -19.12321
  Beta  occ. eigenvalues --  -10.31613 -10.29293 -10.28791 -10.27281 -10.26565
  Beta  occ. eigenvalues --  -10.22317 -10.21739 -10.21583 -10.21493 -10.21169
  Beta  occ. eigenvalues --  -10.20812 -10.20751 -10.20575 -10.20570 -10.20424
  Beta  occ. eigenvalues --  -10.18418  -1.12538  -1.09515  -1.06672  -1.06385
  Beta  occ. eigenvalues --   -1.04261  -0.90182  -0.88788  -0.82482  -0.79296
  Beta  occ. eigenvalues --   -0.78567  -0.78320  -0.75191  -0.70487  -0.68020
  Beta  occ. eigenvalues --   -0.66595  -0.65039  -0.61158  -0.59162  -0.57641
  Beta  occ. eigenvalues --   -0.56380  -0.54180  -0.51068  -0.50860  -0.50281
  Beta  occ. eigenvalues --   -0.49893  -0.49161  -0.47867  -0.46722  -0.46388
  Beta  occ. eigenvalues --   -0.46070  -0.45904  -0.45086  -0.44660  -0.43264
  Beta  occ. eigenvalues --   -0.42498  -0.42396  -0.41596  -0.40365  -0.39337
  Beta  occ. eigenvalues --   -0.39031  -0.38902  -0.38441  -0.37660  -0.35553
  Beta  occ. eigenvalues --   -0.33324  -0.29972  -0.29639  -0.29321  -0.28655
  Beta  occ. eigenvalues --   -0.28529  -0.27640  -0.25039
  Beta virt. eigenvalues --   -0.12571  -0.07735  -0.04698  -0.02714  -0.01181
  Beta virt. eigenvalues --   -0.00658  -0.00528   0.00326   0.00967   0.01335
  Beta virt. eigenvalues --    0.02530   0.02738   0.03314   0.03361   0.03633

 Mulliken charges and spin densities:
               1          2
     1  C    0.005834  -0.000000
     2  C   -0.442304   0.000000
     3  C   -0.350290   0.000000
     4  C    0.136601  -0.000000
     5  C   -0.111456   0.000000
     6  C    0.105784   0.000000
     7  C   -0.412209  -0.000000
     8  C   -0.314695   0.000000
     9  C    0.723922  -0.000000
    10  C    0.612950   0.000000
    11  C   -0.388663  -0.000000
    12  C   -0.074879  -0.000000
    13  C    0.181136   0.000000
    14  C   -0.238618  -0.000000
    15  O   -0.274901  -0.000000
    16  O   -0.204984  -0.000000
    17  H    0.186559   0.000000
    18  H    0.177112   0.000000
    19  H    0.181850   0.000000
    20  H    0.178448   0.000000
    21  H    0.202732  -0.000000
    22  O   -0.280739  -0.000000
    23  O    0.010868   0.000000
    24  C   -0.019742  -0.000000
    25  C   -0.475103   0.000000
    26  O   -0.192788   0.000000
    27  H    0.210986  -0.000000
    28  H    0.337767   0.000000
    29  H    0.195395  -0.000000
    30  H    0.165774  -0.000000
    31  H    0.167654   0.000000
 Sum of Mulliken charges =  -0.00000   0.00000

 Dipole moment (field-independent basis, Debye):
    X=             -1.5074    Y=             -1.9112    Z=              0.2317  Tot=              2.4451
 Quadrupole moment (field-independent basis, Debye-Ang):
   XX=           -126.5102   YY=           -123.3420   ZZ=           -104.7210
   XY=             -1.7678   XZ=              1.8123   YZ=             16.7744

  Exact polarizability: 116.058  -8.909 258.082  29.985  24.234 257.441
 Approx polarizability: 188.587 -18.199 427.692  37.398   7.040 417.742

                      1                      2                      3
                      A                      A                      A
 Frequencies --     26.6562                51.3115                68.6448
 Red. masses --      8.2652                 6.1478                 5.3850
 Frc consts  --      0.0035                 0.0095                 0.0150
 IR Inten    --      3.1092                 0.5137                 1.5850

                      4                      5                      6
                      A                      A                      A
 Frequencies --     79.2178                96.7402               103.2656
 Red. masses --      2.8211                 4.6017                 1.2484
 Frc consts  --      0.0104                 0.0254                 0.0078
 IR Inten    --      3.4963                 0.3518                 0.2992

                      7                      8                      9
                      A                      A                      A
 Frequencies --    126.7024               162.0223               175.1546
 Red. masses --      7.2714                 6.6034                 7.6382
 Frc consts  --      0.0688                 0.1021                 0.1381
 IR Inten    --      0.3699                 0.5335                 1.7901

                     10                     11                     12
                      A                      A                      A
 Frequencies --    211.5891               243.5959               294.3768
 Red. masses --      6.0307                 7.1571                 4.0758
 Frc consts  --      0.1591                 0.2502                 0.2081
 IR Inten    --      0.3530                 1.3459                 4.4990

                     13                     14                     15
                      A                      A                      A
 Frequencies --    308.8825               339.3470               368.5763
 Red. masses --      8.3288                 6.3504                 5.7286
 Frc consts  --      0.4682                 0.4309                 0.4585
 IR Inten    --      0.8584                 2.9092                 0.3551

                     16                     17                     18
                      A                      A                      A
 Frequencies --    393.0731               422.6143               425.5682
 Red. masses --      9.4392                 5.3493                 4.3166
 Frc consts  --      0.8593                 0.5629                 0.4606
 IR Inten    --      2.2395                 3.7235                 3.0213

                     19                     20                     21
                      A                      A                      A
 Frequencies --    433.4379               439.1174               479.6869
 Red. masses --      5.6121                11.8116                 7.3795
 Frc consts  --      0.6212                 1.3419                 1.0004
 IR Inten    --      0.8042                19.2000                 4.3657

                     22                     23                     24
                      A                      A                      A
 Frequencies --    495.1418               504.1210               523.9457
 Red. masses --      4.8165                 5.7386                 6.6870
 Frc consts  --      0.6957                 0.8593                 1.0816
 IR Inten    --      0.4881                 0.3421                15.6877

                     25                     26                     27
                      A                      A                      A
 Frequencies --    572.3644               577.6592               611.9708
 Red. masses --      3.9819                 3.1761                 5.2486
 Frc consts  --      0.7686                 0.6244                 1.1581
 IR Inten    --     15.2238                 7.7398                 2.5122

                     28                     29                     30
                      A                      A                      A
 Frequencies --    653.7494               666.1894               678.2893
 Red. masses --      5.2885                 5.9290                 5.6869
 Frc consts  --      1.3317                 1.5504                 1.5415
 IR Inten    --      6.4987                 5.5069                 8.7040

                     31                     32                     33
                      A                      A                      A
 Frequencies --    710.5556               732.3097               738.2075
 Red. masses --      6.4325                 4.5098                 2.5443
 Frc consts  --      1.9135                 1.4249                 0.8169
 IR Inten    --      3.9443                16.7153                16.2769

                     34                     35                     36
                      A                      A                      A
 Frequencies --    772.7623               788.2345               811.8104
 Red. masses --      5.4986                 5.0792                 1.8370
 Frc consts  --      1.9346                 1.8593                 0.7133
 IR Inten    --      1.3773                 3.1906                62.5274

                     37                     38                     39
                      A                      A                      A
 Frequencies --    828.0379               845.2341               879.6250
 Red. masses --      1.4177                 1.8259                 3.2780
 Frc consts  --      0.5727                 0.7686                 1.4944
 IR Inten    --     63.2302                19.8372                38.8633

                     40                     41                     42
                      A                      A                      A
 Frequencies --    896.6371               914.3172               922.1748
 Red. masses --      6.1421                 1.3677                 6.9363
 Frc consts  --      2.9094                 0.6736                 3.4754
 IR Inten    --     51.8559                 0.0140                28.9424

                     43                     44                     45
                      A                      A                      A
 Frequencies --    965.8343               983.8207              1002.4945
 Red. masses --      5.1689                 1.3808                 1.3778
 Frc consts  --      2.8409                 0.7874                 0.8158
 IR Inten    --     30.0365                 3.7092                 1.1542

                     46                     47                     48
                      A                      A                      A
 Frequencies --   1015.0672              1017.8940              1049.5419
 Red. masses --      2.1402                 1.3247                 2.6700
 Frc consts  --      1.2992                 0.8087                 1.7328
 IR Inten    --    121.7142                 0.0863                23.2665

                     49                     50                     51
                      A                      A                      A
 Frequencies --   1060.9147              1088.0986              1114.7698
 Red. masses --      1.7631                 2.1367                 2.3355
 Frc consts  --      1.1692                 1.4905                 1.7100
 IR Inten    --      6.6347                29.3481                 1.6928

                     52                     53                     54
                      A                      A                      A
 Frequencies --   1171.3383              1184.9368              1186.4254
 Red. masses --      1.3678                 1.4963                 1.7447
 Frc consts  --      1.1057                 1.2378                 1.4469
 IR Inten    --     19.5269                76.0847                14.9180

                     55                     56                     57
                      A                      A                      A
 Frequencies --   1191.3661              1248.3973              1253.8470
 Red. masses --      3.0548                 2.7393                 2.6107
 Frc consts  --      2.5546                 2.5154                 2.4182
 IR Inten    --    564.7824                17.9644                81.6526

                     58                     59                     60
                      A                      A                      A
 Frequencies --   1270.1271              1299.6721              1329.4763
 Red. masses --      3.5406                 2.3081                 3.3269
 Frc consts  --      3.3653                 2.2971                 3.4646
 IR Inten    --    411.7531                82.7061                42.5551

                     61                     62                     63
                      A                      A                      A
 Frequencies --   1359.9845              1375.3278              1395.0695
 Red. masses --      7.0311                 4.4202                 1.4207
 Frc consts  --      7.6619                 4.9262                 1.6291
 IR Inten    --     17.9536               267.3841                28.4820

                     64                     65                     66
                      A                      A                      A
 Frequencies --   1396.1297              1459.4977              1473.0582
 Red. masses --      3.8226                 5.5008                 1.0504
 Frc consts  --      4.3899                 6.9038                 1.3429
 IR Inten    --     97.4963                53.2478                14.1289

                     67                     68                     69
                      A                      A                      A
 Frequencies --   1475.2258              1484.0247              1493.5030
 Red. masses --      1.0555                 2.5248                 2.2290
 Frc consts  --      1.3533                 3.2762                 2.9294
 IR Inten    --     11.0103                 4.0409               237.3952

                     70                     71                     72
                      A                      A                      A
 Frequencies --   1510.1363              1608.2763              1617.8072
 Red. masses --      2.6275                 8.2700                 6.4593
 Frc consts  --      3.5304                12.6031                 9.9607
 IR Inten    --     14.3277                14.5473                 8.0757

                     73                     74                     75
                      A                      A                      A
 Frequencies --   1620.0503              1628.9265              1675.1153
 Red. masses --      3.6652                 5.8616                 7.9817
 Frc consts  --      5.6677                 9.1636                13.1957
 IR Inten    --     38.2538               110.5900               214.3353

                     76                     77                     78
                      A                      A                      A
 Frequencies --   1718.8513              1832.3759              3053.3325
 Red. masses --     12.1226                11.8244                 1.0357
 Frc consts  --     21.1020                23.3916                 5.6888
 IR Inten    --    191.7229               226.9566                 1.9750

                     79                     80                     81
                      A                      A                      A
 Frequencies --   3118.6038              3156.4865              3172.1020
 Red. masses --      1.0995                 1.1041                 1.0872
 Frc consts  --      6.3004                 6.4814                 6.4457
 IR Inten    --      3.8419                 6.7611                 3.0562

                     82                     83                     84
                      A                      A                      A
 Frequencies --   3186.5588              3190.2554              3204.4086
 Red. masses --      1.0923                 1.0886                 1.0924
 Frc consts  --      6.5348                 6.5280                 6.6090
 IR Inten    --     11.3543                 2.3535                 0.1243

                     85                     86                     87
                      A                      A                      A
 Frequencies --   3204.7597              3206.6486              3284.5338
 Red. masses --      1.0959                 1.0945                 1.0684
 Frc consts  --      6.6316                 6.6309                 6.7909
 IR Inten    --      1.8556                 9.3186               253.1364

 - Thermochemistry -
 -------------------
 Temperature   298.150 Kelvin.  Pressure   1.00000 Atm.
 Atom     1 has atomic number  6 and mass  12.00000

 Molecular mass:   282.05282 amu.
 Principal axes and moments of inertia in atomic units:
                           1         2         3
     Eigenvalues --  4086.204656235.148029892.20359
           X            0.25374  -0.18282   0.94984
           Y            0.25322   0.96028   0.11718
           Z            0.93354  -0.21079  -0.28996
 This molecule is an asymmetric top.
 Rotational symmetry number  1.
 Warning -- assumption of classical behavior for rotation
           may cause significant error
 Rotational temperatures (Kelvin)      0.02120     0.01389     0.00876
 Rotational constants (GHZ):           0.44167     0.28945     0.18244
 Zero-point vibrational energy     590404.9 (Joules/Mol)
                                  141.11016 (Kcal/Mol)
 Warning -- explicit consideration of  27 degrees of freedom as
           vibrations may cause significant error
 Vibrational temperatures:     38.35    73.83    98.76   113.98   139.19
          (Kelvin)            148.58   182.30   233.11   252.01   304.43
                              350.48   423.54   444.41   488.24   530.30
                              565.54   608.05   612.30   623.62   631.79
                              690.16   712.40   725.32   753.84   823.50
                              831.12   880.49   940.60   958.50   975.91
                             1022.33  1053.63  1062.12  1111.83  1134.09
                             1168.01  1191.36  1216.10  1265.58  1290.06
                             1315.50  1326.80  1389.62  1415.50  1442.37
                             1460.46  1464.52  1510.06  1526.42  1565.53
                             1603.91  1685.29  1704.86  1707.00  1714.11
                             1796.17  1804.01  1827.43  1869.94  1912.82
                             1956.71  1978.79  2007.19  2008.72  2099.89
                             2119.40  2122.52  2135.18  2148.82  2172.75
                             2313.95  2327.66  2330.89  2343.66  2410.12
                             2473.04  2636.38  4393.06  4486.98  4541.48
                             4563.95  4584.75  4590.07  4610.43  4610.93
                             4613.65  4725.71

 Zero-point correction=                           0.224873 (Hartree/Particle)
 Thermal correction to Energy=                    0.241592
 Thermal correction to Enthalpy=                  0.242536
 Thermal correction to Gibbs Free Energy=         0.179563
 Sum of electronic and zero-point Energies=           -991.926185
 Sum of electronic and thermal Energies=              -991.909466
 Sum of electronic and thermal Enthalpies=            -991.908522
 Sum of electronic and thermal Free Energies=         -991.971496

                     E (Thermal)             CV                S
                      KCal/Mol        Cal/Mol-Kelvin    Cal/Mol-Kelvin
 Total                  151.601             64.962            132.539
 Electronic               0.000              0.000              0.000
 Translational            0.889              2.981             42.809
 Rotational               0.889              2.981             33.888
 Vibrational            149.824             59.001             55.842
 Vibration     1          0.593              1.984              6.064
 Vibration     2          0.596              1.977              4.766
 Vibration     3          0.598              1.969              4.192
 Vibration     4          0.600              1.963              3.910
 Vibration     5          0.603              1.952              3.519
 Vibration     6          0.605              1.947              3.392
 Vibration     7          0.611              1.926              2.996
 Vibration     8          0.622              1.889              2.526
 Vibration     9          0.627              1.873              2.379
 Vibration    10          0.643              1.823              2.030
 Vibration    11          0.659              1.773              1.776
 Vibration    12          0.689              1.684              1.449
 Vibration    13          0.698              1.657              1.368
 Vibration    14          0.719              1.597              1.215
 Vibration    15          0.741              1.537              1.086
 Vibration    16          0.760              1.485              0.988
 Vibration    17          0.785              1.421              0.883
 Vibration    18          0.787              1.415              0.873
 Vibration    19          0.794              1.397              0.847
 Vibration    20          0.799              1.385              0.829
 Vibration    21          0.836              1.295              0.711
 Vibration    22          0.851              1.261              0.670
 Vibration    23          0.859              1.241              0.648
 Vibration    24          0.879              1.197              0.601
 Vibration    25          0.929              1.091              0.500
 Vibration    26          0.934              1.080              0.490
 Vibration    27          0.971              1.007              0.430

 Optimization completed.
    -- Stationary point found.
 Normal termination of Gaussian 16 at Thu Dec 21 10:10:48 2023.
