 Q-Chem 5.4, Q-Chem, Inc., Pleasanton, CA (2021)
 Q-Chem 5.4.0 for Intel X86 EM64T Linux

User input:
--------------------------------------------------------------
$molecule
0 1
C                  0.9245440000      2.1600700000     -1.4316230000
C                  1.0715310000      3.2156450000     -0.5369840000
C                  1.8783500000      3.0658780000      0.5924250000
C                  1.5871640000      0.9535540000     -1.1937170000
C                  2.3995710000      0.7998030000     -0.0582220000
C                  2.5400020000      1.8628590000      0.8320930000
C                  1.4416800000     -0.1740500000     -2.1319370000
C                  2.1753370000     -1.4382350000     -1.8343260000
C                  2.9566380000     -1.6132190000     -0.7402550000
C                  3.1173590000     -0.4928600000      0.2098080000
O                  0.7534800000     -0.1396800000     -3.1457110000
O                  3.8203180000     -0.6095210000      1.2042830000
O                  1.9890270000     -2.4042370000     -2.7479430000
H                  0.3040240000      2.2522460000     -2.3145880000
H                  0.5595420000      4.1535930000     -0.7180540000
H                  1.9917180000      3.8895840000      1.2880900000
H                  3.1694050000      1.7299580000      1.7032240000
H                  1.3832190000     -2.0311550000     -3.4164380000
C                  3.6932860000     -2.8953570000     -0.4704040000
C                  5.1331150000     -2.8673300000     -1.0295910000
C                  5.8993270000     -4.1990920000     -0.8540070000
C                  7.2162210000     -4.1624190000     -1.6159140000
C                  8.2559140000     -3.2991670000     -1.2438800000
C                  7.4225340000     -4.9852510000     -2.7267740000
C                  9.4544230000     -3.2562920000     -1.9493860000
C                  9.6352520000     -4.0974060000     -3.0471310000
C                  8.6202540000     -4.9620110000     -3.4401010000
H                  3.1452920000     -3.7254350000     -0.9241770000
H                  3.7205480000     -3.0506740000      0.6093790000
H                  5.6885850000     -2.0585060000     -0.5439350000
H                  5.0925840000     -2.6286500000     -2.0968620000
H                  5.2897920000     -4.9866650000     -1.3139610000
C                  6.1065520000     -4.5753500000      0.6248910000
H                  8.1317410000     -2.6379510000     -0.3930710000
H                  6.6350380000     -5.6624510000     -3.0420200000
H                  8.7750480000     -5.6019770000     -4.3005170000
O                 10.7729570000     -4.0416200000     -3.8351020000
C                 12.0281210000     -4.0914350000     -3.2637850000
C                 12.3023690000     -4.7891420000     -2.0868130000
C                 13.0536960000     -3.4597000000     -3.9677260000
C                 14.3584330000     -3.5237660000     -3.4876410000
C                 13.6131560000     -4.8397440000     -1.6146140000
C                 14.6454780000     -4.2103410000     -2.3076390000
H                 10.2434940000     -2.5751390000     -1.6539700000
H                  5.1530490000     -4.7211310000      1.1379790000
H                  6.6548370000     -3.7956350000      1.1614940000
H                  6.6758010000     -5.5044340000      0.7094940000
H                 11.5044210000     -5.2868300000     -1.5505090000
H                 12.8123540000     -2.9308110000     -4.8818190000
H                 15.1527650000     -3.0311230000     -4.0371980000
H                 13.8253160000     -5.3832610000     -0.7005570000
H                 15.6616570000     -4.2555870000     -1.9341550000
$end
$rem
MAX_SCF_CYCLES=200
BASIS  =  6-311++G(d,p)
GUI  =  2
JOB_TYPE  =  SP
THRESH = 14
SCF_CONVERGENCE  = 8
METHOD  =  B3LYP
SOLVENT_METHOD = COSMO
$end
$solvent
dielectric 37.219
opticaldielectric 1.43
$end

--------------------------------------------------------------

             Standard Nuclear Orientation (Angstroms)
    I     Atom           X                Y                Z
 ----------------------------------------------------------------
    1      C       6.6179504736     1.3680247803     1.2663020756
    2      C       7.0843719489     2.5211390318     0.6426024448
    3      C       6.4912807368     2.9625037678    -0.5416237694
    4      C       5.5559817933     0.6570857127     0.7022687860
    5      C       4.9572426751     1.0986137583    -0.4891832071
    6      C       5.4319515426     2.2545070483    -1.1064610354
    7      C       5.0503845010    -0.5662908958     1.3508319634
    8      C       3.9106890825    -1.2845446058     0.7103676191
    9      C       3.3237099042    -0.8832268436    -0.4439466812
   10      C       3.8146489926     0.3428783931    -1.1067437790
   11      O       5.5082418572    -1.0336097763     2.3874215472
   12      O       3.3055168313     0.7414298789    -2.1453403444
   13      O       3.5141049021    -2.3806695171     1.3765496284
   14      H       7.0619362660     1.0058347729     2.1854667460
   15      H       7.9078075153     3.0759528096     1.0771148977
   16      H       6.8560225793     3.8612698312    -1.0258516307
   17      H       4.9608040338     2.5829556489    -2.0245141783
   18      H       4.0999915708    -2.4513560798     2.1542509194
   19      C       2.1691009248    -1.6209301047    -1.0620240974
   20      C       0.8062162582    -1.0503046369    -0.6108975916
   21      C      -0.4114961907    -1.8353992213    -1.1515485693
   22      C      -1.6951390197    -1.3500524289    -0.4937062087
   23      C      -2.1920600863    -0.0587183233    -0.7175376816
   24      C      -2.4133283421    -2.1804772567     0.3712944828
   25      C      -3.3582949833     0.3890619118    -0.1048470331
   26      C      -4.0593720492    -0.4664012383     0.7447939027
   27      C      -3.5884981115    -1.7516422987     0.9869123001
   28      H       2.2288460267    -2.6766387584    -0.7842713173
   29      H       2.2591712164    -1.5451070749    -2.1468909671
   30      H       0.7361209257    -0.0039046387    -0.9251246151
   31      H       0.7654166677    -1.0570040522     0.4827059943
   32      H      -0.2799759100    -2.8828810183    -0.8534778907
   33      C      -0.5087216435    -1.7977493768    -2.6880319823
   34      H      -1.6589600768     0.6196450089    -1.3749029198
   35      H      -2.0524354705    -3.1851325851     0.5676457923
   36      H      -4.1414373212    -2.3994118271     1.6566034416
   37      O      -5.1797784847    -0.0499762222     1.4445529090
   38      C      -6.2226385253     0.5779167118     0.7945415899
   39      C      -6.5663099599     0.3093848809    -0.5309963057
   40      C      -6.9848350614     1.4622420949     1.5583813502
   41      C      -8.0930902390     2.0832171965     0.9899756119
   42      C      -7.6755528376     0.9433915436    -1.0889486400
   43      C      -8.4429215731     1.8307364388    -0.3366955181
   44      H      -3.7222222765     1.3942219502    -0.2811515651
   45      H       0.3636757432    -2.2604013712    -3.1555309646
   46      H      -0.5762699110    -0.7706127170    -3.0580890261
   47      H      -1.3954593131    -2.3367941965    -3.0308528659
   48      H      -5.9778025728    -0.3861515883    -1.1157393363
   49      H      -6.6982032736     1.6466748479     2.5866625986
   50      H      -8.6827323216     2.7702728170     1.5865911805
   51      H      -7.9424258692     0.7330181399    -2.1187275533
   52      H      -9.3041703411     2.3183589352    -0.7778668221
 ----------------------------------------------------------------

   16   -1305.2680636106      2.45e-09  Convergence criterion met
 Total energy in the final basis set =    -1305.2680636106
   10   -1305.2895668063      7.17e-09  Convergence criterion met
 Total energy in the final basis set =    -1305.2895668063

                    Orbital Energies (a.u.)
 --------------------------------------------------------------

 Alpha MOs
 -- Occupied --
-19.1787 -19.1716 -19.1504 -19.1304 -10.2944 -10.2819 -10.2678 -10.2453
-10.2406 -10.2106 -10.2094 -10.2043 -10.2004 -10.1983 -10.1967 -10.1965
-10.1832 -10.1825 -10.1820 -10.1811 -10.1807 -10.1806 -10.1797 -10.1792
-10.1787 -10.1787 -10.1771 -10.1753 -10.1706 -10.1571  -1.1090  -1.0901
 -1.0681  -1.0642  -0.8925  -0.8741  -0.8609  -0.8446  -0.8136  -0.7876
 -0.7797  -0.7657  -0.7591  -0.7557  -0.7400  -0.7182  -0.6943  -0.6654
 -0.6536  -0.6428  -0.6286  -0.6203  -0.6140  -0.6045  -0.5897  -0.5739
 -0.5670  -0.5547  -0.5429  -0.5207  -0.5108  -0.4982  -0.4946  -0.4839
 -0.4812  -0.4741  -0.4710  -0.4686  -0.4593  -0.4521  -0.4517  -0.4485
 -0.4424  -0.4343  -0.4320  -0.4291  -0.4267  -0.4213  -0.4136  -0.4102
 -0.4076  -0.4019  -0.3992  -0.3871  -0.3807  -0.3774  -0.3728  -0.3714
 -0.3694  -0.3628  -0.3604  -0.3483  -0.3414  -0.3335  -0.3310  -0.3250
 -0.3044  -0.2902  -0.2806  -0.2800  -0.2692  -0.2635  -0.2605  -0.2539
 -0.2295

          Ground-State Mulliken Net Atomic Charges

     Atom                 Charge (a.u.)
  ----------------------------------------
      1 C                     0.208431
      2 C                    -0.372863
      3 C                    -0.437564
      4 C                     0.348362
      5 C                     0.050503
      6 C                     0.226935
      7 C                    -0.724355
      8 C                    -0.563129
      9 C                     1.761731
     10 C                    -0.929908
     11 O                    -0.326837
     12 O                    -0.274167
     13 O                    -0.232543
     14 H                     0.209291
     15 H                     0.227051
     16 H                     0.226801
     17 H                     0.204317
     18 H                     0.324163
     19 C                    -0.221892
     20 C                    -1.034779
     21 C                     0.245759
     22 C                     0.742547
     23 C                    -0.244432
     24 C                    -0.222899
     25 C                    -0.007539
     26 C                    -0.584375
     27 C                    -0.194883
     28 H                     0.233037
     29 H                     0.249819
     30 H                     0.187775
     31 H                     0.212499
     32 H                     0.213523
     33 C                    -0.751242
     34 H                     0.200891
     35 H                     0.193574
     36 H                     0.235817
     37 O                    -0.058959
     38 C                    -0.359883
     39 C                     0.215845
     40 C                    -0.171088
     41 C                    -0.252541
     42 C                    -0.139387
     43 C                    -0.363664
     44 H                     0.216989
     45 H                     0.143758
     46 H                     0.175873
     47 H                     0.163118
     48 H                     0.202318
     49 H                     0.214345
     50 H                     0.215795
     51 H                     0.227587
     52 H                     0.190477
  ----------------------------------------
  Sum of atomic charges =     0.000000

                    Cartesian Multipole Moments
 -----------------------------------------------------------------
    Charge (ESU x 10^10)
                -0.0000
    Dipole Moment (Debye)
         X       3.1817      Y       1.7889      Z      -0.5153
       Tot       3.6863
    Quadrupole Moments (Debye-Ang)
        XX    -147.1657     XY      11.5008     YY    -160.6801
        XZ       8.2819     YZ       3.0299     ZZ    -181.7585

 Total job time:  634.27s(wall), 4999.54s(cpu)
        *  Thank you very much for using Q-Chem.  Have a nice day.  *
