 Gaussian 16, Revision A.03,
 Gaussian 16:  ES64L-G16RevA.03 25-Dec-2016

 ----------------------------------------------------------------
 #P UB3LYP/6-311++G(d,p) SCRF=(PCM,Solvent=n,n-DiMethylFormamide)
 ----------------------------------------------------------------

 ------------------
 Quinone PCM in DMF
 ------------------
 Symbolic Z-matrix:
 Charge =  0 Multiplicity = 1

                         Standard orientation:
 ---------------------------------------------------------------------
 Center     Atomic      Atomic             Coordinates (Angstroms)
 Number     Number       Type             X           Y           Z
 ---------------------------------------------------------------------
      1          8           0       -2.582818   -2.368364    0.000196
      2          6           0       -2.522344   -1.016522    0.000122
      3          6           0       -3.701683   -0.260636    0.000309
      4          6           0       -3.661962    1.125608    0.000256
      5          6           0       -2.438588    1.786935    0.000035
      6          6           0       -1.256135    1.052147   -0.000136
      7          6           0        0.028698    1.822665   -0.000290
      8          8           0        0.021706    3.042962   -0.000404
      9          6           0        1.300583    1.053785   -0.000085
     10          6           0        2.503581    1.748937    0.000162
     11          6           0        3.708987    1.041846    0.000382
     12          6           0        3.717007   -0.342439    0.000343
     13          6           0        2.510164   -1.060563    0.000059
     14          8           0        2.582465   -2.396459   -0.000019
     15          6           0        1.277296   -0.359111   -0.000107
     16          6           0        0.012184   -1.115239   -0.000276
     17          8           0        0.033380   -2.352729   -0.000560
     18          6           0       -1.266864   -0.362686   -0.000101
     19          1           0       -3.506996   -2.643386    0.000381
     20          1           0       -4.656439   -0.778916    0.000478
     21          1           0       -4.588124    1.688722    0.000392
     22          1           0       -2.376425    2.866909   -0.000012
     23          1           0        2.481650    2.830684    0.000204
     24          1           0        4.649627    1.581015    0.000588
     25          1           0        4.642646   -0.905176    0.000505
     26          1           0        1.650651   -2.731496   -0.000268
 ---------------------------------------------------------------------

 SCF Done:  E(UB3LYP) =  -839.466329266     A.U. after   14 cycles

 The electronic state is 1-A.
 Alpha  occ. eigenvalues --  -19.17704 -19.16249 -19.13715 -19.13166 -10.29150
 Alpha  occ. eigenvalues --  -10.28465 -10.27312 -10.26756 -10.21473 -10.21353
 Alpha  occ. eigenvalues --  -10.21109 -10.20974 -10.20442 -10.20241 -10.20152
 Alpha  occ. eigenvalues --  -10.19589 -10.19455 -10.19423  -1.09671  -1.09079
 Alpha  occ. eigenvalues --   -1.06739  -1.06086  -0.89512  -0.88089  -0.81750
 Alpha  occ. eigenvalues --   -0.78002  -0.77573  -0.77028  -0.69629  -0.67655
 Alpha  occ. eigenvalues --   -0.66222  -0.63184  -0.60734  -0.58541  -0.56390
 Alpha  occ. eigenvalues --   -0.54176  -0.52821  -0.51263  -0.49878  -0.49161
 Alpha  occ. eigenvalues --   -0.48036  -0.46903  -0.46381  -0.45531  -0.45377
 Alpha  occ. eigenvalues --   -0.43899  -0.42918  -0.41718  -0.41462  -0.40641
 Alpha  occ. eigenvalues --   -0.40141  -0.38569  -0.38270  -0.37801  -0.36532
 Alpha  occ. eigenvalues --   -0.35608  -0.29530  -0.29143  -0.28156  -0.27634
 Alpha  occ. eigenvalues --   -0.25768  -0.25030
 Alpha virt. eigenvalues --   -0.12162  -0.06837  -0.04158  -0.01675  -0.00798
 Alpha virt. eigenvalues --    0.00015   0.00620   0.01497   0.01822   0.02815
 Alpha virt. eigenvalues --    0.03561   0.03774   0.03934   0.04172   0.04301

  Beta  occ. eigenvalues --  -19.17704 -19.16249 -19.13715 -19.13166 -10.29150
  Beta  occ. eigenvalues --  -10.28465 -10.27312 -10.26756 -10.21473 -10.21353
  Beta  occ. eigenvalues --  -10.21109 -10.20974 -10.20442 -10.20241 -10.20152
  Beta  occ. eigenvalues --  -10.19589 -10.19455 -10.19423  -1.09671  -1.09079
  Beta  occ. eigenvalues --   -1.06739  -1.06086  -0.89512  -0.88089  -0.81750
  Beta  occ. eigenvalues --   -0.78002  -0.77573  -0.77028  -0.69629  -0.67655
  Beta  occ. eigenvalues --   -0.66222  -0.63184  -0.60734  -0.58541  -0.56390
  Beta  occ. eigenvalues --   -0.54176  -0.52821  -0.51263  -0.49878  -0.49161
  Beta  occ. eigenvalues --   -0.48036  -0.46903  -0.46381  -0.45531  -0.45377
  Beta  occ. eigenvalues --   -0.43899  -0.42918  -0.41718  -0.41462  -0.40641
  Beta  occ. eigenvalues --   -0.40141  -0.38569  -0.38270  -0.37801  -0.36532
  Beta  occ. eigenvalues --   -0.35608  -0.29530  -0.29143  -0.28156  -0.27634
  Beta  occ. eigenvalues --   -0.25768  -0.25030
  Beta virt. eigenvalues --   -0.12162  -0.06837  -0.04158  -0.01675  -0.00798
  Beta virt. eigenvalues --    0.00015   0.00620   0.01497   0.01822   0.02815
  Beta virt. eigenvalues --    0.03561   0.03774   0.03934   0.04172   0.04301

 Mulliken charges and spin densities:
               1          2
     1  O   -0.213712   0.000000
     2  C    0.107230  -0.000000
     3  C   -0.178109  -0.000000
     4  C   -0.302652   0.000000
     5  C    0.064903   0.000000
     6  C    0.332718   0.000000
     7  C   -0.491521  -0.000000
     8  O   -0.269920   0.000000
     9  C    0.272959  -0.000000
    10  C    0.025642  -0.000000
    11  C   -0.382118  -0.000000
    12  C   -0.188013   0.000000
    13  C   -0.054125  -0.000000
    14  O   -0.323972   0.000000
    15  C    0.413492  -0.000000
    16  C   -0.350611   0.000000
    17  O   -0.319502  -0.000000
    18  C   -0.006978   0.000000
    19  H    0.311395   0.000000
    20  H    0.182644   0.000000
    21  H    0.222522  -0.000000
    22  H    0.175189   0.000000
    23  H    0.178710  -0.000000
    24  H    0.217009  -0.000000
    25  H    0.213794   0.000000
    26  H    0.363025  -0.000000
 Sum of Mulliken charges =  -0.00000  -0.00000

 Dipole moment (field-independent basis, Debye):
    X=             -4.2442    Y=              0.3308    Z=              0.0020  Tot=              4.2570
 Quadrupole moment (field-independent basis, Debye-Ang):
   XX=            -64.9950   YY=           -117.3898   ZZ=           -105.1575
   XY=             10.6282   XZ=             -0.0018   YZ=              0.0002

 Normal termination of Gaussian 16 at Tue Jan 16 05:02:07 2024.
