 Q-Chem 5.4, Q-Chem, Inc., Pleasanton, CA (2021)
 Q-Chem 5.4.0 for Intel X86 EM64T Linux

User input:
--------------------------------------------------------------
$molecule
0 1
O                  0.0511760000     -2.1164010000     -1.4741680000
C                  0.0267900000     -1.1134560000     -0.7728640000
C                  1.3282650000     -0.5681610000     -0.2683820000
C                  2.3574340000     -1.5214090000     -0.1656140000
C                  3.6344950000     -1.1758740000      0.2433100000
C                  3.9272880000      0.1610320000      0.5271410000
C                  2.9338660000      1.1166240000      0.4121230000
C                  1.6121080000      0.7842250000      0.0392970000
C                  0.6716160000      1.8882200000     -0.0221680000
C                 -0.6761460000      1.8855800000     -0.0651720000
C                 -1.6143340000      0.7779060000     -0.0635990000
C                 -2.9584000000      1.1050930000      0.2244340000
C                 -3.9534390000      0.1456640000      0.2759800000
C                 -3.6380670000     -1.1900070000      0.0111570000
C                 -2.3362540000     -1.5305070000     -0.3156820000
C                 -1.3062910000     -0.5733000000     -0.3526150000
H                  2.1224180000     -2.5449060000     -0.4268270000
H                  4.4021720000     -1.9363100000      0.3277690000
H                  4.9263650000      0.4516200000      0.8318270000
H                  3.1634230000      2.1556830000      0.6218020000
H                  1.1395920000      2.8670350000      0.0322960000
H                 -1.1504950000      2.8625370000     -0.0408050000
H                 -3.2048160000      2.1431980000      0.4191840000
H                 -4.9709670000      0.4323300000      0.5165810000
H                 -4.4066410000     -1.9534030000      0.0464930000
H                 -2.0811570000     -2.5530120000     -0.5614970000
$end

$rem
BASIS  =  6-311++G(d,p)
GUI  =  2
JOB_TYPE  =  SP
METHOD  =  B3LYP
SCF_CONVERGENCE  = 8
SOLVENT_METHOD = sm12
$end

$smx
solvent dimethylformamide
charges CM5
$end

--------------------------------------------------------------

             Standard Nuclear Orientation (Angstroms)
    I     Atom           X                Y                Z
 ----------------------------------------------------------------
    1      O       0.0511760000    -2.1164010000    -1.4741680000
    2      C       0.0267900000    -1.1134560000    -0.7728640000
    3      C       1.3282650000    -0.5681610000    -0.2683820000
    4      C       2.3574340000    -1.5214090000    -0.1656140000
    5      C       3.6344950000    -1.1758740000     0.2433100000
    6      C       3.9272880000     0.1610320000     0.5271410000
    7      C       2.9338660000     1.1166240000     0.4121230000
    8      C       1.6121080000     0.7842250000     0.0392970000
    9      C       0.6716160000     1.8882200000    -0.0221680000
   10      C      -0.6761460000     1.8855800000    -0.0651720000
   11      C      -1.6143340000     0.7779060000    -0.0635990000
   12      C      -2.9584000000     1.1050930000     0.2244340000
   13      C      -3.9534390000     0.1456640000     0.2759800000
   14      C      -3.6380670000    -1.1900070000     0.0111570000
   15      C      -2.3362540000    -1.5305070000    -0.3156820000
   16      C      -1.3062910000    -0.5733000000    -0.3526150000
   17      H       2.1224180000    -2.5449060000    -0.4268270000
   18      H       4.4021720000    -1.9363100000     0.3277690000
   19      H       4.9263650000     0.4516200000     0.8318270000
   20      H       3.1634230000     2.1556830000     0.6218020000
   21      H       1.1395920000     2.8670350000     0.0322960000
   22      H      -1.1504950000     2.8625370000    -0.0408050000
   23      H      -3.2048160000     2.1431980000     0.4191840000
   24      H      -4.9709670000     0.4323300000     0.5165810000
   25      H      -4.4066410000    -1.9534030000     0.0464930000
   26      H      -2.0811570000    -2.5530120000    -0.5614970000
 ----------------------------------------------------------------

   14    -653.0026597397      5.85e-09  Convergence criterion met
 Total energy in the final basis set =     -653.0239882079

                    Orbital Energies (a.u.)
 --------------------------------------------------------------

 Alpha MOs
 -- Occupied --
-19.1162 -10.2750 -10.2106 -10.2106 -10.2042 -10.2042 -10.1943 -10.1935
-10.1918 -10.1917 -10.1906 -10.1905 -10.1903 -10.1903 -10.1889 -10.1889
 -1.0542  -0.8874  -0.8774  -0.8219  -0.7826  -0.7803  -0.7693  -0.7382
 -0.6671  -0.6612  -0.6200  -0.6157  -0.5836  -0.5741  -0.5204  -0.5084
 -0.4995  -0.4856  -0.4722  -0.4533  -0.4463  -0.4461  -0.4394  -0.4371
 -0.4142  -0.3980  -0.3902  -0.3837  -0.3706  -0.3693  -0.3618  -0.3526
 -0.3304  -0.2861  -0.2785  -0.2759  -0.2631  -0.2330

          Ground-State Mulliken Net Atomic Charges

     Atom                 Charge (a.u.)
  ----------------------------------------
      1 O                    -0.279076
      2 C                    -2.046372
      3 C                    -0.311960
      4 C                    -0.565444
      5 C                    -0.031578
      6 C                     0.180031
      7 C                     0.428928
      8 C                    -0.201288
      9 C                     0.319956
     10 C                     0.319489
     11 C                    -0.199968
     12 C                     0.429563
     13 C                     0.179471
     14 C                    -0.029596
     15 C                    -0.567650
     16 C                    -0.305488
     17 H                     0.173687
     18 H                     0.284065
     19 H                     0.314228
     20 H                     0.275703
     21 H                     0.292656
     22 H                     0.292653
     23 H                     0.275877
     24 H                     0.314235
     25 H                     0.284163
     26 H                     0.173713
  ----------------------------------------
  Sum of atomic charges =     0.000000

                    Cartesian Multipole Moments
 -----------------------------------------------------------------
    Charge (ESU x 10^10)
                 0.0000
    Dipole Moment (Debye)
         X      -0.0841      Y       3.1908      Z       2.3718
       Tot       3.9766
    Quadrupole Moments (Debye-Ang)
        XX     -69.2515     XY       0.1413     YY     -87.0840
        XZ       1.0479     YZ      -3.3332     ZZ    -101.9025

 Total job time:  497.13s(wall), 3617.36s(cpu)
        *  Thank you very much for using Q-Chem.  Have a nice day.  *
