 Gaussian 16, Revision A.03,
 Gaussian 16:  ES64L-G16RevA.03 25-Dec-2016

 --------------------------------------
 #P UB3LYP/6-311++G(d,p) nosym opt freq
 --------------------------------------

 --------
 Oxidized
 --------
 Symbolic Z-matrix:
 Charge =  0 Multiplicity = 1

 SCF Done:  E(UB3LYP) =  -653.004667970     A.U. after   16 cycles
 Optimization completed.
    -- Stationary point found.
 Normal termination of Gaussian 16 at Tue Jan  9 20:34:07 2024.

 ----------------------------------------------------------------------
 #P Geom=AllCheck Guess=TCheck SCRF=Check GenChk UB3LYP/6-311++G(d,p) F
 req
 ----------------------------------------------------------------------

 Structure from the checkpoint file:  "344.chk"
 --------
 Oxidized
 --------
 Charge =  0 Multiplicity = 1

                          Input orientation:
 ---------------------------------------------------------------------
 Center     Atomic      Atomic             Coordinates (Angstroms)
 Number     Number       Type             X           Y           Z
 ---------------------------------------------------------------------
      1          8           0        0.051176   -2.116401   -1.474168
      2          6           0        0.026790   -1.113456   -0.772864
      3          6           0        1.328265   -0.568161   -0.268382
      4          6           0        2.357434   -1.521409   -0.165614
      5          6           0        3.634495   -1.175874    0.243310
      6          6           0        3.927288    0.161032    0.527141
      7          6           0        2.933866    1.116624    0.412123
      8          6           0        1.612108    0.784225    0.039297
      9          6           0        0.671616    1.888220   -0.022168
     10          6           0       -0.676146    1.885580   -0.065172
     11          6           0       -1.614334    0.777906   -0.063599
     12          6           0       -2.958400    1.105093    0.224434
     13          6           0       -3.953439    0.145664    0.275980
     14          6           0       -3.638067   -1.190007    0.011157
     15          6           0       -2.336254   -1.530507   -0.315682
     16          6           0       -1.306291   -0.573300   -0.352615
     17          1           0        2.122418   -2.544906   -0.426827
     18          1           0        4.402172   -1.936310    0.327769
     19          1           0        4.926365    0.451620    0.831827
     20          1           0        3.163423    2.155683    0.621802
     21          1           0        1.139592    2.867035    0.032296
     22          1           0       -1.150495    2.862537   -0.040805
     23          1           0       -3.204816    2.143198    0.419184
     24          1           0       -4.970967    0.432330    0.516581
     25          1           0       -4.406641   -1.953403    0.046493
     26          1           0       -2.081157   -2.553012   -0.561497
 ---------------------------------------------------------------------

 SCF Done:  E(UB3LYP) =  -653.004667970     A.U. after    1 cycles

 Alpha  occ. eigenvalues --  -19.10856 -10.26752 -10.20840 -10.20839 -10.20018
 Alpha  occ. eigenvalues --  -10.20017 -10.19491 -10.19415 -10.19218 -10.19218
 Alpha  occ. eigenvalues --  -10.19061 -10.19061 -10.18831 -10.18830 -10.18682
 Alpha  occ. eigenvalues --  -10.18682  -1.04603  -0.88618  -0.87580  -0.82116
 Alpha  occ. eigenvalues --   -0.78001  -0.77919  -0.76751  -0.73770  -0.66450
 Alpha  occ. eigenvalues --   -0.66041  -0.61890  -0.61449  -0.58224  -0.57207
 Alpha  occ. eigenvalues --   -0.52017  -0.50925  -0.49906  -0.48416  -0.47117
 Alpha  occ. eigenvalues --   -0.45241  -0.44467  -0.44119  -0.43700  -0.43594
 Alpha  occ. eigenvalues --   -0.41129  -0.40033  -0.38799  -0.38038  -0.36932
 Alpha  occ. eigenvalues --   -0.36870  -0.36079  -0.35239  -0.32982  -0.28353
 Alpha  occ. eigenvalues --   -0.27392  -0.27193  -0.25686  -0.23146
 Alpha virt. eigenvalues --   -0.07640  -0.07403  -0.02247  -0.02179  -0.01242
 Alpha virt. eigenvalues --   -0.00440   0.00211   0.01432   0.01700   0.02894
 Alpha virt. eigenvalues --    0.03313   0.03378   0.04066   0.04151   0.04689

  Beta  occ. eigenvalues --  -19.10856 -10.26752 -10.20840 -10.20839 -10.20018
  Beta  occ. eigenvalues --  -10.20017 -10.19491 -10.19415 -10.19218 -10.19218
  Beta  occ. eigenvalues --  -10.19061 -10.19061 -10.18831 -10.18830 -10.18682
  Beta  occ. eigenvalues --  -10.18682  -1.04603  -0.88618  -0.87580  -0.82116
  Beta  occ. eigenvalues --   -0.78001  -0.77919  -0.76751  -0.73770  -0.66450
  Beta  occ. eigenvalues --   -0.66041  -0.61890  -0.61449  -0.58224  -0.57207
  Beta  occ. eigenvalues --   -0.52017  -0.50925  -0.49906  -0.48416  -0.47117
  Beta  occ. eigenvalues --   -0.45241  -0.44467  -0.44119  -0.43700  -0.43594
  Beta  occ. eigenvalues --   -0.41129  -0.40033  -0.38799  -0.38038  -0.36932
  Beta  occ. eigenvalues --   -0.36870  -0.36079  -0.35239  -0.32982  -0.28353
  Beta  occ. eigenvalues --   -0.27392  -0.27193  -0.25686  -0.23146
  Beta virt. eigenvalues --   -0.07640  -0.07403  -0.02247  -0.02179  -0.01242
  Beta virt. eigenvalues --   -0.00440   0.00211   0.01432   0.01700   0.02894
  Beta virt. eigenvalues --    0.03313   0.03378   0.04066   0.04151   0.04689

 Mulliken charges and spin densities:
               1          2
     1  O   -0.218802   0.000000
     2  C   -0.680102  -0.000000
     3  C    0.703594  -0.000000
     4  C    0.004194  -0.000000
     5  C   -0.501082   0.000000
     6  C   -0.282801  -0.000000
     7  C   -0.206727  -0.000000
     8  C    0.207079   0.000000
     9  C   -0.304234   0.000000
    10  C   -0.304196   0.000000
    11  C    0.206786   0.000000
    12  C   -0.207204  -0.000000
    13  C   -0.282765  -0.000000
    14  C   -0.501176   0.000000
    15  C    0.004003  -0.000000
    16  C    0.703886   0.000000
    17  H    0.198034   0.000000
    18  H    0.171453   0.000000
    19  H    0.166372   0.000000
    20  H    0.138381  -0.000000
    21  H    0.155512   0.000000
    22  H    0.155573   0.000000
    23  H    0.138363   0.000000
    24  H    0.166374  -0.000000
    25  H    0.171456   0.000000
    26  H    0.198032  -0.000000
 Sum of Mulliken charges =   0.00000  -0.00000

 Dipole moment (field-independent basis, Debye):
    X=             -0.0681    Y=              2.3550    Z=              1.9837  Tot=              3.0799
 Quadrupole moment (field-independent basis, Debye-Ang):
   XX=            -74.5353   YY=            -87.8540   ZZ=           -101.4371
   XY=              0.1247   XZ=              0.8643   YZ=             -3.0709

  Exact polarizability: 287.470  -0.309 182.258   6.017  16.172  98.011
 Approx polarizability: 444.304  -0.988 336.619   8.867  37.619 164.197

                      1                      2                      3
                      A                      A                      A
 Frequencies --     42.6362                88.7143               125.3524
 Red. masses --      5.9682                 3.9437                 5.2313
 Frc consts  --      0.0064                 0.0183                 0.0484
 IR Inten    --      1.8712                 0.3638                 1.8590

                      4                      5                      6
                      A                      A                      A
 Frequencies --    197.5475               208.6003               255.0527
 Red. masses --      4.9836                 4.0739                 4.6108
 Frc consts  --      0.1146                 0.1044                 0.1767
 IR Inten    --      0.0058                 1.8783                 2.0043

                      7                      8                      9
                      A                      A                      A
 Frequencies --    309.4018               320.3655               387.5214
 Red. masses --      5.5414                 6.2880                 4.6977
 Frc consts  --      0.3125                 0.3802                 0.4156
 IR Inten    --      7.2940                 2.3542                 4.2898

                     10                     11                     12
                      A                      A                      A
 Frequencies --    403.0503               417.1160               480.2202
 Red. masses --      5.6457                 3.9759                 3.8082
 Frc consts  --      0.5404                 0.4076                 0.5174
 IR Inten    --      0.6528                 0.6346                 1.1885

                     13                     14                     15
                      A                      A                      A
 Frequencies --    488.8191               516.5688               557.6720
 Red. masses --      3.0542                 7.3707                 5.2955
 Frc consts  --      0.4300                 1.1588                 0.9703
 IR Inten    --     13.3245                 0.3632                 0.0190

                     16                     17                     18
                      A                      A                      A
 Frequencies --    588.8859               595.7864               642.7769
 Red. masses --      3.1900                 5.3898                 6.7385
 Frc consts  --      0.6518                 1.1272                 1.6403
 IR Inten    --      0.1970                 1.9944                10.4518

                     19                     20                     21
                      A                      A                      A
 Frequencies --    686.2526               694.7120               733.3436
 Red. masses --      5.9034                 4.0683                 5.4843
 Frc consts  --      1.6380                 1.1568                 1.7378
 IR Inten    --      2.8664                14.0014                 0.2184

                     22                     23                     24
                      A                      A                      A
 Frequencies --    739.0236               757.9795               782.7114
 Red. masses --      1.3131                 2.4013                 1.6482
 Frc consts  --      0.4226                 0.8129                 0.5949
 IR Inten    --     50.4176                 2.2870                 2.5349

                     25                     26                     27
                      A                      A                      A
 Frequencies --    821.2916               825.5794               829.4390
 Red. masses --      2.6293                 1.5536                 5.8979
 Frc consts  --      1.0449                 0.6239                 2.3906
 IR Inten    --     22.8674                56.4670                 0.7142

                     28                     29                     30
                      A                      A                      A
 Frequencies --    875.3823               899.9422               902.6986
 Red. masses --      2.0891                 2.2069                 1.7049
 Frc consts  --      0.9432                 1.0531                 0.8185
 IR Inten    --      4.9075                 6.6547                 4.7092

                     31                     32                     33
                      A                      A                      A
 Frequencies --    944.4729               979.6700               982.9974
 Red. masses --      6.3214                 1.3668                 1.3831
 Frc consts  --      3.3223                 0.7729                 0.7874
 IR Inten    --     25.7795                 1.8021                 3.8240

                     34                     35                     36
                      A                      A                      A
 Frequencies --   1000.6945              1003.3236              1008.3929
 Red. masses --      1.3261                 1.3253                 1.2887
 Frc consts  --      0.7824                 0.7860                 0.7721
 IR Inten    --      0.6234                 0.3179                 1.1453

                     37                     38                     39
                      A                      A                      A
 Frequencies --   1062.3629              1075.9249              1119.2707
 Red. masses --      2.9664                 2.1191                 2.9092
 Frc consts  --      1.9726                 1.4453                 2.1473
 IR Inten    --      2.2262                 2.9702                 0.3366

                     40                     41                     42
                      A                      A                      A
 Frequencies --   1136.5647              1169.4222              1188.5491
 Red. masses --      1.9395                 2.0859                 1.2635
 Frc consts  --      1.4761                 1.6807                 1.0516
 IR Inten    --      2.3623                18.8680                 1.1162

                     43                     44                     45
                      A                      A                      A
 Frequencies --   1190.5201              1191.9596              1231.8728
 Red. masses --      1.0950                 1.9637                 2.3653
 Frc consts  --      0.9144                 1.6438                 2.1148
 IR Inten    --      0.2216                 0.0359                 8.7494

                     46                     47                     48
                      A                      A                      A
 Frequencies --   1255.9469              1264.0027              1313.2297
 Red. masses --      1.5458                 1.8676                 2.5788
 Frc consts  --      1.4367                 1.7580                 2.6203
 IR Inten    --      0.4984                 9.7801                93.8191

                     49                     50                     51
                      A                      A                      A
 Frequencies --   1314.6252              1353.2951              1368.0368
 Red. masses --      1.7940                 6.8056                 2.3685
 Frc consts  --      1.8267                 7.3435                 2.6117
 IR Inten    --      0.6581                51.3082                14.8935

                     52                     53                     54
                      A                      A                      A
 Frequencies --   1451.7434              1456.0134              1494.5878
 Red. masses --      1.6595                 1.9932                 1.9302
 Frc consts  --      2.0606                 2.4896                 2.5404
 IR Inten    --     17.0384                 1.4666                 0.5722

                     55                     56                     57
                      A                      A                      A
 Frequencies --   1507.8181              1517.7338              1586.9648
 Red. masses --      2.4272                 2.7374                 6.1349
 Frc consts  --      3.2513                 3.7151                 9.1032
 IR Inten    --      8.3482                 3.6843                 0.1415

                     58                     59                     60
                      A                      A                      A
 Frequencies --   1597.0252              1629.7005              1637.8102
 Red. masses --      6.2459                 5.4666                 5.3890
 Frc consts  --      9.3857                 8.5543                 8.5170
 IR Inten    --      1.6458                45.8464                19.3218

                     61                     62                     63
                      A                      A                      A
 Frequencies --   1675.1226              1689.0756              3135.0684
 Red. masses --      6.9171                10.5687                 1.0842
 Frc consts  --     11.4358                17.7653                 6.2788
 IR Inten    --     35.2052               157.1696                 0.0524

                     64                     65                     66
                      A                      A                      A
 Frequencies --   3154.6749              3162.9237              3163.7335
 Red. masses --      1.0918                 1.0863                 1.0867
 Frc consts  --      6.4016                 6.4029                 6.4083
 IR Inten    --     10.4979                 0.6960                 8.4558

                     67                     68                     69
                      A                      A                      A
 Frequencies --   3174.8333              3174.9536              3187.6614
 Red. masses --      1.0901                 1.0900                 1.0955
 Frc consts  --      6.4735                 6.4739                 6.5583
 IR Inten    --      0.7336                27.6954                35.1357

                     70                     71                     72
                      A                      A                      A
 Frequencies --   3187.8043              3206.1123              3206.6178
 Red. masses --      1.0954                 1.0931                 1.0933
 Frc consts  --      6.5585                 6.6201                 6.6233
 IR Inten    --      1.8845                 9.9089                 1.9216

 - Thermochemistry -
 -------------------
 Temperature   298.150 Kelvin.  Pressure   1.00000 Atm.
 Atom     1 has atomic number  8 and mass  15.99491

 Molecular mass:   206.07317 amu.
 Principal axes and moments of inertia in atomic units:
                           1         2         3
     Eigenvalues --  1457.505904640.845635867.27736
           X            0.99949  -0.00940  -0.03053
           Y            0.00196   0.97195  -0.23518
           Z            0.03188   0.23500   0.97147
 This molecule is an asymmetric top.
 Rotational symmetry number  1.
 Warning -- assumption of classical behavior for rotation
           may cause significant error
 Rotational temperatures (Kelvin)      0.05943     0.01866     0.01476
 Rotational constants (GHZ):           1.23824     0.38888     0.30759
 Zero-point vibrational energy     534297.4 (Joules/Mol)
                                  127.70015 (Kcal/Mol)
 Warning -- explicit consideration of  17 degrees of freedom as
           vibrations may cause significant error
 Vibrational temperatures:     61.34   127.64   180.35   284.23   300.13
          (Kelvin)            366.96   445.16   460.93   557.56   579.90
                              600.14   690.93   703.30   743.23   802.37
                              847.28   857.20   924.81   987.36   999.54
                             1055.12  1063.29  1090.56  1126.15  1181.66
                             1187.82  1193.38  1259.48  1294.82  1298.78
                             1358.89  1409.53  1414.31  1439.78  1443.56
                             1450.85  1528.50  1548.02  1610.38  1635.26
                             1682.54  1710.06  1712.89  1714.96  1772.39
                             1807.03  1818.62  1889.44  1891.45  1947.09
                             1968.30  2088.73  2094.88  2150.38  2169.41
                             2183.68  2283.29  2297.76  2344.78  2356.44
                             2410.13  2430.20  4510.66  4538.87  4550.74
                             4551.91  4567.88  4568.05  4586.33  4586.54
                             4612.88  4613.61

 Zero-point correction=                           0.203503 (Hartree/Particle)
 Thermal correction to Energy=                    0.214797
 Thermal correction to Enthalpy=                  0.215741
 Thermal correction to Gibbs Free Energy=         0.165850
 Sum of electronic and zero-point Energies=           -652.801165
 Sum of electronic and thermal Energies=              -652.789871
 Sum of electronic and thermal Enthalpies=            -652.788927
 Sum of electronic and thermal Free Energies=         -652.838818

                     E (Thermal)             CV                S
                      KCal/Mol        Cal/Mol-Kelvin    Cal/Mol-Kelvin
 Total                  134.787             46.928            105.005
 Electronic               0.000              0.000              0.000
 Translational            0.889              2.981             41.873
 Rotational               0.889              2.981             32.051
 Vibrational            133.009             40.967             31.080
 Vibration     1          0.595              1.980              5.133
 Vibration     2          0.602              1.957              3.688
 Vibration     3          0.610              1.928              3.016
 Vibration     4          0.637              1.843              2.156
 Vibration     5          0.642              1.828              2.056
 Vibration     6          0.665              1.754              1.695
 Vibration     7          0.699              1.656              1.366
 Vibration     8          0.706              1.635              1.308
 Vibration     9          0.756              1.497              1.010
 Vibration    10          0.768              1.464              0.952
 Vibration    11          0.780              1.433              0.902
 Vibration    12          0.837              1.294              0.709
 Vibration    13          0.845              1.275              0.687
 Vibration    14          0.872              1.213              0.618
 Vibration    15          0.913              1.123              0.528
 Vibration    16          0.946              1.055              0.469
 Vibration    17          0.954              1.041              0.457

 Optimization completed.
    -- Stationary point found.
 Normal termination of Gaussian 16 at Tue Jan  9 21:24:15 2024.
