 Gaussian 16, Revision A.03,
 Gaussian 16:  ES64L-G16RevA.03 25-Dec-2016

 ----------------------------------------------------------------------
 #P UB3LYP/6-311++G(d,p) nosym opt freq SCRF=(PCM,Solvent=n,n-DiMethylF
 ormamide)
 ----------------------------------------------------------------------

 --------
 Oxidized
 --------
 Symbolic Z-matrix:
 Charge =  0 Multiplicity = 1

 SCF Done:  E(UB3LYP) =  -538.888666905     A.U. after   13 cycles
 SCF Done:  E(UB3LYP) =  -538.888745074     A.U. after   10 cycles
 SCF Done:  E(UB3LYP) =  -538.888755192     A.U. after    9 cycles
 SCF Done:  E(UB3LYP) =  -538.888755155     A.U. after    9 cycles
 SCF Done:  E(UB3LYP) =  -538.888755692     A.U. after    9 cycles
 Optimization completed.
    -- Stationary point found.
 Normal termination of Gaussian 16 at Sat Feb 10 10:14:32 2024.

 ----------------------------------------------------------------------
 #P Geom=AllCheck Guess=TCheck SCRF=Check GenChk UB3LYP/6-311++G(d,p) F
 req
 ----------------------------------------------------------------------

 Structure from the checkpoint file:  "053.chk"
 --------
 Oxidized
 --------
 Charge =  0 Multiplicity = 1

                          Input orientation:
 ---------------------------------------------------------------------
 Center     Atomic      Atomic             Coordinates (Angstroms)
 Number     Number       Type             X           Y           Z
 ---------------------------------------------------------------------
      1          6           0        0.265219    1.433811   -0.855305
      2          6           0       -1.013473    0.659904   -0.855298
      3          6           0       -0.969686   -0.690249   -0.855322
      4          6           0        0.343182   -1.399610   -0.855365
      5          6           0        1.621873   -0.625702   -0.855230
      6          6           0        1.578087    0.724450   -0.855203
      7          8           0        0.245385    2.660433   -0.855181
      8          8           0        0.363015   -2.626231   -0.855250
      9          6           0        2.792673    1.606357   -0.855086
     10          6           0        2.900618   -1.420916   -0.855141
     11          6           0       -2.292218    1.455118   -0.855270
     12          6           0       -2.184273   -1.572155   -0.855322
     13          1           0        3.714820    1.029446   -0.854966
     14          1           0        2.789739    2.261129    0.020956
     15          1           0        2.789943    2.261084   -1.731163
     16          1           0        2.683862   -2.487085   -0.855187
     17          1           0        3.506080   -1.192048    0.026085
     18          1           0        3.506231   -1.192003   -1.736251
     19          1           0       -2.075462    2.521287   -0.855251
     20          1           0       -2.897747    1.226210    0.025899
     21          1           0       -2.897763    1.226245   -1.736437
     22          1           0       -3.106420   -0.995244   -0.855267
     23          1           0       -2.181412   -2.226944    0.020707
     24          1           0       -2.181469   -2.226866   -1.731411
 ---------------------------------------------------------------------

 SCF Done:  E(UB3LYP) =  -538.888755692     A.U. after    1 cycles

 Alpha  occ. eigenvalues --  -19.13433 -19.13433 -10.27865 -10.27864 -10.20926
 Alpha  occ. eigenvalues --  -10.20924 -10.20831 -10.20831 -10.17368 -10.17368
 Alpha  occ. eigenvalues --  -10.17196 -10.17196  -1.06555  -1.06358  -0.86594
 Alpha  occ. eigenvalues --   -0.82840  -0.75008  -0.74666  -0.72078  -0.66583
 Alpha  occ. eigenvalues --   -0.65543  -0.57766  -0.57621  -0.54071  -0.48294
 Alpha  occ. eigenvalues --   -0.46795  -0.46434  -0.44260  -0.43664  -0.43119
 Alpha  occ. eigenvalues --   -0.42063  -0.41825  -0.41262  -0.41163  -0.39834
 Alpha  occ. eigenvalues --   -0.39520  -0.39252  -0.39057  -0.38098  -0.36485
 Alpha  occ. eigenvalues --   -0.29141  -0.28893  -0.27088  -0.26576
 Alpha virt. eigenvalues --   -0.12606  -0.01680  -0.01130   0.00261   0.00517
 Alpha virt. eigenvalues --    0.01010   0.02441   0.02452   0.02885   0.03670
 Alpha virt. eigenvalues --    0.03779   0.04848   0.05347   0.05592   0.06334

  Beta  occ. eigenvalues --  -19.13433 -19.13433 -10.27865 -10.27864 -10.20926
  Beta  occ. eigenvalues --  -10.20924 -10.20831 -10.20831 -10.17368 -10.17368
  Beta  occ. eigenvalues --  -10.17196 -10.17196  -1.06555  -1.06358  -0.86594
  Beta  occ. eigenvalues --   -0.82840  -0.75008  -0.74666  -0.72078  -0.66583
  Beta  occ. eigenvalues --   -0.65543  -0.57766  -0.57621  -0.54071  -0.48294
  Beta  occ. eigenvalues --   -0.46795  -0.46434  -0.44260  -0.43664  -0.43119
  Beta  occ. eigenvalues --   -0.42063  -0.41825  -0.41262  -0.41163  -0.39834
  Beta  occ. eigenvalues --   -0.39520  -0.39252  -0.39057  -0.38098  -0.36485
  Beta  occ. eigenvalues --   -0.29141  -0.28893  -0.27088  -0.26576
  Beta virt. eigenvalues --   -0.12606  -0.01680  -0.01130   0.00261   0.00517
  Beta virt. eigenvalues --    0.01010   0.02441   0.02452   0.02885   0.03670
  Beta virt. eigenvalues --    0.03779   0.04848   0.05347   0.05592   0.06334

 Mulliken charges and spin densities:
               1          2
     1  C   -1.119982   0.000000
     2  C    0.445221   0.000000
     3  C    0.853654  -0.000000
     4  C   -1.119982   0.000000
     5  C    0.445221   0.000000
     6  C    0.853654  -0.000000
     7  O   -0.272101  -0.000000
     8  O   -0.272101  -0.000000
     9  C   -0.457719   0.000000
    10  C   -0.543886  -0.000000
    11  C   -0.543886  -0.000000
    12  C   -0.457719   0.000000
    13  H    0.174260  -0.000000
    14  H    0.181676   0.000000
    15  H    0.181687   0.000000
    16  H    0.198800  -0.000000
    17  H    0.179195  -0.000000
    18  H    0.179196  -0.000000
    19  H    0.198800  -0.000000
    20  H    0.179195   0.000000
    21  H    0.179197   0.000000
    22  H    0.174260  -0.000000
    23  H    0.181677  -0.000000
    24  H    0.181685  -0.000000
 Sum of Mulliken charges =  -0.00000  -0.00000

 Dipole moment (field-independent basis, Debye):
    X=              0.0000    Y=             -0.0000    Z=             -0.0002  Tot=              0.0002
 Quadrupole moment (field-independent basis, Debye-Ang):
   XX=            -58.3399   YY=            -91.4634   ZZ=            -70.7862
   XY=              1.0842   XZ=              0.0004   YZ=             -0.0002

  Exact polarizability: 164.733  -0.935 244.802   0.002   0.002 102.669
 Approx polarizability: 162.526  -2.886 324.439   0.001   0.003 120.147

                      1                      2                      3
                      A                      A                      A
 Frequencies --     23.8677                30.5677                49.6372
 Red. masses --      1.1231                 1.1064                 5.6605
 Frc consts  --      0.0004                 0.0006                 0.0082
 IR Inten    --      0.3475                 0.0000                15.1988

                      4                      5                      6
                      A                      A                      A
 Frequencies --     66.4904                68.0752               100.3270
 Red. masses --      1.0963                 1.1024                 2.1625
 Frc consts  --      0.0029                 0.0030                 0.0128
 IR Inten    --      0.0000                 2.5201                 0.1298

                      7                      8                      9
                      A                      A                      A
 Frequencies --    107.0642               201.5469               292.3984
 Red. masses --      2.8265                 3.3837                 2.7938
 Frc consts  --      0.0191                 0.0810                 0.1407
 IR Inten    --      0.0000                 0.3175                 2.8742

                     10                     11                     12
                      A                      A                      A
 Frequencies --    313.2908               317.8339               335.4004
 Red. masses --      3.4606                 2.6530                 2.6067
 Frc consts  --      0.2001                 0.1579                 0.1728
 IR Inten    --      0.0000                 0.0000                 0.6875

                     13                     14                     15
                      A                      A                      A
 Frequencies --    354.8635               413.4095               415.2082
 Red. masses --      4.4324                 3.8828                 5.2091
 Frc consts  --      0.3289                 0.3910                 0.5291
 IR Inten    --      0.0000                 0.0000                 0.0000

                     16                     17                     18
                      A                      A                      A
 Frequencies --    428.2269               441.1221               524.9996
 Red. masses --      9.7652                 6.4436                 3.3647
 Frc consts  --      1.0551                 0.7388                 0.5464
 IR Inten    --     46.2880                 0.0000                 0.0886

                     19                     20                     21
                      A                      A                      A
 Frequencies --    544.1035               616.4273               683.0097
 Red. masses --      6.7265                 5.1037                 3.0986
 Frc consts  --      1.1733                 1.1426                 0.8517
 IR Inten    --      0.0000                 6.1752                 0.0000

                     22                     23                     24
                      A                      A                      A
 Frequencies --    715.5394               782.5230               827.6717
 Red. masses --      4.8548                 6.3490                 2.2453
 Frc consts  --      1.4645                 2.2906                 0.9063
 IR Inten    --     38.4135                 0.0000                41.6014

                     25                     26                     27
                      A                      A                      A
 Frequencies --    871.4499               976.7047               994.9385
 Red. masses --      3.1151                 1.6087                 3.9114
 Frc consts  --      1.3938                 0.9041                 2.2813
 IR Inten    --     22.4732                 0.0000                 0.0000

                     28                     29                     30
                      A                      A                      A
 Frequencies --   1012.4250              1034.7024              1049.5281
 Red. masses --      1.3746                 1.5256                 1.5787
 Frc consts  --      0.8302                 0.9623                 1.0246
 IR Inten    --      0.0000                 1.1975               132.5383

                     31                     32                     33
                      A                      A                      A
 Frequencies --   1054.2755              1055.5830              1103.1443
 Red. masses --      1.5525                 1.5805                 2.0210
 Frc consts  --      1.0167                 1.0376                 1.4490
 IR Inten    --      0.0026                 0.0000                 0.0000

                     34                     35                     36
                      A                      A                      A
 Frequencies --   1137.5632              1149.8208              1267.8950
 Red. masses --      2.5611                 3.6502                 4.1878
 Frc consts  --      1.9526                 2.8433                 3.9665
 IR Inten    --     57.3162                 0.0000               201.0286

                     37                     38                     39
                      A                      A                      A
 Frequencies --   1300.1810              1341.7312              1396.8088
 Red. masses --      9.8206                 3.7221                 1.2551
 Frc consts  --      9.7813                 3.9479                 1.4428
 IR Inten    --    221.6043                 0.0000                44.1711

                     40                     41                     42
                      A                      A                      A
 Frequencies --   1398.4662              1406.6867              1409.1293
 Red. masses --      1.2782                 1.2391                 1.3099
 Frc consts  --      1.4728                 1.4446                 1.5325
 IR Inten    --      0.0000                51.9459                 0.0000

                     43                     44                     45
                      A                      A                      A
 Frequencies --   1462.0402              1463.8454              1465.1086
 Red. masses --      1.0880                 1.1001                 1.0436
 Frc consts  --      1.3702                 1.3889                 1.3198
 IR Inten    --      8.9747                 0.0000                 0.0000

                     46                     47                     48
                      A                      A                      A
 Frequencies --   1465.5338              1482.5845              1483.3142
 Red. masses --      1.0435                 1.0563                 1.0732
 Frc consts  --      1.3205                 1.3680                 1.3912
 IR Inten    --     41.9560                59.2614                 0.0000

                     49                     50                     51
                      A                      A                      A
 Frequencies --   1489.9099              1490.0095              1657.5519
 Red. masses --      1.0425                 1.0429                 8.3709
 Frc consts  --      1.3635                 1.3642                13.5505
 IR Inten    --      0.0000                13.1709               176.7799

                     52                     53                     54
                      A                      A                      A
 Frequencies --   1666.5028              1678.3655              1701.2683
 Red. masses --     12.0191                12.3501                 8.6132
 Frc consts  --     19.6668                20.4972                14.6879
 IR Inten    --   1169.8340                 0.0000                 0.0000

                     55                     56                     57
                      A                      A                      A
 Frequencies --   3035.5516              3035.6222              3038.2028
 Red. masses --      1.0400                 1.0400                 1.0400
 Frc consts  --      5.6463                 5.6463                 5.6560
 IR Inten    --     32.5644                 0.0000                31.6340

                     58                     59                     60
                      A                      A                      A
 Frequencies --   3038.3545              3081.4452              3081.5426
 Red. masses --      1.0401                 1.0992                 1.0992
 Frc consts  --      5.6571                 6.1494                 6.1497
 IR Inten    --      0.0000                 0.0000                54.3310

                     61                     62                     63
                      A                      A                      A
 Frequencies --   3084.5234              3084.5456              3141.2450
 Red. masses --      1.1002                 1.1002                 1.0972
 Frc consts  --      6.1674                 6.1676                 6.3787
 IR Inten    --      7.6667                 0.0000                29.3596

                     64                     65                     66
                      A                      A                      A
 Frequencies --   3141.2927              3145.8358              3145.9475
 Red. masses --      1.0971                 1.0982                 1.0981
 Frc consts  --      6.3787                 6.4032                 6.4034
 IR Inten    --      0.0000                25.0806                 0.0000

 - Thermochemistry -
 -------------------
 Temperature   298.150 Kelvin.  Pressure   1.00000 Atm.
 Atom     1 has atomic number  6 and mass  12.00000

 Molecular mass:   164.08373 amu.
 Principal axes and moments of inertia in atomic units:
                           1         2         3
     Eigenvalues --  1610.153941780.518773346.21957
           X            0.99900  -0.04474  -0.00004
           Y            0.04474   0.99900  -0.00002
           Z            0.00004   0.00002   1.00000
 This molecule is an asymmetric top.
 Rotational symmetry number  1.
 Warning -- assumption of classical behavior for rotation
           may cause significant error
 Rotational temperatures (Kelvin)      0.05379     0.04865     0.02588
 Rotational constants (GHZ):           1.12085     1.01360     0.53934
 Zero-point vibrational energy     509458.3 (Joules/Mol)
                                  121.76346 (Kcal/Mol)
 Warning -- explicit consideration of  20 degrees of freedom as
           vibrations may cause significant error
 Vibrational temperatures:     34.34    43.98    71.42    95.66    97.94
          (Kelvin)            144.35   154.04   289.98   420.70   450.76
                              457.29   482.57   510.57   594.80   597.39
                              616.12   634.68   755.36   782.84   886.90
                              982.70  1029.50  1125.88  1190.84  1253.82
                             1405.26  1431.49  1456.65  1488.71  1510.04
                             1516.87  1518.75  1587.18  1636.70  1654.34
                             1824.22  1870.67  1930.45  2009.70  2012.08
                             2023.91  2027.42  2103.55  2106.15  2107.96
                             2108.58  2133.11  2134.16  2143.65  2143.79
                             2384.85  2397.73  2414.79  2447.75  4367.48
                             4367.58  4371.30  4371.51  4433.51  4433.65
                             4437.94  4437.97  4519.55  4519.62  4526.16
                             4526.32

 Zero-point correction=                           0.194042 (Hartree/Particle)
 Thermal correction to Energy=                    0.207610
 Thermal correction to Enthalpy=                  0.208554
 Thermal correction to Gibbs Free Energy=         0.151584
 Sum of electronic and zero-point Energies=           -538.694713
 Sum of electronic and thermal Energies=              -538.681146
 Sum of electronic and thermal Enthalpies=            -538.680201
 Sum of electronic and thermal Free Energies=         -538.737172

                     E (Thermal)             CV                S
                      KCal/Mol        Cal/Mol-Kelvin    Cal/Mol-Kelvin
 Total                  130.277             47.125            119.905
 Electronic               0.000              0.000              0.000
 Translational            0.889              2.981             41.194
 Rotational               0.889              2.981             30.640
 Vibrational            128.500             41.164             48.071
 Vibration     1          0.593              1.985              6.283
 Vibration     2          0.594              1.984              5.792
 Vibration     3          0.595              1.978              4.832
 Vibration     4          0.598              1.970              4.255
 Vibration     5          0.598              1.969              4.208
 Vibration     6          0.604              1.949              3.448
 Vibration     7          0.606              1.944              3.321
 Vibration     8          0.638              1.838              2.119
 Vibration     9          0.688              1.688              1.460
 Vibration    10          0.701              1.648              1.345
 Vibration    11          0.704              1.640              1.321
 Vibration    12          0.717              1.605              1.234
 Vibration    13          0.731              1.565              1.145
 Vibration    14          0.777              1.441              0.915
 Vibration    15          0.779              1.437              0.908
 Vibration    16          0.790              1.409              0.864
 Vibration    17          0.801              1.380              0.823
 Vibration    18          0.880              1.195              0.598
 Vibration    19          0.899              1.153              0.557
 Vibration    20          0.976              0.997              0.422

 Optimization completed.
    -- Stationary point found.
 Normal termination of Gaussian 16 at Sat Feb 10 10:37:02 2024.
