 Q-Chem 5.4, Q-Chem, Inc., Pleasanton, CA (2021)
 Q-Chem 5.4.0 for Intel X86 EM64T Linux

User input:
--------------------------------------------------------------
$molecule
-1 2
C                 -1.3521190000      1.9580320000      0.8177640000
C                 -2.6146170000      1.4194430000      0.3065330000
C                 -2.6346080000      0.2507450000     -0.4046360000
C                 -1.4583250000     -0.5296930000     -0.7082430000
C                 -0.1779950000     -0.0157950000     -0.2062360000
C                 -0.1792830000      1.1575160000      0.5071200000
O                 -1.5289840000     -1.6023400000     -1.3718470000
H                 -3.5646230000     -0.1596090000     -0.7846170000
O                 -1.3077570000      3.0297420000      1.4737090000
I                  1.6478890000      1.9679480000      1.2759600000
C                  1.0539380000     -0.8225870000     -0.5129790000
C                 -3.8577800000      2.2465040000      0.5938630000
C                 -3.9546380000      3.4389500000     -0.3797910000
C                 -5.1633180000      1.4404170000      0.5955410000
H                  0.7645720000     -1.6999240000     -1.0918440000
H                  1.5582010000     -1.1447510000      0.4043050000
H                  1.7822480000     -0.2366700000     -1.0836820000
H                 -3.7123920000      2.6712450000      1.5928170000
H                 -4.8077990000      4.0809440000     -0.1278890000
H                 -4.0850100000      3.0869150000     -1.4091600000
H                 -3.0462130000      4.0415950000     -0.3301110000
H                 -5.9988540000      2.0766060000      0.9082870000
H                 -5.1072590000      0.5900850000      1.2812140000
H                 -5.4044740000      1.0508540000     -0.3990170000
$end

$rem
BASIS  =  6-311++G(d,p)
GUI  =  2
JOB_TYPE  =  SP
METHOD  =  B3LYP
SCF_CONVERGENCE  = 8
SOLVENT_METHOD = sm12
$end

$smx
solvent dimethylformamide
charges CM5
$end

--------------------------------------------------------------

             Standard Nuclear Orientation (Angstroms)
    I     Atom           X                Y                Z
 ----------------------------------------------------------------
    1      C      -1.3521190000     1.9580320000     0.8177640000
    2      C      -2.6146170000     1.4194430000     0.3065330000
    3      C      -2.6346080000     0.2507450000    -0.4046360000
    4      C      -1.4583250000    -0.5296930000    -0.7082430000
    5      C      -0.1779950000    -0.0157950000    -0.2062360000
    6      C      -0.1792830000     1.1575160000     0.5071200000
    7      O      -1.5289840000    -1.6023400000    -1.3718470000
    8      H      -3.5646230000    -0.1596090000    -0.7846170000
    9      O      -1.3077570000     3.0297420000     1.4737090000
   10      I       1.6478890000     1.9679480000     1.2759600000
   11      C       1.0539380000    -0.8225870000    -0.5129790000
   12      C      -3.8577800000     2.2465040000     0.5938630000
   13      C      -3.9546380000     3.4389500000    -0.3797910000
   14      C      -5.1633180000     1.4404170000     0.5955410000
   15      H       0.7645720000    -1.6999240000    -1.0918440000
   16      H       1.5582010000    -1.1447510000     0.4043050000
   17      H       1.7822480000    -0.2366700000    -1.0836820000
   18      H      -3.7123920000     2.6712450000     1.5928170000
   19      H      -4.8077990000     4.0809440000    -0.1278890000
   20      H      -4.0850100000     3.0869150000    -1.4091600000
   21      H      -3.0462130000     4.0415950000    -0.3301110000
   22      H      -5.9988540000     2.0766060000     0.9082870000
   23      H      -5.1072590000     0.5900850000     1.2812140000
   24      H      -5.4044740000     1.0508540000    -0.3990170000
 ----------------------------------------------------------------

   18   -7457.8667601914      7.63e-09  Convergence criterion met
 Total energy in the final basis set =    -7457.9497618617

                    Orbital Energies (a.u.)
 --------------------------------------------------------------

 Alpha MOs
 -- Occupied --
********-176.2950-165.6985-165.6968-165.6966 -35.7913 -31.2839 -31.2790
-31.2786 -22.9346 -22.9335 -22.9332 -22.9298 -22.9298 -19.0856 -19.0852
-10.2348 -10.2304 -10.2146 -10.1928 -10.1840 -10.1836 -10.1719 -10.1714
-10.1662 -10.1652  -6.3405  -4.7513  -4.7393  -4.7382  -2.0173  -2.0135
 -2.0129  -2.0023  -2.0022  -1.0119  -1.0067  -0.8470  -0.8153  -0.7631
 -0.7210  -0.6923  -0.6781  -0.6515  -0.6087  -0.5667  -0.5477  -0.5046
 -0.4733  -0.4542  -0.4426  -0.4403  -0.4242  -0.4182  -0.4098  -0.3947
 -0.3945  -0.3883  -0.3831  -0.3814  -0.3609  -0.3494  -0.3442  -0.3349
 -0.3015  -0.2785  -0.2662  -0.2518  -0.2471  -0.2415  -0.1700

 Beta MOs
 -- Occupied --
********-176.2950-165.6985-165.6968-165.6966 -35.7913 -31.2839 -31.2790
-31.2786 -22.9346 -22.9335 -22.9332 -22.9298 -22.9298 -19.0788 -19.0777
-10.2335 -10.2293 -10.2137 -10.1911 -10.1838 -10.1828 -10.1721 -10.1706
-10.1662 -10.1651  -6.3405  -4.7514  -4.7392  -4.7382  -2.0173  -2.0134
 -2.0129  -2.0023  -2.0022  -1.0001  -0.9936  -0.8417  -0.8135  -0.7611
 -0.7167  -0.6919  -0.6720  -0.6496  -0.6061  -0.5632  -0.5451  -0.5026
 -0.4702  -0.4522  -0.4409  -0.4331  -0.4210  -0.4143  -0.4040  -0.3936
 -0.3869  -0.3854  -0.3802  -0.3609  -0.3528  -0.3480  -0.3427  -0.3333
 -0.2895  -0.2652  -0.2537  -0.2451  -0.2405  -0.2360

          Ground-State Mulliken Net Atomic Charges

     Atom                 Charge (a.u.)    Spin (a.u.)
  --------------------------------------------------------
      1 C                    -1.502208       0.073830
      2 C                     0.600629       0.082099
      3 C                    -0.455793       0.051578
      4 C                    -1.768726       0.073300
      5 C                     0.493325       0.155739
      6 C                    -0.696482       0.020486
      7 O                    -0.339611       0.270737
      8 H                     0.132566      -0.006301
      9 O                    -0.216706       0.253556
     10 I                     0.030226       0.000843
     11 C                     0.260490       0.000207
     12 C                     0.910967       0.002034
     13 C                    -0.441978       0.011350
     14 C                     0.167244       0.001311
     15 H                     0.178216      -0.002261
     16 H                     0.191776       0.005435
     17 H                     0.191379       0.005341
     18 H                     0.134227       0.002525
     19 H                     0.257136       0.001877
     20 H                     0.134496      -0.000994
     21 H                     0.127819      -0.002016
     22 H                     0.326365      -0.000324
     23 H                     0.119572      -0.000237
     24 H                     0.165070      -0.000116
  --------------------------------------------------------
  Sum of atomic charges =    -1.000000

                    Cartesian Multipole Moments
 -----------------------------------------------------------------
    Charge (ESU x 10^10)
                -4.8032
    Dipole Moment (Debye)
         X       4.0758      Y      -4.1321      Z      -0.9528
       Tot       5.8817
    Quadrupole Moments (Debye-Ang)
        XX    -116.3025     XY      -0.9300     YY    -134.7607
        XZ      -3.5458     YZ     -16.0890     ZZ    -116.4821

 Total job time:  487.81s(wall), 3709.69s(cpu)
        *  Thank you very much for using Q-Chem.  Have a nice day.  *
