 Gaussian 16, Revision A.03,
 Gaussian 16:  ES64L-G16RevA.03 25-Dec-2016

 -------------------------------
 #P UB3LYP/genecp nosym opt freq
 -------------------------------

 -------
 Radical
 -------
 Symbolic Z-matrix:
 Charge = -1 Multiplicity = 2

 SCF Done:  E(UB3LYP) =  -836.150316086     A.U. after   21 cycles
 Optimization completed.
    -- Stationary point found.
 Normal termination of Gaussian 16 at Sat Jan  6 19:51:30 2024.

 ------------------------------------------------------------------
 #P Geom=AllCheck Guess=TCheck SCRF=Check GenChk UB3LYP/GenECP Freq
 ------------------------------------------------------------------

 Structure from the checkpoint file:  "007-rad.chk"
 -------
 Radical
 -------
 Charge = -1 Multiplicity = 2

                          Input orientation:
 ---------------------------------------------------------------------
 Center     Atomic      Atomic             Coordinates (Angstroms)
 Number     Number       Type             X           Y           Z
 ---------------------------------------------------------------------
      1          6           0       -1.352119    1.958032    0.817764
      2          6           0       -2.614617    1.419443    0.306533
      3          6           0       -2.634608    0.250745   -0.404636
      4          6           0       -1.458325   -0.529693   -0.708243
      5          6           0       -0.177995   -0.015795   -0.206236
      6          6           0       -0.179283    1.157516    0.507120
      7          8           0       -1.528984   -1.602340   -1.371847
      8          1           0       -3.564623   -0.159609   -0.784617
      9          8           0       -1.307757    3.029742    1.473709
     10         53           0        1.647889    1.967948    1.275960
     11          6           0        1.053938   -0.822587   -0.512979
     12          6           0       -3.857780    2.246504    0.593863
     13          6           0       -3.954638    3.438950   -0.379791
     14          6           0       -5.163318    1.440417    0.595541
     15          1           0        0.764572   -1.699924   -1.091844
     16          1           0        1.558201   -1.144751    0.404305
     17          1           0        1.782248   -0.236670   -1.083682
     18          1           0       -3.712392    2.671245    1.592817
     19          1           0       -4.807799    4.080944   -0.127889
     20          1           0       -4.085010    3.086915   -1.409160
     21          1           0       -3.046213    4.041595   -0.330111
     22          1           0       -5.998854    2.076606    0.908287
     23          1           0       -5.107259    0.590085    1.281214
     24          1           0       -5.404474    1.050854   -0.399017
 ---------------------------------------------------------------------

 SCF Done:  E(UB3LYP) =  -836.150316086     A.U. after    1 cycles

 Alpha  occ. eigenvalues --  -18.94660 -18.94578 -10.09697 -10.09163 -10.07722
 Alpha  occ. eigenvalues --  -10.06176 -10.05580 -10.05505 -10.04862 -10.04835
 Alpha  occ. eigenvalues --  -10.03927 -10.03481  -6.70789  -4.73133  -4.72154
 Alpha  occ. eigenvalues --   -4.72055  -1.77958  -1.77645  -1.77568  -1.76718
 Alpha  occ. eigenvalues --   -1.76716  -0.87308  -0.86724  -0.71336  -0.68734
 Alpha  occ. eigenvalues --   -0.63303  -0.59304  -0.57856  -0.54774  -0.54186
 Alpha  occ. eigenvalues --   -0.48330  -0.43701  -0.41801  -0.37026  -0.34464
 Alpha  occ. eigenvalues --   -0.33164  -0.31754  -0.30727  -0.29813  -0.28826
 Alpha  occ. eigenvalues --   -0.28140  -0.27140  -0.26362  -0.25609  -0.25289
 Alpha  occ. eigenvalues --   -0.24351  -0.23395  -0.23161  -0.21820  -0.20556
 Alpha  occ. eigenvalues --   -0.16422  -0.14307  -0.13250  -0.11344  -0.11162
 Alpha  occ. eigenvalues --   -0.10417  -0.03101
 Alpha virt. eigenvalues --    0.07879   0.09168   0.09979   0.10283   0.10713
 Alpha virt. eigenvalues --    0.11438   0.11869   0.13120   0.13264   0.13441
 Alpha virt. eigenvalues --    0.14070   0.14526   0.14948   0.15790   0.16496

  Beta  occ. eigenvalues --  -18.93982 -18.93821 -10.09570 -10.09057 -10.07638
  Beta  occ. eigenvalues --  -10.06185 -10.05579 -10.05340 -10.04826 -10.04749
  Beta  occ. eigenvalues --  -10.03940 -10.03384  -6.70788  -4.73136  -4.72150
  Beta  occ. eigenvalues --   -4.72055  -1.77960  -1.77644  -1.77571  -1.76715
  Beta  occ. eigenvalues --   -1.76713  -0.86140  -0.85414  -0.70894  -0.68502
  Beta  occ. eigenvalues --   -0.63077  -0.58997  -0.57832  -0.54586  -0.53536
  Beta  occ. eigenvalues --   -0.48048  -0.43347  -0.41493  -0.36845  -0.34234
  Beta  occ. eigenvalues --   -0.33083  -0.31499  -0.30182  -0.29602  -0.28587
  Beta  occ. eigenvalues --   -0.27847  -0.26674  -0.25433  -0.25259  -0.25029
  Beta  occ. eigenvalues --   -0.23358  -0.22969  -0.21835  -0.21213  -0.20333
  Beta  occ. eigenvalues --   -0.15446  -0.13178  -0.11644  -0.10665  -0.10437
  Beta  occ. eigenvalues --   -0.09821
  Beta virt. eigenvalues --    0.04088   0.07882   0.09243   0.10018   0.10329
  Beta virt. eigenvalues --    0.10771   0.11815   0.12518   0.13162   0.13392
  Beta virt. eigenvalues --    0.13651   0.14086   0.14562   0.14978   0.16440

 Mulliken charges and spin densities:
               1          2
     1  C   -1.216980   0.074341
     2  C    1.157658   0.075821
     3  C   -0.042754   0.072626
     4  C   -1.287838   0.069273
     5  C    1.275690   0.152890
     6  C    0.126467   0.020634
     7  O   -0.383880   0.271875
     8  H    0.134361  -0.006889
     9  O   -0.304253   0.251477
    10  I   -0.214319  -0.001507
    11  C   -0.457498   0.000119
    12  C    0.063448  -0.001071
    13  C   -0.711088   0.010765
    14  C   -0.573249   0.001045
    15  H    0.190012  -0.002702
    16  H    0.116307   0.005456
    17  H    0.115706   0.005354
    18  H    0.210965   0.002339
    19  H    0.097698   0.002616
    20  H    0.125161  -0.001270
    21  H    0.191515  -0.002213
    22  H    0.137083  -0.000437
    23  H    0.125024  -0.000383
    24  H    0.124764  -0.000158
 Sum of Mulliken charges =  -1.00000   1.00000

 Dipole moment (field-independent basis, Debye):
    X=              4.4760    Y=             -4.4487    Z=             -1.0358  Tot=              6.3952
 Quadrupole moment (field-independent basis, Debye-Ang):
   XX=           -120.5977   YY=           -134.1168   ZZ=           -114.7016
   XY=              1.0352   XZ=             -3.5232   YZ=            -16.0622

  Exact polarizability: 220.984  -3.821 189.975  16.311  40.245 140.259
 Approx polarizability: 293.905  10.966 331.241  25.085  90.387 240.609

                      1                      2                      3
                      A                      A                      A
 Frequencies --     41.2373                72.2904                87.9723
 Red. masses --      3.0853                 4.5426                 3.0485
 Frc consts  --      0.0031                 0.0140                 0.0139
 IR Inten    --      0.9707                 4.0629                 0.7128

                      4                      5                      6
                      A                      A                      A
 Frequencies --    108.1268               124.2009               139.4055
 Red. masses --      1.1549                 5.7786                 5.7335
 Frc consts  --      0.0080                 0.0525                 0.0656
 IR Inten    --      0.0070                 2.8107                 4.4351

                      7                      8                      9
                      A                      A                      A
 Frequencies --    188.3585               207.6451               231.3440
 Red. masses --      5.4551                 4.1495                 3.9642
 Frc consts  --      0.1140                 0.1054                 0.1250
 IR Inten    --      0.6736                 0.4861                 0.1062

                     10                     11                     12
                      A                      A                      A
 Frequencies --    246.5495               266.9329               273.4007
 Red. masses --      1.2143                 1.1566                 2.8555
 Frc consts  --      0.0435                 0.0486                 0.1258
 IR Inten    --      0.2394                 0.3937                 1.6120

                     13                     14                     15
                      A                      A                      A
 Frequencies --    307.0758               341.2046               411.1652
 Red. masses --      3.8275                 3.4010                 3.5511
 Frc consts  --      0.2126                 0.2333                 0.3537
 IR Inten    --      2.4937                 2.3600                 9.4208

                     16                     17                     18
                      A                      A                      A
 Frequencies --    415.1934               432.5132               481.0351
 Red. masses --      5.4314                 4.3396                 5.5420
 Frc consts  --      0.5516                 0.4783                 0.7556
 IR Inten    --      7.0044                 0.5289                 0.0326

                     19                     20                     21
                      A                      A                      A
 Frequencies --    512.3764               549.9492               668.2246
 Red. masses --      5.4570                 3.7750                 4.7974
 Frc consts  --      0.8441                 0.6727                 1.2621
 IR Inten    --      1.2539                 4.4212                 2.9416

                     22                     23                     24
                      A                      A                      A
 Frequencies --    682.3648               693.9095               745.7781
 Red. masses --      4.9143                 4.4055                 6.2755
 Frc consts  --      1.3482                 1.2498                 2.0564
 IR Inten    --     29.1379                17.2264                19.6292

                     25                     26                     27
                      A                      A                      A
 Frequencies --    764.6721               854.8743               882.3573
 Red. masses --      7.4162                 3.1752                 1.5221
 Frc consts  --      2.5549                 1.3672                 0.6982
 IR Inten    --      4.7090                23.2860                16.4789

                     28                     29                     30
                      A                      A                      A
 Frequencies --    896.4219               927.4759               961.5063
 Red. masses --      2.4980                 1.1851                 1.4708
 Frc consts  --      1.1827                 0.6006                 0.8012
 IR Inten    --     10.4753                 2.6281                 0.9162

                     31                     32                     33
                      A                      A                      A
 Frequencies --   1021.2939              1045.3867              1057.5713
 Red. masses --      2.0965                 1.4523                 2.6699
 Frc consts  --      1.2884                 0.9351                 1.7594
 IR Inten    --     62.0213                 0.1045                 6.3226

                     34                     35                     36
                      A                      A                      A
 Frequencies --   1106.9648              1126.6581              1160.5579
 Red. masses --      2.1020                 2.1423                 5.7319
 Frc consts  --      1.5176                 1.6022                 4.5486
 IR Inten    --      2.1106                 8.2837                25.2176

                     37                     38                     39
                      A                      A                      A
 Frequencies --   1165.8866              1200.7352              1276.3808
 Red. masses --      2.7361                 1.9491                 1.7444
 Frc consts  --      2.1913                 1.6556                 1.6744
 IR Inten    --     18.5534                12.1415                10.6677

                     40                     41                     42
                      A                      A                      A
 Frequencies --   1329.4778              1340.6830              1380.2547
 Red. masses --      2.1484                 1.3251                 1.2574
 Frc consts  --      2.2373                 1.4033                 1.4113
 IR Inten    --     40.0378                 3.8189                10.4857

                     43                     44                     45
                      A                      A                      A
 Frequencies --   1387.0640              1404.5547              1406.9957
 Red. masses --      1.2930                 1.3385                 2.2584
 Frc consts  --      1.4657                 1.5558                 2.6342
 IR Inten    --     28.4953                 1.4105                19.8572

                     46                     47                     48
                      A                      A                      A
 Frequencies --   1475.4627              1485.1499              1487.7609
 Red. masses --      1.1747                 1.0812                 1.0516
 Frc consts  --      1.5067                 1.4051                 1.3715
 IR Inten    --     56.4535                15.1307                 3.9980

                     49                     50                     51
                      A                      A                      A
 Frequencies --   1494.8803              1502.6027              1506.1249
 Red. masses --      1.0467                 1.1349                 2.9062
 Frc consts  --      1.3781                 1.5097                 3.8842
 IR Inten    --      9.4516                 1.9610                61.7313

                     52                     53                     54
                      A                      A                      A
 Frequencies --   1509.1726              1513.6125              1526.4009
 Red. masses --      2.6227                 1.6679                 7.6961
 Frc consts  --      3.5194                 2.2514                10.5648
 IR Inten    --     81.9250                24.4202               227.2063

                     55                     56                     57
                      A                      A                      A
 Frequencies --   1628.3301              2996.7832              3008.2652
 Red. masses --      7.5625                 1.0393                 1.0359
 Frc consts  --     11.8141                 5.4993                 5.5234
 IR Inten    --     31.8857                72.7296                97.4808

                     58                     59                     60
                      A                      A                      A
 Frequencies --   3010.7059              3023.5830              3051.9933
 Red. masses --      1.0381                 1.0845                 1.0994
 Frc consts  --      5.5441                 5.8413                 6.0337
 IR Inten    --     36.6291                 0.8263                 8.2721

                     61                     62                     63
                      A                      A                      A
 Frequencies --   3052.2298              3064.1431              3078.8661
 Red. masses --      1.0994                 1.0981                 1.1005
 Frc consts  --      6.0346                 6.0745                 6.1466
 IR Inten    --     27.9026               101.0381                40.7960

                     64                     65                     66
                      A                      A                      A
 Frequencies --   3105.3579              3114.9556              3160.0700
 Red. masses --      1.0976                 1.0976                 1.0883
 Frc consts  --      6.2363                 6.2749                 6.4033
 IR Inten    --     14.6984                 8.6405                23.6987

 - Thermochemistry -
 -------------------
 Temperature   298.150 Kelvin.  Pressure   1.00000 Atm.
 Atom     1 has atomic number  6 and mass  12.00000

 Molecular mass:   289.97630 amu.
 Principal axes and moments of inertia in atomic units:
                           1         2         3
     Eigenvalues --  2242.876205562.268397519.08174
           X            0.97292  -0.16436  -0.16254
           Y            0.07200   0.88366  -0.46255
           Z            0.21965   0.43832   0.87157
 This molecule is an asymmetric top.
 Rotational symmetry number  1.
 Warning -- assumption of classical behavior for rotation
           may cause significant error
 Rotational temperatures (Kelvin)      0.03862     0.01557     0.01152
 Rotational constants (GHZ):           0.80465     0.32446     0.24002
 Zero-point vibrational energy     482827.6 (Joules/Mol)
                                  115.39857 (Kcal/Mol)
 Warning -- explicit consideration of  20 degrees of freedom as
           vibrations may cause significant error
 Vibrational temperatures:     59.33   104.01   126.57   155.57   178.70
          (Kelvin)            200.57   271.01   298.75   332.85   354.73
                              384.06   393.36   441.81   490.92   591.57
                              597.37   622.29   692.10   737.20   791.25
                              961.43   981.77   998.38  1073.01  1100.19
                             1229.97  1269.52  1289.75  1334.43  1383.39
                             1469.41  1504.08  1521.61  1592.68  1621.01
                             1669.78  1677.45  1727.59  1836.43  1912.82
                             1928.94  1985.88  1995.68  2020.84  2024.35
                             2122.86  2136.80  2140.56  2150.80  2161.91
                             2166.98  2171.36  2177.75  2196.15  2342.80
                             4311.70  4328.22  4331.73  4350.26  4391.14
                             4391.48  4408.62  4429.80  4467.92  4481.73
                             4546.64

 Zero-point correction=                           0.183899 (Hartree/Particle)
 Thermal correction to Energy=                    0.197671
 Thermal correction to Enthalpy=                  0.198615
 Thermal correction to Gibbs Free Energy=         0.141355
 Sum of electronic and zero-point Energies=           -835.966417
 Sum of electronic and thermal Energies=              -835.952645
 Sum of electronic and thermal Enthalpies=            -835.951701
 Sum of electronic and thermal Free Energies=         -836.008961

                     E (Thermal)             CV                S
                      KCal/Mol        Cal/Mol-Kelvin    Cal/Mol-Kelvin
 Total                  124.040             49.853            120.514
 Electronic               0.000              0.000              1.377
 Translational            0.889              2.981             42.891
 Rotational               0.889              2.981             32.906
 Vibrational            122.263             43.892             43.339
 Vibration     1          0.594              1.981              5.199
 Vibration     2          0.598              1.967              4.090
 Vibration     3          0.601              1.958              3.705
 Vibration     4          0.606              1.943              3.302
 Vibration     5          0.610              1.929              3.034
 Vibration     6          0.615              1.914              2.812
 Vibration     7          0.633              1.856              2.244
 Vibration     8          0.641              1.829              2.064
 Vibration     9          0.653              1.793              1.868
 Vibration    10          0.661              1.768              1.755
 Vibration    11          0.672              1.734              1.616
 Vibration    12          0.676              1.722              1.575
 Vibration    13          0.697              1.660              1.378
 Vibration    14          0.721              1.593              1.207
 Vibration    15          0.775              1.446              0.923
 Vibration    16          0.779              1.437              0.908
 Vibration    17          0.793              1.399              0.850
 Vibration    18          0.837              1.292              0.707
 Vibration    19          0.867              1.223              0.628
 Vibration    20          0.905              1.140              0.544

                           ! Non-Optimized Parameters !
 Normal termination of Gaussian 16 at Sat Jan  6 20:10:32 2024.
