 Q-Chem 5.4, Q-Chem, Inc., Pleasanton, CA (2021)
 Q-Chem 5.4.0 for Intel X86 EM64T Linux

User input:
--------------------------------------------------------------
$molecule
-2 1
O                 -2.6798310000     -2.5818080000      0.5388750000
C                 -2.5697900000     -1.2249050000      0.3987740000
C                 -3.6981820000     -0.4383120000      0.4088890000
C                 -3.6040250000      0.9762050000      0.2643200000
C                 -2.3824340000      1.5896770000      0.1111470000
O                 -2.3116260000      2.9494510000     -0.0264220000
C                 -1.1713280000      0.8069220000      0.0944240000
C                  0.0956860000      1.4373440000     -0.0637470000
O                  0.1841470000      2.7669010000     -0.1996070000
C                  1.2668120000      0.6273520000     -0.0748340000
C                  2.5697900000      1.2248900000     -0.2326330000
O                  2.6798080000      2.5818010000     -0.3728290000
C                  3.6981910000      0.4383230000     -0.2426760000
C                  3.6040320000     -0.9761980000     -0.0980710000
C                  2.3824380000     -1.5896760000      0.0550590000
O                  2.3116000000     -2.9494370000      0.1926280000
C                  1.1713280000     -0.8069020000      0.0717320000
C                 -0.0956650000     -1.4372890000      0.2299280000
O                 -0.1840920000     -2.7668810000      0.3658830000
C                 -1.2668110000     -0.6273370000      0.2409680000
H                 -1.7230640000     -2.9124450000      0.4976340000
H                 -4.6658550000     -0.9172450000      0.5294940000
H                 -4.4988000000      1.5923330000      0.2730080000
H                 -1.3203760000      3.1365540000     -0.1205510000
H                  1.7230500000      2.9123240000     -0.3317800000
H                  4.6658600000      0.9172640000     -0.3632730000
H                  4.4988120000     -1.5923180000     -0.1067210000
H                  1.3203230000     -3.1365900000      0.2866730000
$end

$rem
BASIS  =  6-311++G(d,p)
GUI  =  2
JOB_TYPE  =  SP
METHOD  =  B3LYP
SCF_CONVERGENCE  = 8
SOLVENT_METHOD = sm12
$end

$smx
solvent dimethylformamide
charges CM5
$end

--------------------------------------------------------------

             Standard Nuclear Orientation (Angstroms)
    I     Atom           X                Y                Z
 ----------------------------------------------------------------
    1      O      -2.6798310000    -2.5818080000     0.5388750000
    2      C      -2.5697900000    -1.2249050000     0.3987740000
    3      C      -3.6981820000    -0.4383120000     0.4088890000
    4      C      -3.6040250000     0.9762050000     0.2643200000
    5      C      -2.3824340000     1.5896770000     0.1111470000
    6      O      -2.3116260000     2.9494510000    -0.0264220000
    7      C      -1.1713280000     0.8069220000     0.0944240000
    8      C       0.0956860000     1.4373440000    -0.0637470000
    9      O       0.1841470000     2.7669010000    -0.1996070000
   10      C       1.2668120000     0.6273520000    -0.0748340000
   11      C       2.5697900000     1.2248900000    -0.2326330000
   12      O       2.6798080000     2.5818010000    -0.3728290000
   13      C       3.6981910000     0.4383230000    -0.2426760000
   14      C       3.6040320000    -0.9761980000    -0.0980710000
   15      C       2.3824380000    -1.5896760000     0.0550590000
   16      O       2.3116000000    -2.9494370000     0.1926280000
   17      C       1.1713280000    -0.8069020000     0.0717320000
   18      C      -0.0956650000    -1.4372890000     0.2299280000
   19      O      -0.1840920000    -2.7668810000     0.3658830000
   20      C      -1.2668110000    -0.6273370000     0.2409680000
   21      H      -1.7230640000    -2.9124450000     0.4976340000
   22      H      -4.6658550000    -0.9172450000     0.5294940000
   23      H      -4.4988000000     1.5923330000     0.2730080000
   24      H      -1.3203760000     3.1365540000    -0.1205510000
   25      H       1.7230500000     2.9123240000    -0.3317800000
   26      H       4.6658600000     0.9172640000    -0.3632730000
   27      H       4.4988120000    -1.5923180000    -0.1067210000
   28      H       1.3203230000    -3.1365900000     0.2866730000
 ----------------------------------------------------------------

   15    -990.0124327494      3.83e-09  Convergence criterion met
 Total energy in the final basis set =     -990.2730421940

                    Orbital Energies (a.u.)
 --------------------------------------------------------------

 Alpha MOs
 -- Occupied --
-19.1113 -19.1113 -19.1112 -19.1112 -19.0667 -19.0667 -10.2164 -10.2164
-10.2164 -10.2164 -10.2088 -10.2088 -10.1668 -10.1667 -10.1664 -10.1664
-10.1582 -10.1582 -10.1577 -10.1577  -1.0323  -1.0311  -1.0246  -1.0235
 -0.9647  -0.9629  -0.8446  -0.8250  -0.7774  -0.7322  -0.7300  -0.7132
 -0.6677  -0.6349  -0.6237  -0.5831  -0.5666  -0.5365  -0.5124  -0.5102
 -0.4974  -0.4968  -0.4921  -0.4589  -0.4397  -0.4249  -0.4211  -0.4065
 -0.4034  -0.3977  -0.3955  -0.3944  -0.3927  -0.3898  -0.3839  -0.3679
 -0.3528  -0.3483  -0.3478  -0.3409  -0.3295  -0.3242  -0.2905  -0.2847
 -0.2517  -0.2483  -0.2394  -0.2348  -0.2097  -0.1915  -0.1314

          Ground-State Mulliken Net Atomic Charges

     Atom                 Charge (a.u.)
  ----------------------------------------
      1 O                    -0.307393
      2 C                    -0.236994
      3 C                     1.070787
      4 C                     1.068354
      5 C                    -0.237831
      6 O                    -0.307189
      7 C                    -0.897354
      8 C                    -1.164392
      9 O                    -0.478450
     10 C                    -0.899928
     11 C                    -0.237051
     12 O                    -0.307419
     13 C                     1.070675
     14 C                     1.068246
     15 C                    -0.237932
     16 O                    -0.307212
     17 C                    -0.897445
     18 C                    -1.164465
     19 O                    -0.478473
     20 C                    -0.899935
     21 H                     0.424134
     22 H                     0.271175
     23 H                     0.271431
     24 H                     0.423942
     25 H                     0.424180
     26 H                     0.271165
     27 H                     0.271421
     28 H                     0.423952
  ----------------------------------------
  Sum of atomic charges =    -2.000000

                    Cartesian Multipole Moments
 -----------------------------------------------------------------
    Charge (ESU x 10^10)
                -9.6064
    Dipole Moment (Debye)
         X      -0.0005      Y      -0.0000      Z      -0.7987
       Tot       0.7987
    Quadrupole Moments (Debye-Ang)
        XX    -184.8102     XY       0.4920     YY    -183.6858
        XZ       4.4055     YZ       5.4790     ZZ    -127.7129

 Total job time:  687.38s(wall), 5371.67s(cpu)
        *  Thank you very much for using Q-Chem.  Have a nice day.  *
