 Q-Chem 5.4, Q-Chem, Inc., Pleasanton, CA (2021)
 Q-Chem 5.4.0 for Intel X86 EM64T Linux

User input:
--------------------------------------------------------------
$molecule
0 1
O                 -0.4221850000      2.1657670000      0.2518890000
C                 -0.5791540000      0.9570590000      0.1296050000
C                  0.5791790000      0.0499410000     -0.0045470000
C                  0.3833740000     -1.2909210000     -0.1308580000
O                  1.3661730000     -2.1937050000     -0.2591090000
C                 -0.9814960000     -1.9212200000     -0.1582830000
O                 -1.1019940000     -3.1237510000     -0.2824050000
C                 -2.1487860000     -1.0086770000     -0.0332660000
C                 -3.4415360000     -1.5378010000     -0.0543630000
C                 -4.5392220000     -0.6916630000      0.0645700000
C                 -4.3493900000      0.6849100000      0.2045780000
C                 -3.0629680000      1.2164150000      0.2256560000
C                 -1.9569070000      0.3733750000      0.1071960000
C                  1.9558610000      0.6864560000     -0.0383400000
H                 -3.5637230000     -2.6084270000     -0.1634180000
H                 -5.5423780000     -1.1021970000      0.0487440000
H                 -5.2061240000      1.3428470000      0.2967230000
H                 -2.8940600000      2.2806660000      0.3326930000
C                  2.9853890000     -0.0038430000      0.8244950000
C                  4.2160800000     -0.4218120000      0.4822950000
C                  4.8221740000     -0.2907680000     -0.8924460000
C                  5.1256040000     -1.0506760000      1.5093140000
H                  2.2220480000     -1.7703520000     -0.0644870000
H                  1.8319800000      1.7196330000      0.2988470000
H                  2.2903070000      0.7497900000     -1.0790760000
H                  2.6822670000     -0.1410840000      1.8615270000
H                  4.1363810000      0.1134220000     -1.6362840000
H                  5.1789950000     -1.2629120000     -1.2501710000
H                  5.6983930000      0.3663690000     -0.8538900000
H                  4.6454870000     -1.1295450000      2.4861510000
H                  6.0417870000     -0.4603290000      1.6249330000
H                  5.4374340000     -2.0534270000      1.1961010000
$end
$rem
MAX_SCF_CYCLES=200
BASIS  =  6-311++G(d,p)
GUI  =  2
JOB_TYPE  =  SP
METHOD  =  B3LYP
SOLVENT_METHOD = PCM
$end
$pcm
theory = CPCM
$end
$solvent
dielectric 37.219
opticaldielectric 1.43
$end

--------------------------------------------------------------

             Standard Nuclear Orientation (Angstroms)
    I     Atom           X                Y                Z
 ----------------------------------------------------------------
    1      O      -0.4221850000     2.1657670000     0.2518890000
    2      C      -0.5791540000     0.9570590000     0.1296050000
    3      C       0.5791790000     0.0499410000    -0.0045470000
    4      C       0.3833740000    -1.2909210000    -0.1308580000
    5      O       1.3661730000    -2.1937050000    -0.2591090000
    6      C      -0.9814960000    -1.9212200000    -0.1582830000
    7      O      -1.1019940000    -3.1237510000    -0.2824050000
    8      C      -2.1487860000    -1.0086770000    -0.0332660000
    9      C      -3.4415360000    -1.5378010000    -0.0543630000
   10      C      -4.5392220000    -0.6916630000     0.0645700000
   11      C      -4.3493900000     0.6849100000     0.2045780000
   12      C      -3.0629680000     1.2164150000     0.2256560000
   13      C      -1.9569070000     0.3733750000     0.1071960000
   14      C       1.9558610000     0.6864560000    -0.0383400000
   15      H      -3.5637230000    -2.6084270000    -0.1634180000
   16      H      -5.5423780000    -1.1021970000     0.0487440000
   17      H      -5.2061240000     1.3428470000     0.2967230000
   18      H      -2.8940600000     2.2806660000     0.3326930000
   19      C       2.9853890000    -0.0038430000     0.8244950000
   20      C       4.2160800000    -0.4218120000     0.4822950000
   21      C       4.8221740000    -0.2907680000    -0.8924460000
   22      C       5.1256040000    -1.0506760000     1.5093140000
   23      H       2.2220480000    -1.7703520000    -0.0644870000
   24      H       1.8319800000     1.7196330000     0.2988470000
   25      H       2.2903070000     0.7497900000    -1.0790760000
   26      H       2.6822670000    -0.1410840000     1.8615270000
   27      H       4.1363810000     0.1134220000    -1.6362840000
   28      H       5.1789950000    -1.2629120000    -1.2501710000
   29      H       5.6983930000     0.3663690000    -0.8538900000
   30      H       4.6454870000    -1.1295450000     2.4861510000
   31      H       6.0417870000    -0.4603290000     1.6249330000
   32      H       5.4374340000    -2.0534270000     1.1961010000
 ----------------------------------------------------------------

    9    -805.9261114153      3.81e-06  Convergence criterion met
 Total energy in the final basis set =     -805.9261114153

                    Orbital Energies (a.u.)
 --------------------------------------------------------------

 Alpha MOs
 -- Occupied --
-19.1772 -19.1406 -19.1291 -10.2892 -10.2809 -10.2702 -10.2075 -10.2069
-10.2059 -10.1973 -10.1964 -10.1954 -10.1952 -10.1915 -10.1855 -10.1738
-10.1644 -10.1629  -1.1012  -1.0687  -1.0627  -0.8897  -0.8431  -0.8216
 -0.7838  -0.7774  -0.7436  -0.6980  -0.6957  -0.6615  -0.6485  -0.6274
 -0.5902  -0.5789  -0.5476  -0.5272  -0.5079  -0.4995  -0.4751  -0.4662
 -0.4634  -0.4600  -0.4557  -0.4504  -0.4410  -0.4368  -0.4251  -0.4226
 -0.4108  -0.3988  -0.3925  -0.3867  -0.3802  -0.3758  -0.3741  -0.3678
 -0.3649  -0.3415  -0.2928  -0.2877  -0.2826  -0.2780  -0.2607  -0.2486

          Ground-State Mulliken Net Atomic Charges

     Atom                 Charge (a.u.)
  ----------------------------------------
      1 O                    -0.291973
      2 C                    -1.165541
      3 C                     1.938594
      4 C                    -0.847623
      5 O                    -0.288942
      6 C                    -0.542424
      7 O                    -0.293996
      8 C                     0.726650
      9 C                     0.099708
     10 C                    -0.373716
     11 C                    -0.462907
     12 C                     0.240378
     13 C                    -0.184546
     14 C                    -0.356599
     15 H                     0.191595
     16 H                     0.225406
     17 H                     0.223430
     18 H                     0.197049
     19 C                    -0.429048
     20 C                     0.537175
     21 C                    -0.594216
     22 C                    -0.618911
     23 H                     0.436728
     24 H                     0.216160
     25 H                     0.201075
     26 H                     0.215989
     27 H                     0.165854
     28 H                     0.166353
     29 H                     0.173043
     30 H                     0.169688
     31 H                     0.160576
     32 H                     0.164988
  ----------------------------------------
  Sum of atomic charges =     0.000000

                    Cartesian Multipole Moments
 -----------------------------------------------------------------
    Charge (ESU x 10^10)
                -0.0000
    Dipole Moment (Debye)
         X       1.1565      Y       1.4326      Z       0.2646
       Tot       1.8601
    Quadrupole Moments (Debye-Ang)
        XX     -67.0909     XY      -4.3745     YY    -128.8305
        XZ      -0.9500     YZ      -3.1629     ZZ    -105.7907

 Total job time:  63.29s(wall), 418.71s(cpu)
        *  Thank you very much for using Q-Chem.  Have a nice day.  *
