 Gaussian 16, Revision A.03,
 Gaussian 16:  ES64L-G16RevA.03 25-Dec-2016

 --------------------------------------
 #P UB3LYP/6-311++G(d,p) nosym opt freq
 --------------------------------------

 -------
 Radical
 -------
 Symbolic Z-matrix:
 Charge = -1 Multiplicity = 2

 SCF Done:  E(UB3LYP) =  -951.190888776     A.U. after   22 cycles
 Optimization completed.
    -- Stationary point found.
 Normal termination of Gaussian 16 at Mon Jan  8 21:30:48 2024.

 ----------------------------------------------------------------------
 #P Geom=AllCheck Guess=TCheck SCRF=Check GenChk UB3LYP/6-311++G(d,p) F
 req
 ----------------------------------------------------------------------

 Structure from the checkpoint file:  "301-rad.chk"
 -------
 Radical
 -------
 Charge = -1 Multiplicity = 2

                          Input orientation:
 ---------------------------------------------------------------------
 Center     Atomic      Atomic             Coordinates (Angstroms)
 Number     Number       Type             X           Y           Z
 ---------------------------------------------------------------------
      1          6           0       -0.703844    2.725573    0.643724
      2          6           0       -1.687653    2.564960   -0.318212
      3          6           0       -1.435951    1.786148   -1.459050
      4          6           0        0.554011    2.112391    0.488916
      5          6           0        0.810057    1.327593   -0.659136
      6          6           0       -0.198364    1.177563   -1.620156
      7          6           0        1.588370    2.279999    1.498629
      8          6           0        2.848667    1.626042    1.275402
      9          6           0        3.157573    0.833694    0.149331
     10          6           0        2.127519    0.645658   -0.889019
     11          8           0        1.446242    2.965681    2.559862
     12          8           0        2.288145   -0.026938   -1.910248
     13          8           0        3.745538    1.835602    2.258351
     14          1           0       -0.872460    3.321209    1.533235
     15          1           0       -2.654632    3.042045   -0.189708
     16          1           0       -2.206778    1.660250   -2.212857
     17          1           0        0.024818    0.570763   -2.489942
     18          1           0        3.242449    2.409474    2.878562
     19          7           0        4.426479    0.308004    0.151835
     20          7           0        4.815425   -0.416173   -0.820330
     21          6           0        6.142694   -0.880019   -0.665059
     22          6           0        6.981101   -0.601464    0.431564
     23          6           0        6.635496   -1.681879   -1.706400
     24          6           0        7.928998   -2.193861   -1.659540
     25          6           0        8.756460   -1.914932   -0.570481
     26          6           0        8.271019   -1.116358    0.470842
     27          1           0        6.592785    0.017801    1.230242
     28          1           0        5.975025   -1.885371   -2.541875
     29          1           0        8.293541   -2.812243   -2.474043
     30          1           0        9.765312   -2.312818   -0.531150
     31          1           0        8.909559   -0.895465    1.321358
 ---------------------------------------------------------------------

 SCF Done:  E(UB3LYP) =  -951.190888776     A.U. after    1 cycles

 Alpha  occ. eigenvalues --  -19.03555 -18.97715 -18.96853 -14.22517 -14.21519
 Alpha  occ. eigenvalues --  -10.12711 -10.12139 -10.11260 -10.09380 -10.08140
 Alpha  occ. eigenvalues --  -10.08085 -10.08032 -10.07900 -10.07840 -10.07579
 Alpha  occ. eigenvalues --  -10.07436 -10.07166 -10.07129 -10.07079 -10.06952
 Alpha  occ. eigenvalues --  -10.06876  -0.96103  -0.90725  -0.89096  -0.88722
 Alpha  occ. eigenvalues --   -0.76128  -0.75785  -0.71026  -0.67377  -0.65044
 Alpha  occ. eigenvalues --   -0.64974  -0.63461  -0.58744  -0.55301  -0.52170
 Alpha  occ. eigenvalues --   -0.51095  -0.49947  -0.47561  -0.46249  -0.43403
 Alpha  occ. eigenvalues --   -0.42420  -0.39748  -0.37853  -0.37385  -0.36241
 Alpha  occ. eigenvalues --   -0.35211  -0.34231  -0.33349  -0.33283  -0.32597
 Alpha  occ. eigenvalues --   -0.32483  -0.30579  -0.30105  -0.29409  -0.28174
 Alpha  occ. eigenvalues --   -0.27991  -0.27372  -0.26849  -0.25097  -0.24953
 Alpha  occ. eigenvalues --   -0.24511  -0.23742  -0.23701  -0.23678  -0.16988
 Alpha  occ. eigenvalues --   -0.16058  -0.15864  -0.15364  -0.15163  -0.14195
 Alpha  occ. eigenvalues --   -0.11203  -0.08509  -0.04440
 Alpha virt. eigenvalues --    0.03516   0.06790   0.07392   0.07488   0.08364
 Alpha virt. eigenvalues --    0.08563   0.09407   0.09765   0.09854   0.10656
 Alpha virt. eigenvalues --    0.11551   0.12698   0.12732   0.13314   0.14006

  Beta  occ. eigenvalues --  -19.03430 -18.96997 -18.96584 -14.22524 -14.21320
  Beta  occ. eigenvalues --  -10.12689 -10.11887 -10.11019 -10.09410 -10.08153
  Beta  occ. eigenvalues --  -10.08096 -10.08000 -10.07874 -10.07866 -10.07481
  Beta  occ. eigenvalues --  -10.07467 -10.07130 -10.07037 -10.07010 -10.06984
  Beta  occ. eigenvalues --  -10.06835  -0.95725  -0.90376  -0.88703  -0.87589
  Beta  occ. eigenvalues --   -0.76049  -0.75656  -0.70737  -0.67112  -0.65002
  Beta  occ. eigenvalues --   -0.64838  -0.63331  -0.58123  -0.54905  -0.52050
  Beta  occ. eigenvalues --   -0.50989  -0.49754  -0.47463  -0.46015  -0.43268
  Beta  occ. eigenvalues --   -0.42326  -0.39619  -0.37611  -0.37255  -0.36124
  Beta  occ. eigenvalues --   -0.35176  -0.34161  -0.33204  -0.32584  -0.32450
  Beta  occ. eigenvalues --   -0.32183  -0.30080  -0.29356  -0.29187  -0.27861
  Beta  occ. eigenvalues --   -0.27358  -0.27220  -0.26178  -0.24999  -0.24864
  Beta  occ. eigenvalues --   -0.23786  -0.23641  -0.23519  -0.21878  -0.16441
  Beta  occ. eigenvalues --   -0.15916  -0.14900  -0.14602  -0.14520  -0.13853
  Beta  occ. eigenvalues --   -0.10039  -0.08333
  Beta virt. eigenvalues --    0.01590   0.04444   0.06789   0.07388   0.08003
  Beta virt. eigenvalues --    0.08495   0.08559   0.09404   0.09774   0.10631
  Beta virt. eigenvalues --    0.10676   0.11554   0.12700   0.13252   0.13315

 Mulliken charges and spin densities:
               1          2
     1  C    0.052266   0.080707
     2  C   -0.201766  -0.026283
     3  C   -0.408974   0.077887
     4  C    0.778268  -0.014029
     5  C    0.239536   0.064931
     6  C    0.067537  -0.029192
     7  C   -0.775607   0.146139
     8  C   -0.125207   0.142375
     9  C    0.285522   0.024435
    10  C   -0.637214   0.007319
    11  O   -0.425145   0.267504
    12  O   -0.268020   0.102977
    13  O   -0.217762   0.043543
    14  H    0.157385  -0.005488
    15  H    0.131880   0.001549
    16  H    0.130913  -0.005484
    17  H    0.161931   0.001702
    18  H    0.287226  -0.005299
    19  N   -0.235493  -0.030592
    20  N    0.262709   0.117351
    21  C   -0.423860  -0.033423
    22  C    0.115431   0.039920
    23  C    0.019905   0.029434
    24  C   -0.131143  -0.012567
    25  C   -0.273736   0.035461
    26  C   -0.351290  -0.015780
    27  H    0.199368  -0.002240
    28  H    0.167674  -0.002036
    29  H    0.147287   0.000801
    30  H    0.114920  -0.002509
    31  H    0.155458   0.000888
 Sum of Mulliken charges =  -1.00000   1.00000

 Dipole moment (field-independent basis, Debye):
    X=            -14.8819    Y=             -3.9624    Z=             -0.4426  Tot=             15.4067
 Quadrupole moment (field-independent basis, Debye-Ang):
   XX=           -195.3794   YY=           -142.9682   ZZ=           -141.1636
   XY=             -0.0654   XZ=              4.9442   YZ=            -10.4115

  Exact polarizability: 491.216-155.319 215.799   2.089  64.692 225.329
 Approx polarizability: 655.559-194.486 339.474   4.439 134.560 412.670

                      1                      2                      3
                      A                      A                      A
 Frequencies --     12.6299                26.8880                57.5304
 Red. masses --      4.2167                 7.4235                 6.1284
 Frc consts  --      0.0004                 0.0032                 0.0120
 IR Inten    --      0.0787                 2.1131                 2.1664

                      4                      5                      6
                      A                      A                      A
 Frequencies --     67.8150                91.0465               130.6540
 Red. masses --      7.1398                 7.5420                 5.4266
 Frc consts  --      0.0193                 0.0368                 0.0546
 IR Inten    --      0.4509                 1.6262                 0.2305

                      7                      8                      9
                      A                      A                      A
 Frequencies --    156.5387               175.7308               188.2548
 Red. masses --      8.8933                 6.4097                 8.1567
 Frc consts  --      0.1284                 0.1166                 0.1703
 IR Inten    --      0.2539                 1.3283                 1.0496

                     10                     11                     12
                      A                      A                      A
 Frequencies --    238.6172               245.8641               270.6126
 Red. masses --      6.1904                 5.7678                 6.2520
 Frc consts  --      0.2077                 0.2054                 0.2698
 IR Inten    --      2.3634                 0.1360                 3.1640

                     13                     14                     15
                      A                      A                      A
 Frequencies --    348.7745               363.4355               378.5382
 Red. masses --      5.7471                 6.1990                10.6569
 Frc consts  --      0.4119                 0.4824                 0.8997
 IR Inten    --      1.7654                 6.6115                 8.2017

                     16                     17                     18
                      A                      A                      A
 Frequencies --    419.4152               419.4761               428.7374
 Red. masses --      3.4801                 7.9957                 6.1117
 Frc consts  --      0.3607                 0.8289                 0.6619
 IR Inten    --      1.8982                12.5008                 0.2111

                     19                     20                     21
                      A                      A                      A
 Frequencies --    444.4102               458.6958               471.3367
 Red. masses --      3.6817                 9.7804                 8.7260
 Frc consts  --      0.4284                 1.2124                 1.1422
 IR Inten    --      3.8546                 2.5869                 5.3937

                     22                     23                     24
                      A                      A                      A
 Frequencies --    517.6586               523.2800               565.7703
 Red. masses --      3.5274                 9.7515                 4.6727
 Frc consts  --      0.5569                 1.5732                 0.8812
 IR Inten    --      1.7184                 1.1820                 2.7227

                     25                     26                     27
                      A                      A                      A
 Frequencies --    602.5022               629.2651               665.4913
 Red. masses --      8.1384                 6.4655                 6.9969
 Frc consts  --      1.7406                 1.5084                 1.8257
 IR Inten    --     22.7217                 1.3872                 1.0772

                     28                     29                     30
                      A                      A                      A
 Frequencies --    688.1949               698.6998               707.5247
 Red. masses --      6.1758                 2.1033                 2.9438
 Frc consts  --      1.7233                 0.6050                 0.8682
 IR Inten    --     11.3231                13.3324                20.6051

                     31                     32                     33
                      A                      A                      A
 Frequencies --    707.9686               729.2336               737.4669
 Red. masses --      6.2284                 1.1655                 6.8294
 Frc consts  --      1.8393                 0.3652                 2.1883
 IR Inten    --     14.8944               154.0242                 2.4020

                     34                     35                     36
                      A                      A                      A
 Frequencies --    752.8072               769.0445               788.5116
 Red. masses --      2.2832                 1.8605                 2.5839
 Frc consts  --      0.7623                 0.6483                 0.9466
 IR Inten    --     11.6992                13.6579                18.0767

                     37                     38                     39
                      A                      A                      A
 Frequencies --    845.9021               854.9368               875.8776
 Red. masses --      1.2499                 6.9494                 1.3584
 Frc consts  --      0.5269                 2.9927                 0.6140
 IR Inten    --      0.0228                 4.2885                 0.0960

                     40                     41                     42
                      A                      A                      A
 Frequencies --    914.4382               927.8255               968.2410
 Red. masses --      1.4713                 6.5081                 1.2750
 Frc consts  --      0.7248                 3.3010                 0.7043
 IR Inten    --      7.2059                32.2010                 0.7071

                     43                     44                     45
                      A                      A                      A
 Frequencies --    973.9238               983.0475               983.5555
 Red. masses --      1.3278                 1.3036                 1.2897
 Frc consts  --      0.7420                 0.7422                 0.7351
 IR Inten    --      1.5932                 1.3820                 0.2935

                     46                     47                     48
                      A                      A                      A
 Frequencies --    995.5313              1006.6446              1034.7581
 Red. masses --      8.7568                 5.9165                 2.0478
 Frc consts  --      5.1133                 3.5324                 1.2919
 IR Inten    --     29.4232                55.5915                10.0718

                     49                     50                     51
                      A                      A                      A
 Frequencies --   1047.4559              1080.4657              1090.0082
 Red. masses --      2.0657                 4.1322                 1.6816
 Frc consts  --      1.3353                 2.8422                 1.1772
 IR Inten    --     32.2220                30.2503                30.5605

                     52                     53                     54
                      A                      A                      A
 Frequencies --   1105.7917              1138.0743              1158.7986
 Red. masses --      2.2209                 2.0793                 1.3488
 Frc consts  --      1.6000                 1.5868                 1.0671
 IR Inten    --     45.6419               432.3679                31.7402

                     55                     56                     57
                      A                      A                      A
 Frequencies --   1169.1243              1186.2926              1211.2936
 Red. masses --      1.1068                 1.5623                 2.7701
 Frc consts  --      0.8914                 1.2954                 2.3947
 IR Inten    --      2.9114               125.0885                15.5385

                     58                     59                     60
                      A                      A                      A
 Frequencies --   1218.6989              1264.6399              1306.3418
 Red. masses --      2.6494                 2.4524                 2.6770
 Frc consts  --      2.3184                 2.3108                 2.6916
 IR Inten    --    129.4333                 8.8563                14.5229

                     61                     62                     63
                      A                      A                      A
 Frequencies --   1323.9438              1334.5161              1345.8020
 Red. masses --      2.4956                 2.1988                 5.6134
 Frc consts  --      2.5773                 2.3071                 5.9902
 IR Inten    --    202.6243               243.8182                31.4367

                     64                     65                     66
                      A                      A                      A
 Frequencies --   1347.7316              1407.8821              1442.6733
 Red. masses --      5.3436                 3.4251                 4.3716
 Frc consts  --      5.7186                 3.9999                 5.3608
 IR Inten    --     40.4326               948.9563               416.1806

                     67                     68                     69
                      A                      A                      A
 Frequencies --   1469.0994              1479.6311              1485.8130
 Red. masses --      2.8566                 2.5475                 3.0564
 Frc consts  --      3.6325                 3.2860                 3.9755
 IR Inten    --     14.6127                68.3117                95.2779

                     70                     71                     72
                      A                      A                      A
 Frequencies --   1507.7855              1531.5466              1563.8470
 Red. masses --      2.3891                 5.6976                 3.3131
 Frc consts  --      3.2002                 7.8741                 4.7739
 IR Inten    --      2.3173               284.2119               112.8474

                     73                     74                     75
                      A                      A                      A
 Frequencies --   1602.1137              1607.4140              1612.5048
 Red. masses --      6.7023                 5.8675                 6.1617
 Frc consts  --     10.1358                 8.9321                 9.4396
 IR Inten    --     86.9163                 8.8033                23.7796

                     76                     77                     78
                      A                      A                      A
 Frequencies --   1628.6075              1656.4756              3137.6734
 Red. masses --      5.7691                 9.5097                 1.0845
 Frc consts  --      9.0155                15.3739                 6.2905
 IR Inten    --     39.3171               132.5720                13.5892

                     79                     80                     81
                      A                      A                      A
 Frequencies --   3140.7431              3148.1879              3159.5611
 Red. masses --      1.0851                 1.0888                 1.0915
 Frc consts  --      6.3067                 6.3580                 6.4199
 IR Inten    --     14.0040                33.0526                54.0757

                     82                     83                     84
                      A                      A                      A
 Frequencies --   3166.6430              3182.1218              3185.4778
 Red. masses --      1.0941                 1.0936                 1.0914
 Frc consts  --      6.4638                 6.5246                 6.5251
 IR Inten    --     71.5274                21.4605                 8.1678

                     85                     86                     87
                      A                      A                      A
 Frequencies --   3187.8782              3198.8470              3475.2657
 Red. masses --      1.0930                 1.0915                 1.0634
 Frc consts  --      6.5447                 6.5807                 7.5670
 IR Inten    --     31.4894                 5.9322                80.9101

 - Thermochemistry -
 -------------------
 Temperature   298.150 Kelvin.  Pressure   1.00000 Atm.
 Atom     1 has atomic number  6 and mass  12.00000

 Molecular mass:   278.06914 amu.
 Principal axes and moments of inertia in atomic units:
                           1         2         3
     Eigenvalues --  2234.22677********************
           X            0.90314   0.26680   0.33637
           Y           -0.42169   0.40404   0.81174
           Z           -0.08067   0.87497  -0.47742
 This molecule is an asymmetric top.
 Rotational symmetry number  1.
 Warning -- assumption of classical behavior for rotation
           may cause significant error
 Rotational temperatures (Kelvin)      0.03877     0.00727     0.00612
 Rotational constants (GHZ):           0.80777     0.15147     0.12755
 Zero-point vibrational energy     587066.6 (Joules/Mol)
                                  140.31229 (Kcal/Mol)
 Warning -- explicit consideration of  25 degrees of freedom as
           vibrations may cause significant error
 Vibrational temperatures:     18.17    38.69    82.77    97.57   131.00
          (Kelvin)            187.98   225.22   252.84   270.86   343.32
                              353.74   389.35   501.81   522.90   544.63
                              603.44   603.53   616.86   639.41   659.96
                              678.15   744.80   752.88   814.02   866.87
                              905.37   957.49   990.16  1005.27  1017.97
                             1018.61  1049.20  1061.05  1083.12  1106.48
                             1134.49  1217.06  1230.06  1260.19  1315.67
                             1334.93  1393.08  1401.26  1414.39  1415.12
                             1432.35  1448.34  1488.79  1507.06  1554.55
                             1568.28  1590.99  1637.44  1667.25  1682.11
                             1706.81  1742.78  1753.44  1819.53  1879.53
                             1904.86  1920.07  1936.31  1939.09  2025.63
                             2075.69  2113.71  2128.86  2137.75  2169.37
                             2203.55  2250.03  2305.08  2312.71  2320.03
                             2343.20  2383.30  4514.41  4518.83  4529.54
                             4545.90  4556.09  4578.36  4583.19  4586.65
                             4602.43  5000.13

 Zero-point correction=                           0.223602 (Hartree/Particle)
 Thermal correction to Energy=                    0.240055
 Thermal correction to Enthalpy=                  0.240999
 Thermal correction to Gibbs Free Energy=         0.176540
 Sum of electronic and zero-point Energies=           -950.967287
 Sum of electronic and thermal Energies=              -950.950834
 Sum of electronic and thermal Enthalpies=            -950.949890
 Sum of electronic and thermal Free Energies=         -951.014349

                     E (Thermal)             CV                S
                      KCal/Mol        Cal/Mol-Kelvin    Cal/Mol-Kelvin
 Total                  150.637             64.491            135.666
 Electronic               0.000              0.000              1.377
 Translational            0.889              2.981             42.766
 Rotational               0.889              2.981             34.287
 Vibrational            148.859             58.529             57.236
 Vibration     1          0.593              1.987              7.547
 Vibration     2          0.593              1.984              6.047
 Vibration     3          0.596              1.974              4.540
 Vibration     4          0.598              1.970              4.216
 Vibration     5          0.602              1.956              3.637
 Vibration     6          0.612              1.923              2.936
 Vibration     7          0.620              1.895              2.591
 Vibration     8          0.628              1.872              2.373
 Vibration     9          0.633              1.856              2.245
 Vibration    10          0.657              1.781              1.813
 Vibration    11          0.660              1.770              1.760
 Vibration    12          0.674              1.727              1.592
 Vibration    13          0.726              1.578              1.172
 Vibration    14          0.737              1.548              1.107
 Vibration    15          0.749              1.516              1.045
 Vibration    16          0.782              1.428              0.894
 Vibration    17          0.782              1.428              0.894
 Vibration    18          0.790              1.408              0.863
 Vibration    19          0.804              1.373              0.813
 Vibration    20          0.817              1.342              0.770
 Vibration    21          0.828              1.314              0.734
 Vibration    22          0.873              1.211              0.615
 Vibration    23          0.878              1.198              0.602
 Vibration    24          0.922              1.105              0.512
 Vibration    25          0.961              1.026              0.445

 Optimization completed.
    -- Stationary point found.
 Normal termination of Gaussian 16 at Mon Jan  8 22:52:18 2024.
