 Q-Chem 5.4, Q-Chem, Inc., Pleasanton, CA (2021)
 Q-Chem 5.4.0 for Intel X86 EM64T Linux

User input:
--------------------------------------------------------------
$molecule
-1 2
C                 -0.7038440000      2.7255730000      0.6437240000
C                 -1.6876530000      2.5649600000     -0.3182120000
C                 -1.4359510000      1.7861480000     -1.4590500000
C                  0.5540110000      2.1123910000      0.4889160000
C                  0.8100570000      1.3275930000     -0.6591360000
C                 -0.1983640000      1.1775630000     -1.6201560000
C                  1.5883700000      2.2799990000      1.4986290000
C                  2.8486670000      1.6260420000      1.2754020000
C                  3.1575730000      0.8336940000      0.1493310000
C                  2.1275190000      0.6456580000     -0.8890190000
O                  1.4462420000      2.9656810000      2.5598620000
O                  2.2881450000     -0.0269380000     -1.9102480000
O                  3.7455380000      1.8356020000      2.2583510000
H                 -0.8724600000      3.3212090000      1.5332350000
H                 -2.6546320000      3.0420450000     -0.1897080000
H                 -2.2067780000      1.6602500000     -2.2128570000
H                  0.0248180000      0.5707630000     -2.4899420000
H                  3.2424490000      2.4094740000      2.8785620000
N                  4.4264790000      0.3080040000      0.1518350000
N                  4.8154250000     -0.4161730000     -0.8203300000
C                  6.1426940000     -0.8800190000     -0.6650590000
C                  6.9811010000     -0.6014640000      0.4315640000
C                  6.6354960000     -1.6818790000     -1.7064000000
C                  7.9289980000     -2.1938610000     -1.6595400000
C                  8.7564600000     -1.9149320000     -0.5704810000
C                  8.2710190000     -1.1163580000      0.4708420000
H                  6.5927850000      0.0178010000      1.2302420000
H                  5.9750250000     -1.8853710000     -2.5418750000
H                  8.2935410000     -2.8122430000     -2.4740430000
H                  9.7653120000     -2.3128180000     -0.5311500000
H                  8.9095590000     -0.8954650000      1.3213580000
$end
$rem
MAX_SCF_CYCLES=200
BASIS  =  6-311++G(d,p)
GUI  =  2
JOB_TYPE  =  SP
METHOD  =  B3LYP
SOLVENT_METHOD = PCM
$end
$pcm
theory = CPCM
$end
$solvent
dielectric 37.219
opticaldielectric 1.43
$end

--------------------------------------------------------------

             Standard Nuclear Orientation (Angstroms)
    I     Atom           X                Y                Z
 ----------------------------------------------------------------
    1      C      -0.7038440000     2.7255730000     0.6437240000
    2      C      -1.6876530000     2.5649600000    -0.3182120000
    3      C      -1.4359510000     1.7861480000    -1.4590500000
    4      C       0.5540110000     2.1123910000     0.4889160000
    5      C       0.8100570000     1.3275930000    -0.6591360000
    6      C      -0.1983640000     1.1775630000    -1.6201560000
    7      C       1.5883700000     2.2799990000     1.4986290000
    8      C       2.8486670000     1.6260420000     1.2754020000
    9      C       3.1575730000     0.8336940000     0.1493310000
   10      C       2.1275190000     0.6456580000    -0.8890190000
   11      O       1.4462420000     2.9656810000     2.5598620000
   12      O       2.2881450000    -0.0269380000    -1.9102480000
   13      O       3.7455380000     1.8356020000     2.2583510000
   14      H      -0.8724600000     3.3212090000     1.5332350000
   15      H      -2.6546320000     3.0420450000    -0.1897080000
   16      H      -2.2067780000     1.6602500000    -2.2128570000
   17      H       0.0248180000     0.5707630000    -2.4899420000
   18      H       3.2424490000     2.4094740000     2.8785620000
   19      N       4.4264790000     0.3080040000     0.1518350000
   20      N       4.8154250000    -0.4161730000    -0.8203300000
   21      C       6.1426940000    -0.8800190000    -0.6650590000
   22      C       6.9811010000    -0.6014640000     0.4315640000
   23      C       6.6354960000    -1.6818790000    -1.7064000000
   24      C       7.9289980000    -2.1938610000    -1.6595400000
   25      C       8.7564600000    -1.9149320000    -0.5704810000
   26      C       8.2710190000    -1.1163580000     0.4708420000
   27      H       6.5927850000     0.0178010000     1.2302420000
   28      H       5.9750250000    -1.8853710000    -2.5418750000
   29      H       8.2935410000    -2.8122430000    -2.4740430000
   30      H       9.7653120000    -2.3128180000    -0.5311500000
   31      H       8.9095590000    -0.8954650000     1.3213580000
 ----------------------------------------------------------------

    8    -951.2722803668      9.10e-06  Convergence criterion met
 Total energy in the final basis set =     -951.2722803668

                    Orbital Energies (a.u.)
 --------------------------------------------------------------

 Alpha MOs
 -- Occupied --
-19.1568 -19.0981 -19.0948 -14.3485 -14.3393 -10.2515 -10.2415 -10.2340
-10.2011 -10.2008 -10.1866 -10.1842 -10.1800 -10.1783 -10.1775 -10.1772
-10.1770 -10.1767 -10.1758 -10.1744 -10.1729  -1.0825  -1.0336  -1.0150
 -1.0092  -0.8701  -0.8638  -0.8251  -0.7837  -0.7587  -0.7506  -0.7425
 -0.7005  -0.6673  -0.6323  -0.6174  -0.6043  -0.5859  -0.5716  -0.5469
 -0.5322  -0.5051  -0.4938  -0.4828  -0.4723  -0.4556  -0.4547  -0.4503
 -0.4359  -0.4338  -0.4300  -0.4231  -0.4205  -0.4127  -0.4018  -0.3913
 -0.3836  -0.3818  -0.3610  -0.3591  -0.3567  -0.3533  -0.3474  -0.3423
 -0.2847  -0.2757  -0.2686  -0.2684  -0.2637  -0.2612  -0.2271  -0.2119
 -0.1646

 Beta MOs
 -- Occupied --
-19.1555 -19.0924 -19.0918 -14.3485 -14.3374 -10.2509 -10.2387 -10.2313
-10.2014 -10.2005 -10.1869 -10.1833 -10.1802 -10.1777 -10.1774 -10.1771
-10.1768 -10.1768 -10.1755 -10.1741 -10.1726  -1.0785  -1.0301  -1.0120
 -0.9987  -0.8684  -0.8632  -0.8223  -0.7808  -0.7571  -0.7502  -0.7413
 -0.6940  -0.6635  -0.6305  -0.6157  -0.6031  -0.5847  -0.5696  -0.5453
 -0.5312  -0.5035  -0.4915  -0.4816  -0.4710  -0.4543  -0.4497  -0.4437
 -0.4355  -0.4325  -0.4265  -0.4230  -0.4105  -0.4103  -0.3927  -0.3898
 -0.3817  -0.3738  -0.3600  -0.3559  -0.3538  -0.3465  -0.3421  -0.3371
 -0.2760  -0.2724  -0.2637  -0.2604  -0.2601  -0.2574  -0.2172  -0.2103

          Ground-State Mulliken Net Atomic Charges

     Atom                 Charge (a.u.)    Spin (a.u.)
  --------------------------------------------------------
      1 C                     0.077179       0.078149
      2 C                    -0.280416      -0.021574
      3 C                    -0.418868       0.067412
      4 C                     0.666784      -0.023415
      5 C                     0.178350       0.047905
      6 C                     0.072997      -0.015887
      7 C                    -0.581583       0.167145
      8 C                    -0.085527       0.158013
      9 C                     0.139711       0.020015
     10 C                    -0.467853       0.034837
     11 O                    -0.500848       0.241941
     12 O                    -0.380621       0.094681
     13 O                    -0.266013       0.046921
     14 H                     0.181266      -0.004888
     15 H                     0.206096       0.000880
     16 H                     0.204317      -0.004414
     17 H                     0.180429       0.000929
     18 H                     0.326793      -0.004466
     19 N                    -0.197611      -0.031816
     20 N                     0.055153       0.114602
     21 C                    -0.334977      -0.030771
     22 C                     0.229721       0.034371
     23 C                    -0.180700       0.026612
     24 C                    -0.145547      -0.010917
     25 C                    -0.350472       0.030765
     26 C                    -0.338139      -0.012725
     27 H                     0.193759      -0.001785
     28 H                     0.190588      -0.001726
     29 H                     0.216835       0.000542
     30 H                     0.187303      -0.001892
     31 H                     0.221886       0.000559
  --------------------------------------------------------
  Sum of atomic charges =    -1.000010

                    Cartesian Multipole Moments
 -----------------------------------------------------------------
    Charge (ESU x 10^10)
                -4.8033
    Dipole Moment (Debye)
         X     -14.6453      Y      -4.2943      Z      -0.8362
       Tot      15.2848
    Quadrupole Moments (Debye-Ang)
        XX    -162.8234     XY     -12.8751     YY    -138.5555
        XZ       5.1772     YZ     -11.1115     ZZ    -140.5787

 Total job time:  88.81s(wall), 514.16s(cpu)
        *  Thank you very much for using Q-Chem.  Have a nice day.  *
