 Q-Chem 5.4, Q-Chem, Inc., Pleasanton, CA (2021)
 Q-Chem 5.4.0 for Intel X86 EM64T Linux

User input:
--------------------------------------------------------------
$molecule
-1 2
C                  0.8717700000      1.2266790000     -1.3855040000
C                 -0.5199470000      1.1468940000     -1.8521460000
C                 -1.4257690000      0.4493850000     -1.0824020000
C                 -1.0740420000     -0.2954350000      0.1153470000
C                  0.3105630000     -0.1906910000      0.5981110000
C                  1.1949000000      0.5821350000     -0.1232590000
O                  1.7414610000      1.8379460000     -2.0502980000
O                 -1.9186890000     -0.9945980000      0.7234070000
S                  2.9240770000      0.7951520000      0.4051490000
C                  3.2676920000      2.5789680000      0.3265120000
C                  3.9765080000      3.1034640000     -0.7489890000
C                  2.8782890000      3.3760580000      1.3989310000
C                  3.1937920000      4.7342900000      1.3853600000
C                  4.3020990000      4.4575230000     -0.7456600000
C                  3.9076430000      5.2732330000      0.3158180000
O                  3.8358810000      0.1170770000     -0.5272320000
O                  3.0171250000      0.4644980000      1.8408190000
H                  4.2455980000      2.4538380000     -1.5698630000
H                  2.3504480000      2.9336450000      2.2344780000
H                  4.8542710000      4.8784300000     -1.5788520000
H                  2.8906860000      5.3657420000      2.2134810000
H                  4.1556600000      6.3295350000      0.3082090000
S                 -3.1770080000      0.3148690000     -1.5613980000
C                 -4.1467510000      0.7116470000     -0.0754440000
C                 -4.3667900000      2.0506490000      0.2338080000
C                 -4.7167130000     -0.3107820000      0.6755200000
C                 -5.5262950000      0.0197580000      1.7593650000
C                 -5.1648080000      2.3718600000      1.3313170000
C                 -5.7462910000      1.3574710000      2.0908210000
H                 -3.9309380000      2.8247200000     -0.3853380000
H                 -4.5072620000     -1.3378640000      0.4118350000
H                 -5.9761400000     -0.7686210000      2.3529670000
H                 -5.3386590000      3.4120630000      1.5845620000
H                 -6.3700100000      1.6088280000      2.9423700000
O                 -3.4993880000     -1.0635690000     -1.9571540000
O                 -3.4868990000      1.4056730000     -2.5065430000
C                 -0.7970820000      1.8388260000     -3.1616910000
C                  0.6143660000     -0.9766050000      1.8473750000
H                  0.1566940000      2.1304160000     -3.5986920000
H                 -1.4118010000      2.7304740000     -3.0162720000
H                 -1.3465930000      1.1976080000     -3.8511600000
H                 -0.2406990000     -1.6160330000      2.0610620000
H                  0.7886400000     -0.3147490000      2.6991850000
H                  1.5165410000     -1.5789450000      1.7386010000
$end

$rem
BASIS  =  6-311++G(d,p)
GUI  =  2
JOB_TYPE  =  SP
METHOD  =  B3LYP
SCF_CONVERGENCE  = 8
SOLVENT_METHOD = sm12
$end

$smx
solvent dimethylformamide
charges CM5
$end

--------------------------------------------------------------

             Standard Nuclear Orientation (Angstroms)
    I     Atom           X                Y                Z
 ----------------------------------------------------------------
    1      C       0.8717700000     1.2266790000    -1.3855040000
    2      C      -0.5199470000     1.1468940000    -1.8521460000
    3      C      -1.4257690000     0.4493850000    -1.0824020000
    4      C      -1.0740420000    -0.2954350000     0.1153470000
    5      C       0.3105630000    -0.1906910000     0.5981110000
    6      C       1.1949000000     0.5821350000    -0.1232590000
    7      O       1.7414610000     1.8379460000    -2.0502980000
    8      O      -1.9186890000    -0.9945980000     0.7234070000
    9      S       2.9240770000     0.7951520000     0.4051490000
   10      C       3.2676920000     2.5789680000     0.3265120000
   11      C       3.9765080000     3.1034640000    -0.7489890000
   12      C       2.8782890000     3.3760580000     1.3989310000
   13      C       3.1937920000     4.7342900000     1.3853600000
   14      C       4.3020990000     4.4575230000    -0.7456600000
   15      C       3.9076430000     5.2732330000     0.3158180000
   16      O       3.8358810000     0.1170770000    -0.5272320000
   17      O       3.0171250000     0.4644980000     1.8408190000
   18      H       4.2455980000     2.4538380000    -1.5698630000
   19      H       2.3504480000     2.9336450000     2.2344780000
   20      H       4.8542710000     4.8784300000    -1.5788520000
   21      H       2.8906860000     5.3657420000     2.2134810000
   22      H       4.1556600000     6.3295350000     0.3082090000
   23      S      -3.1770080000     0.3148690000    -1.5613980000
   24      C      -4.1467510000     0.7116470000    -0.0754440000
   25      C      -4.3667900000     2.0506490000     0.2338080000
   26      C      -4.7167130000    -0.3107820000     0.6755200000
   27      C      -5.5262950000     0.0197580000     1.7593650000
   28      C      -5.1648080000     2.3718600000     1.3313170000
   29      C      -5.7462910000     1.3574710000     2.0908210000
   30      H      -3.9309380000     2.8247200000    -0.3853380000
   31      H      -4.5072620000    -1.3378640000     0.4118350000
   32      H      -5.9761400000    -0.7686210000     2.3529670000
   33      H      -5.3386590000     3.4120630000     1.5845620000
   34      H      -6.3700100000     1.6088280000     2.9423700000
   35      O      -3.4993880000    -1.0635690000    -1.9571540000
   36      O      -3.4868990000     1.4056730000    -2.5065430000
   37      C      -0.7970820000     1.8388260000    -3.1616910000
   38      C       0.6143660000    -0.9766050000     1.8473750000
   39      H       0.1566940000     2.1304160000    -3.5986920000
   40      H      -1.4118010000     2.7304740000    -3.0162720000
   41      H      -1.3465930000     1.1976080000    -3.8511600000
   42      H      -0.2406990000    -1.6160330000     2.0610620000
   43      H       0.7886400000    -0.3147490000     2.6991850000
   44      H       1.5165410000    -1.5789450000     1.7386010000
 ----------------------------------------------------------------

   17   -2019.7963537380      5.21e-09  Convergence criterion met
 Total energy in the final basis set =    -2019.8859552861

                    Orbital Energies (a.u.)
 --------------------------------------------------------------

 Alpha MOs
 -- Occupied --
-89.0483 -89.0483 -19.1127 -19.1126 -19.1097 -19.1097 -19.0923 -19.0922
-10.2450 -10.2450 -10.2122 -10.2122 -10.2091 -10.2091 -10.2075 -10.2075
-10.1957 -10.1957 -10.1920 -10.1920 -10.1911 -10.1910 -10.1896 -10.1896
-10.1881 -10.1881 -10.1636 -10.1635  -8.1119  -8.1119  -6.0746  -6.0745
 -6.0737  -6.0736  -6.0730  -6.0730  -1.1047  -1.1046  -1.0244  -1.0221
 -0.9998  -0.9997  -0.8769  -0.8768  -0.8563  -0.8117  -0.7806  -0.7788
 -0.7648  -0.7647  -0.7383  -0.7342  -0.6937  -0.6603  -0.6561  -0.6274
 -0.6241  -0.6240  -0.5960  -0.5739  -0.5700  -0.5456  -0.5363  -0.5209
 -0.5041  -0.4920  -0.4813  -0.4793  -0.4746  -0.4744  -0.4584  -0.4567
 -0.4499  -0.4468  -0.4424  -0.4407  -0.4402  -0.4345  -0.4271  -0.4224
 -0.4108  -0.3981  -0.3960  -0.3957  -0.3868  -0.3834  -0.3801  -0.3797
 -0.3783  -0.3765  -0.3625  -0.3624  -0.3360  -0.3339  -0.3244  -0.3236
 -0.3072  -0.3062  -0.2976  -0.2961  -0.2947  -0.2814  -0.2740  -0.2738
 -0.2708  -0.2673  -0.2578  -0.2452  -0.1793

 Beta MOs
 -- Occupied --
-89.0483 -89.0483 -19.1126 -19.1126 -19.1098 -19.1097 -19.0851 -19.0851
-10.2441 -10.2441 -10.2122 -10.2122 -10.2088 -10.2088 -10.2053 -10.2052
-10.1957 -10.1957 -10.1920 -10.1920 -10.1911 -10.1910 -10.1896 -10.1896
-10.1881 -10.1881 -10.1637 -10.1637  -8.1119  -8.1119  -6.0746  -6.0745
 -6.0737  -6.0736  -6.0730  -6.0730  -1.1046  -1.1045  -1.0126  -1.0101
 -0.9996  -0.9994  -0.8768  -0.8768  -0.8503  -0.8090  -0.7804  -0.7781
 -0.7647  -0.7647  -0.7339  -0.7327  -0.6925  -0.6589  -0.6511  -0.6263
 -0.6240  -0.6239  -0.5955  -0.5728  -0.5661  -0.5452  -0.5354  -0.5192
 -0.5034  -0.4901  -0.4806  -0.4792  -0.4742  -0.4741  -0.4577  -0.4566
 -0.4473  -0.4466  -0.4403  -0.4399  -0.4349  -0.4310  -0.4214  -0.4171
 -0.4081  -0.3966  -0.3925  -0.3894  -0.3813  -0.3813  -0.3793  -0.3785
 -0.3740  -0.3644  -0.3623  -0.3613  -0.3350  -0.3329  -0.3232  -0.3222
 -0.3063  -0.3053  -0.2971  -0.2941  -0.2784  -0.2736  -0.2726  -0.2726
 -0.2629  -0.2629  -0.2525  -0.2399

          Ground-State Mulliken Net Atomic Charges

     Atom                 Charge (a.u.)    Spin (a.u.)
  --------------------------------------------------------
      1 C                    -1.334395      -0.013125
      2 C                     0.302213       0.166925
      3 C                    -0.115685       0.087922
      4 C                    -1.330216      -0.012814
      5 C                     0.295767       0.166336
      6 C                    -0.113024       0.087489
      7 O                    -0.210890       0.268313
      8 O                    -0.210535       0.268509
      9 S                    -0.220959      -0.033512
     10 C                    -1.294587      -0.004653
     11 C                    -0.983840       0.025690
     12 C                     0.209120      -0.007592
     13 C                     0.333600       0.001957
     14 C                     0.328519      -0.003370
     15 C                     0.912034      -0.000235
     16 O                    -0.145973       0.004993
     17 O                    -0.075737      -0.001682
     18 H                     0.170448       0.000523
     19 H                     0.262912       0.000552
     20 H                     0.326974      -0.000137
     21 H                     0.337172       0.000026
     22 H                     0.372940       0.000024
     23 S                    -0.226574      -0.033142
     24 C                    -1.303508      -0.005181
     25 C                     0.208863      -0.007636
     26 C                    -0.975816       0.026011
     27 C                     0.332153      -0.003397
     28 C                     0.335127       0.001980
     29 C                     0.912242      -0.000190
     30 H                     0.262453       0.000551
     31 H                     0.170691       0.000526
     32 H                     0.327212      -0.000136
     33 H                     0.337055       0.000026
     34 H                     0.372924       0.000028
     35 O                    -0.143419       0.004913
     36 O                    -0.076005      -0.001694
     37 C                    -0.231918      -0.004993
     38 C                    -0.228712      -0.004852
     39 H                     0.185612      -0.001391
     40 H                     0.207257       0.008532
     41 H                     0.163140       0.005422
     42 H                     0.185683      -0.001464
     43 H                     0.206689       0.008474
     44 H                     0.162993       0.005475
  --------------------------------------------------------
  Sum of atomic charges =    -1.000000

                    Cartesian Multipole Moments
 -----------------------------------------------------------------
    Charge (ESU x 10^10)
                -4.8032
    Dipole Moment (Debye)
         X      -0.8957      Y       2.5553      Z       6.1493
       Tot       6.7191
    Quadrupole Moments (Debye-Ang)
        XX    -228.3953     XY      -0.7725     YY    -170.8755
        XZ     -26.4221     YZ       8.2651     ZZ    -199.7181

 Total job time:  2754.21s(wall), 19777.98s(cpu)
        *  Thank you very much for using Q-Chem.  Have a nice day.  *
