 Q-Chem 5.4, Q-Chem, Inc., Pleasanton, CA (2021)
 Q-Chem 5.4.0 for Intel X86 EM64T Linux

User input:
--------------------------------------------------------------
$molecule
-2 1
C                 -1.8103790000      0.3083630000     -1.0848730000
C                 -1.1687970000      0.1327230000      0.3138680000
C                 -1.8749650000     -1.0492840000      1.0067000000
C                 -1.4408580000      1.4023570000      1.1582770000
C                  0.3553020000     -0.0695580000      0.1616190000
C                  0.9755230000     -1.2277550000      0.6261480000
C                  2.3756260000     -1.5403020000      0.5484240000
O                  2.8717960000     -2.6366990000      1.0025690000
C                  3.1089700000     -0.4894870000     -0.0862770000
C                  2.5083240000      0.6917520000     -0.5651830000
Br                 3.5749080000      2.0877770000     -1.4220530000
C                  1.1126860000      0.9895350000     -0.4805550000
O                  0.5797320000      2.0821010000     -0.9259110000
Br                 5.0314150000     -0.8060730000     -0.2498280000
H                 -2.8881020000      0.5198350000     -0.9981190000
H                 -1.6881620000     -0.6089630000     -1.6726490000
H                 -1.3123500000      1.1317640000     -1.6012960000
H                 -1.7500450000     -1.9811250000      0.4464180000
H                 -2.9506320000     -0.8375930000      1.0799560000
H                 -1.4919970000     -1.2137910000      2.0186920000
H                 -1.0542090000      1.2676870000      2.1752460000
H                 -2.5218200000      1.6043910000      1.2255490000
H                 -0.9345540000      2.2512020000      0.6937550000
H                  0.3925890000     -2.0088570000      1.1038360000
$end
$rem
MAX_SCF_CYCLES=200
BASIS  =  6-311++G(d,p)
GUI  =  2
JOB_TYPE  =  SP
METHOD  =  B3LYP
SOLVENT_METHOD = COSMO
$end
$solvent
dielectric 37.219
opticaldielectric 1.43
$end

--------------------------------------------------------------

             Standard Nuclear Orientation (Angstroms)
    I     Atom           X                Y                Z
 ----------------------------------------------------------------
    1      C      -3.8086985156    -0.5882715166     1.2613591491
    2      C      -3.3801017171     0.2023882498     0.0003614586
    3      C      -4.1513081628     1.5369555732     0.0011675809
    4      C      -3.8088349066    -0.5867712402    -1.2615535118
    5      C      -1.8456812549     0.3827460955     0.0002371037
    6      C      -1.2723291624     1.6528437747    -0.0006765403
    7      C       0.1312214284     1.9595369268    -0.0010045876
    8      O       0.5819231181     3.1642720020    -0.0013466080
    9      C       0.9239703461     0.7694109468    -0.0005033443
   10      C       0.3715240398    -0.5268353854     0.0003177490
   11      Br      1.5180010961    -2.1099662298    -0.0004003586
   12      C      -1.0282663464    -0.8170575631     0.0002650089
   13      O      -1.5165424889    -2.0160857658    -0.0001531266
   14      Br      2.8567545549     1.0645620665     0.0006889304
   15      H      -4.8923615044    -0.7864787686     1.2503165087
   16      H      -3.5757672131    -0.0115599962     2.1641611441
   17      H      -3.2603600925    -1.5323176925     1.2899353290
   18      H      -3.9194567105     2.1387530774     0.8854374737
   19      H      -5.2309177716     1.3327943716     0.0017263066
   20      H      -3.9205124251     2.1392879010    -0.8830178886
   21      H      -3.5759250506    -0.0089965775    -2.1636559689
   22      H      -4.8925276857    -0.7850499102    -1.2507075867
   23      H      -3.2607746660    -1.5309128167    -1.2913682565
   24      H      -1.8998641914     2.5384610680    -0.0007495989
 ----------------------------------------------------------------

   11   -5685.9471095215      4.13e-06  Convergence criterion met
 Total energy in the final basis set =    -5685.9471095215
    6   -5686.2212232291      4.64e-06  Convergence criterion met
 Total energy in the final basis set =    -5686.2212232291

                    Orbital Energies (a.u.)
 --------------------------------------------------------------

 Alpha MOs
 -- Occupied --
********-482.8068 -62.4602 -62.4596 -56.2805 -56.2799 -56.2771 -56.2768
-56.2765 -56.2762 -19.0304 -19.0227 -10.1906 -10.1898 -10.1892 -10.1877
-10.1669 -10.1451 -10.1404 -10.1333 -10.1333 -10.1318  -8.6689  -8.6683
 -6.4995  -6.4989  -6.4882  -6.4877  -6.4873  -6.4867  -2.6105  -2.6099
 -2.6075  -2.6070  -2.6068  -2.6062  -2.5979  -2.5978  -2.5972  -2.5972
 -0.9489  -0.9415  -0.8208  -0.8019  -0.7645  -0.7530  -0.6797  -0.6679
 -0.6621  -0.6533  -0.5716  -0.5410  -0.5031  -0.4589  -0.4452  -0.4181
 -0.4168  -0.4077  -0.3924  -0.3893  -0.3728  -0.3664  -0.3633  -0.3484
 -0.3480  -0.3346  -0.3270  -0.3135  -0.3130  -0.3035  -0.2978  -0.2848
 -0.2798  -0.2570  -0.2348  -0.2123  -0.2119  -0.2006  -0.1326

          Ground-State Mulliken Net Atomic Charges

     Atom                 Charge (a.u.)
  ----------------------------------------
      1 C                    -0.698939
      2 C                     0.684456
      3 C                    -0.518343
      4 C                    -0.699192
      5 C                     1.100363
      6 C                    -0.530077
      7 C                    -0.771802
      8 O                    -0.686478
      9 C                     0.685008
     10 C                    -0.280979
     11 Br                   -0.259139
     12 C                    -0.683703
     13 O                    -0.606398
     14 Br                   -0.247190
     15 H                     0.142682
     16 H                     0.127263
     17 H                     0.182057
     18 H                     0.133188
     19 H                     0.169681
     20 H                     0.133221
     21 H                     0.127314
     22 H                     0.142646
     23 H                     0.182016
     24 H                     0.172344
  ----------------------------------------
  Sum of atomic charges =    -2.000000

                    Cartesian Multipole Moments
 -----------------------------------------------------------------
    Charge (ESU x 10^10)
                -9.6064
    Dipole Moment (Debye)
         X      -1.1667      Y      -3.8790      Z       0.0025
       Tot       4.0507
    Quadrupole Moments (Debye-Ang)
        XX    -140.9439     XY     -17.8085     YY    -177.3375
        XZ       0.0046     YZ       0.0140     ZZ    -120.0039

 Total job time:  66.46s(wall), 505.81s(cpu)
        *  Thank you very much for using Q-Chem.  Have a nice day.  *
