 Gaussian 16, Revision A.03,
 Gaussian 16:  ES64L-G16RevA.03 25-Dec-2016

 ----------------------------------------------------------------------
 #P UB3LYP/6-311++G(d,p) nosym opt freq SCRF=(PCM,Solvent=n,n-DiMethylF
 ormamide)
 ----------------------------------------------------------------------

 -------
 Reduced
 -------
 Symbolic Z-matrix:
 Charge = -2 Multiplicity = 1

 SCF Done:  E(UB3LYP) =  -610.931005616     A.U. after   17 cycles
 SCF Done:  E(UB3LYP) =  -610.932341754     A.U. after   14 cycles
 SCF Done:  E(UB3LYP) =  -610.932726011     A.U. after   14 cycles
 SCF Done:  E(UB3LYP) =  -610.932785139     A.U. after   12 cycles
 SCF Done:  E(UB3LYP) =  -610.932795117     A.U. after   12 cycles
 SCF Done:  E(UB3LYP) =  -610.932798523     A.U. after   11 cycles
 SCF Done:  E(UB3LYP) =  -610.932800404     A.U. after   11 cycles
 SCF Done:  E(UB3LYP) =  -610.932800665     A.U. after    9 cycles
 SCF Done:  E(UB3LYP) =  -610.932800746     A.U. after    9 cycles
 SCF Done:  E(UB3LYP) =  -610.932800776     A.U. after   10 cycles
 Optimization completed.
    -- Stationary point found.
 Normal termination of Gaussian 16 at Sat Feb 10 12:31:13 2024.

 ----------------------------------------------------------------------
 #P Geom=AllCheck Guess=TCheck SCRF=Check GenChk UB3LYP/6-311++G(d,p) F
 req
 ----------------------------------------------------------------------

 Structure from the checkpoint file:  "084-an.chk"
 -------
 Reduced
 -------
 Charge = -2 Multiplicity = 1

                          Input orientation:
 ---------------------------------------------------------------------
 Center     Atomic      Atomic             Coordinates (Angstroms)
 Number     Number       Type             X           Y           Z
 ---------------------------------------------------------------------
      1          6           0        2.764633   -0.315113    0.336681
      2          8           0        1.593400    0.287251    0.884146
      3          6           0        0.407278   -0.329994    0.479547
      4          6           0       -0.395803    0.339727   -0.459217
      5          8           0        0.098109    1.523735   -1.013481
      6          6           0       -0.565351    2.698310   -0.549402
      7          6           0       -1.657304   -0.167496   -0.908852
      8          8           0       -2.400898    0.454011   -1.798058
      9          6           0       -2.012591   -1.405831   -0.314377
     10          6           0       -1.206785   -2.078450    0.614244
     11          6           0        0.041756   -1.582214    1.070277
     12          8           0        0.793479   -2.197260    1.957369
     13          1           0        2.793649   -0.190767   -0.753296
     14          1           0        3.625244    0.194646    0.776004
     15          1           0        2.803174   -1.378616    0.586895
     16          1           0       -0.145526    3.543332   -1.099956
     17          1           0       -0.388637    2.848110    0.523393
     18          1           0       -1.639837    2.634200   -0.739900
     19          1           0       -2.959355   -1.850246   -0.617421
     20          1           0       -1.548636   -3.027335    1.025405
 ---------------------------------------------------------------------

 SCF Done:  E(UB3LYP) =  -610.932800776     A.U. after    1 cycles

 Alpha  occ. eigenvalues --  -19.10965 -19.10938 -19.00962 -19.00957 -10.19310
 Alpha  occ. eigenvalues --  -10.19297 -10.17263 -10.17206 -10.16438 -10.16435
 Alpha  occ. eigenvalues --  -10.11864 -10.11812  -1.02734  -1.00898  -0.91312
 Alpha  occ. eigenvalues --   -0.91001  -0.77549  -0.71035  -0.68330  -0.64046
 Alpha  occ. eigenvalues --   -0.63536  -0.55231  -0.53456  -0.47588  -0.46384
 Alpha  occ. eigenvalues --   -0.44393  -0.44287  -0.42516  -0.42075  -0.40279
 Alpha  occ. eigenvalues --   -0.39818  -0.35722  -0.34849  -0.34079  -0.33350
 Alpha  occ. eigenvalues --   -0.32314  -0.31542  -0.30047  -0.25352  -0.25279
 Alpha  occ. eigenvalues --   -0.21705  -0.19760  -0.19122  -0.18853  -0.11682
 Alpha virt. eigenvalues --    0.00143   0.01350   0.01433   0.02591   0.03134
 Alpha virt. eigenvalues --    0.03644   0.03935   0.04301   0.05311   0.05730
 Alpha virt. eigenvalues --    0.06560   0.07920   0.08163   0.08262   0.08291

  Beta  occ. eigenvalues --  -19.10965 -19.10938 -19.00962 -19.00957 -10.19310
  Beta  occ. eigenvalues --  -10.19297 -10.17263 -10.17206 -10.16438 -10.16435
  Beta  occ. eigenvalues --  -10.11864 -10.11812  -1.02734  -1.00898  -0.91312
  Beta  occ. eigenvalues --   -0.91001  -0.77549  -0.71035  -0.68330  -0.64046
  Beta  occ. eigenvalues --   -0.63536  -0.55231  -0.53456  -0.47588  -0.46384
  Beta  occ. eigenvalues --   -0.44393  -0.44287  -0.42516  -0.42075  -0.40279
  Beta  occ. eigenvalues --   -0.39818  -0.35722  -0.34849  -0.34079  -0.33350
  Beta  occ. eigenvalues --   -0.32314  -0.31542  -0.30047  -0.25352  -0.25279
  Beta  occ. eigenvalues --   -0.21705  -0.19760  -0.19122  -0.18853  -0.11682
  Beta virt. eigenvalues --    0.00143   0.01350   0.01433   0.02591   0.03134
  Beta virt. eigenvalues --    0.03644   0.03935   0.04301   0.05311   0.05730
  Beta virt. eigenvalues --    0.06560   0.07920   0.08163   0.08262   0.08291

 Mulliken charges and spin densities:
               1          2
     1  C   -0.254947  -0.000000
     2  O   -0.211981   0.000000
     3  C   -0.024237  -0.000000
     4  C   -0.053966   0.000000
     5  O   -0.215071  -0.000000
     6  C   -0.252246   0.000000
     7  C   -0.340099  -0.000000
     8  O   -0.753835   0.000000
     9  C    0.021901  -0.000000
    10  C    0.020506   0.000000
    11  C   -0.307403   0.000000
    12  O   -0.755149   0.000000
    13  H    0.134561   0.000000
    14  H    0.136001  -0.000000
    15  H    0.161096   0.000000
    16  H    0.136000   0.000000
    17  H    0.131896  -0.000000
    18  H    0.163779  -0.000000
    19  H    0.131554  -0.000000
    20  H    0.131640   0.000000
 Sum of Mulliken charges =  -2.00000   0.00000

 Dipole moment (field-independent basis, Debye):
    X=              6.5218    Y=              7.1276    Z=             -0.7252  Tot=              9.6883
 Quadrupole moment (field-independent basis, Debye-Ang):
   XX=           -103.6119   YY=            -98.8657   ZZ=           -112.2670
   XY=              5.8104   XZ=            -24.2763   YZ=             21.1395

  Exact polarizability: 200.110   7.199 195.112  38.262 -38.480 169.172
 Approx polarizability: 212.819   9.078 207.333  42.673 -42.368 184.441

                      1                      2                      3
                      A                      A                      A
 Frequencies --     62.1305                85.0418               103.7470
 Red. masses --      3.0299                 3.1784                 4.2336
 Frc consts  --      0.0069                 0.0135                 0.0268
 IR Inten    --     14.8370                13.7768                 7.5507

                      4                      5                      6
                      A                      A                      A
 Frequencies --    139.1632               164.7769               172.0437
 Red. masses --      4.8658                 3.3861                 1.1164
 Frc consts  --      0.0555                 0.0542                 0.0195
 IR Inten    --     25.5697                 4.5901                 0.4738

                      7                      8                      9
                      A                      A                      A
 Frequencies --    188.3801               261.9656               331.8237
 Red. masses --      1.0833                 4.2198                 8.1832
 Frc consts  --      0.0226                 0.1706                 0.5309
 IR Inten    --      1.5296                17.8183                 1.6455

                     10                     11                     12
                      A                      A                      A
 Frequencies --    338.9429               361.4515               378.7320
 Red. masses --      8.6996                10.0135                 6.2111
 Frc consts  --      0.5888                 0.7708                 0.5249
 IR Inten    --      0.9916                 2.0686                 0.4773

                     13                     14                     15
                      A                      A                      A
 Frequencies --    408.9752               480.3658               504.0245
 Red. masses --      5.5090                11.7406                 4.8968
 Frc consts  --      0.5429                 1.5962                 0.7329
 IR Inten    --     11.5774                 0.2320                 0.0853

                     16                     17                     18
                      A                      A                      A
 Frequencies --    568.5210               636.4931               660.1061
 Red. masses --      4.4452                 4.1294                 6.2647
 Frc consts  --      0.8465                 0.9857                 1.6083
 IR Inten    --      0.4921                 2.2686                17.7457

                     19                     20                     21
                      A                      A                      A
 Frequencies --    671.1522               757.7615               773.8566
 Red. masses --      2.5685                 7.4134                 8.2422
 Frc consts  --      0.6817                 2.5080                 2.9081
 IR Inten    --     17.8084               122.6663                 3.1201

                     22                     23                     24
                      A                      A                      A
 Frequencies --    798.3051               876.3789               932.1338
 Red. masses --      2.2718                 1.3144                 7.3316
 Frc consts  --      0.8530                 0.5948                 3.7532
 IR Inten    --     80.2109                 0.6261               251.6024

                     25                     26                     27
                      A                      A                      A
 Frequencies --    987.0320              1054.4872              1068.0812
 Red. masses --      5.1636                 7.3643                 2.9778
 Frc consts  --      2.9639                 4.8246                 2.0015
 IR Inten    --     21.9883               305.8300               190.0959

                     28                     29                     30
                      A                      A                      A
 Frequencies --   1150.4560              1153.9055              1157.5785
 Red. masses --      1.7893                 1.5896                 1.3218
 Frc consts  --      1.3953                 1.2470                 1.0435
 IR Inten    --    174.3616               117.6221                11.1685

                     31                     32                     33
                      A                      A                      A
 Frequencies --   1165.1045              1193.7081              1214.1476
 Red. masses --      1.8626                 4.0283                 1.7475
 Frc consts  --      1.4897                 3.3820                 1.5178
 IR Inten    --     69.2558               167.6256               122.3507

                     34                     35                     36
                      A                      A                      A
 Frequencies --   1216.1534              1281.8001              1324.9330
 Red. masses --      1.6801                 3.0546                 6.9383
 Frc consts  --      1.4641                 2.9570                 7.1761
 IR Inten    --     55.3416               867.4636                69.6312

                     37                     38                     39
                      A                      A                      A
 Frequencies --   1417.5606              1424.7644              1446.8841
 Red. masses --      2.9555                 3.5527                 1.2440
 Frc consts  --      3.4992                 4.2491                 1.5345
 IR Inten    --     29.9432              1212.2238               101.8764

                     40                     41                     42
                      A                      A                      A
 Frequencies --   1456.5581              1472.1168              1474.4961
 Red. masses --      1.3776                 1.0911                 1.1031
 Frc consts  --      1.7220                 1.3931                 1.4130
 IR Inten    --      4.1205                 7.2412                 7.6486

                     43                     44                     45
                      A                      A                      A
 Frequencies --   1497.6908              1498.0911              1504.7118
 Red. masses --      1.0508                 1.0498                 4.2547
 Frc consts  --      1.3887                 1.3882                 5.6758
 IR Inten    --     15.2642                16.9454                96.2081

                     46                     47                     48
                      A                      A                      A
 Frequencies --   1602.5901              2986.8702              2987.6363
 Red. masses --      7.7624                 1.0394                 1.0387
 Frc consts  --     11.7460                 5.4635                 5.4626
 IR Inten    --      7.5075               171.5870               107.7938

                     49                     50                     51
                      A                      A                      A
 Frequencies --   3058.9943              3060.8730              3093.8481
 Red. masses --      1.0933                 1.0913                 1.1051
 Frc consts  --      6.0274                 6.0240                 6.2321
 IR Inten    --     78.8678                66.9350                55.9682

                     52                     53                     54
                      A                      A                      A
 Frequencies --   3094.7252              3098.2817              3121.2407
 Red. masses --      1.1051                 1.0842                 1.0921
 Frc consts  --      6.2356                 6.1320                 6.2687
 IR Inten    --     66.0006                79.7458               101.3192

 - Thermochemistry -
 -------------------
 Temperature   298.150 Kelvin.  Pressure   1.00000 Atm.
 Atom     1 has atomic number  6 and mass  12.00000

 Molecular mass:   168.04226 amu.
 Principal axes and moments of inertia in atomic units:
                           1         2         3
     Eigenvalues --  1421.438881995.881723152.70332
           X            0.62959   0.68258  -0.37107
           Y           -0.54552   0.72846   0.41442
           Z            0.55319  -0.05849   0.83100
 This molecule is an asymmetric top.
 Rotational symmetry number  1.
 Warning -- assumption of classical behavior for rotation
           may cause significant error
 Rotational temperatures (Kelvin)      0.06093     0.04340     0.02747
 Rotational constants (GHZ):           1.26966     0.90423     0.57244
 Zero-point vibrational energy     382336.0 (Joules/Mol)
                                   91.38050 (Kcal/Mol)
 Warning -- explicit consideration of  16 degrees of freedom as
           vibrations may cause significant error
 Vibrational temperatures:     89.39   122.36   149.27   200.22   237.08
          (Kelvin)            247.53   271.04   376.91   477.42   487.66
                              520.05   544.91   588.42   691.14   725.18
                              817.97   915.77   949.75   965.64  1090.25
                             1113.41  1148.58  1260.91  1341.13  1420.12
                             1517.17  1536.73  1655.25  1660.21  1665.50
                             1676.33  1717.48  1746.89  1749.77  1844.22
                             1906.28  2039.55  2049.92  2081.74  2095.66
                             2118.05  2121.47  2154.84  2155.42  2164.94
                             2305.77  4297.44  4298.54  4401.21  4403.91
                             4451.36  4452.62  4457.74  4490.77

 Zero-point correction=                           0.145624 (Hartree/Particle)
 Thermal correction to Energy=                    0.157128
 Thermal correction to Enthalpy=                  0.158072
 Thermal correction to Gibbs Free Energy=         0.108082
 Sum of electronic and zero-point Energies=           -610.787177
 Sum of electronic and thermal Energies=              -610.775673
 Sum of electronic and thermal Enthalpies=            -610.774729
 Sum of electronic and thermal Free Energies=         -610.824719

                     E (Thermal)             CV                S
                      KCal/Mol        Cal/Mol-Kelvin    Cal/Mol-Kelvin
 Total                   98.599             41.957            105.213
 Electronic               0.000              0.000              0.000
 Translational            0.889              2.981             41.265
 Rotational               0.889              2.981             30.571
 Vibrational             96.822             35.995             33.377
 Vibration     1          0.597              1.972              4.388
 Vibration     2          0.601              1.960              3.771
 Vibration     3          0.605              1.946              3.383
 Vibration     4          0.615              1.914              2.815
 Vibration     5          0.623              1.886              2.494
 Vibration     6          0.626              1.877              2.413
 Vibration     7          0.633              1.856              2.244
 Vibration     8          0.669              1.742              1.649
 Vibration     9          0.714              1.612              1.251
 Vibration    10          0.719              1.598              1.217
 Vibration    11          0.736              1.552              1.116
 Vibration    12          0.749              1.515              1.044
 Vibration    13          0.773              1.451              0.930
 Vibration    14          0.837              1.294              0.709
 Vibration    15          0.859              1.241              0.648
 Vibration    16          0.925              1.099              0.507

 Optimization completed.
    -- Stationary point found.
 Normal termination of Gaussian 16 at Sat Feb 10 12:46:33 2024.
