 Q-Chem 5.4, Q-Chem, Inc., Pleasanton, CA (2021)
 Q-Chem 5.4.0 for Intel X86 EM64T Linux

User input:
--------------------------------------------------------------
$molecule
-1 2
C                  1.1984260000      4.2487950000      5.3430360000
C                  1.4567570000      4.0030820000      3.9374910000
C                  0.9755860000      2.9123800000      3.2861320000
C                  0.1608760000      1.9022530000      3.9385210000
C                 -0.0875850000      2.1342340000      5.3564710000
C                  0.4007750000      3.2391910000      6.0321680000
O                  1.6299790000      5.2692360000      5.9359020000
O                 -0.3043540000      0.9233970000      3.3085790000
H                  2.0572540000      4.7495740000      3.4263930000
H                  1.1728370000      2.7457690000      2.2315530000
S                 -1.0857910000      0.8926350000      6.2053020000
C                  0.2338510000      3.5102970000      7.5028350000
O                  1.0108020000      3.1658090000      8.3562440000
O                 -0.8490080000      4.2822440000      7.7420170000
C                 -1.0707190000      4.6046760000      9.1194620000
H                 -1.9622550000      5.2307430000      9.1344630000
H                 -0.2166120000      5.1472270000      9.5297200000
H                 -1.2324090000      3.6928430000      9.6979490000
C                 -2.6804680000      0.8885330000      5.3371590000
C                 -2.9116430000     -0.0254480000      4.3133100000
C                 -3.6626990000      1.7865980000      5.7485500000
C                 -4.1595870000     -0.0386070000      3.6929950000
C                 -4.9041350000      1.7702650000      5.1151640000
C                 -5.1528300000      0.8569750000      4.0902180000
O                 -0.4983430000     -0.4450680000      6.0651840000
O                 -1.3778810000      1.4026610000      7.5586170000
H                 -2.1150560000     -0.6897120000      4.0096210000
H                 -3.4511190000      2.4761250000      6.5563720000
H                 -4.3524820000     -0.7446670000      2.8925090000
H                 -5.6762980000      2.4659030000      5.4258020000
H                 -6.1204470000      0.8452850000      3.5990190000
$end
$rem
MAX_SCF_CYCLES=200
BASIS  =  6-311++G(d,p)
GUI  =  2
JOB_TYPE  =  SP
METHOD  =  B3LYP
SOLVENT_METHOD = PCM
$end
$pcm
theory = CPCM
$end
$solvent
dielectric 37.219
opticaldielectric 1.43
$end

--------------------------------------------------------------

             Standard Nuclear Orientation (Angstroms)
    I     Atom           X                Y                Z
 ----------------------------------------------------------------
    1      C       1.1984260000     4.2487950000     5.3430360000
    2      C       1.4567570000     4.0030820000     3.9374910000
    3      C       0.9755860000     2.9123800000     3.2861320000
    4      C       0.1608760000     1.9022530000     3.9385210000
    5      C      -0.0875850000     2.1342340000     5.3564710000
    6      C       0.4007750000     3.2391910000     6.0321680000
    7      O       1.6299790000     5.2692360000     5.9359020000
    8      O      -0.3043540000     0.9233970000     3.3085790000
    9      H       2.0572540000     4.7495740000     3.4263930000
   10      H       1.1728370000     2.7457690000     2.2315530000
   11      S      -1.0857910000     0.8926350000     6.2053020000
   12      C       0.2338510000     3.5102970000     7.5028350000
   13      O       1.0108020000     3.1658090000     8.3562440000
   14      O      -0.8490080000     4.2822440000     7.7420170000
   15      C      -1.0707190000     4.6046760000     9.1194620000
   16      H      -1.9622550000     5.2307430000     9.1344630000
   17      H      -0.2166120000     5.1472270000     9.5297200000
   18      H      -1.2324090000     3.6928430000     9.6979490000
   19      C      -2.6804680000     0.8885330000     5.3371590000
   20      C      -2.9116430000    -0.0254480000     4.3133100000
   21      C      -3.6626990000     1.7865980000     5.7485500000
   22      C      -4.1595870000    -0.0386070000     3.6929950000
   23      C      -4.9041350000     1.7702650000     5.1151640000
   24      C      -5.1528300000     0.8569750000     4.0902180000
   25      O      -0.4983430000    -0.4450680000     6.0651840000
   26      O      -1.3778810000     1.4026610000     7.5586170000
   27      H      -2.1150560000    -0.6897120000     4.0096210000
   28      H      -3.4511190000     2.4761250000     6.5563720000
   29      H      -4.3524820000    -0.7446670000     2.8925090000
   30      H      -5.6762980000     2.4659030000     5.4258020000
   31      H      -6.1204470000     0.8452850000     3.5990190000
 ----------------------------------------------------------------

    8   -1389.4283713534      8.99e-06  Convergence criterion met
 Total energy in the final basis set =    -1389.4283713534

                    Orbital Energies (a.u.)
 --------------------------------------------------------------

 Alpha MOs
 -- Occupied --
-89.0589 -19.1745 -19.1260 -19.1259 -19.1236 -19.0993 -19.0979 -10.3196
-10.2499 -10.2467 -10.2188 -10.2183 -10.2135 -10.2131 -10.1939 -10.1914
-10.1885 -10.1866 -10.1859 -10.1833 -10.1824  -8.1226  -6.0855  -6.0843
 -6.0836  -1.1215  -1.1167  -1.0355  -1.0266  -1.0239  -1.0145  -0.8772
 -0.8565  -0.7928  -0.7790  -0.7633  -0.7464  -0.7113  -0.6807  -0.6382
 -0.6226  -0.6182  -0.5819  -0.5696  -0.5432  -0.5291  -0.5085  -0.5066
 -0.4927  -0.4877  -0.4842  -0.4732  -0.4654  -0.4549  -0.4543  -0.4402
 -0.4354  -0.4314  -0.4236  -0.4114  -0.4001  -0.3965  -0.3917  -0.3843
 -0.3802  -0.3663  -0.3596  -0.3510  -0.3377  -0.3258  -0.3137  -0.3117
 -0.3088  -0.2993  -0.2860  -0.2737  -0.2715  -0.2646  -0.2544  -0.1864

 Beta MOs
 -- Occupied --
-89.0589 -19.1745 -19.1259 -19.1257 -19.1236 -19.0923 -19.0918 -10.3198
-10.2489 -10.2455 -10.2183 -10.2174 -10.2131 -10.2109 -10.1938 -10.1913
-10.1885 -10.1866 -10.1859 -10.1828 -10.1816  -8.1227  -6.0856  -6.0844
 -6.0836  -1.1213  -1.1165  -1.0350  -1.0171  -1.0135  -1.0114  -0.8771
 -0.8501  -0.7908  -0.7776  -0.7632  -0.7436  -0.7064  -0.6766  -0.6356
 -0.6225  -0.6161  -0.5803  -0.5683  -0.5422  -0.5273  -0.5064  -0.5047
 -0.4917  -0.4874  -0.4838  -0.4725  -0.4635  -0.4545  -0.4539  -0.4383
 -0.4328  -0.4218  -0.4131  -0.4084  -0.3950  -0.3902  -0.3865  -0.3801
 -0.3692  -0.3656  -0.3595  -0.3500  -0.3368  -0.3242  -0.3115  -0.3079
 -0.3059  -0.2835  -0.2748  -0.2686  -0.2676  -0.2588  -0.2496

          Ground-State Mulliken Net Atomic Charges

     Atom                 Charge (a.u.)    Spin (a.u.)
  --------------------------------------------------------
      1 C                    -0.282388       0.082121
      2 C                    -0.210779       0.042657
      3 C                     0.143318       0.049479
      4 C                    -0.250734       0.047401
      5 C                    -0.112861       0.129859
      6 C                     0.619816       0.178720
      7 O                    -0.429900       0.264598
      8 O                    -0.389243       0.229905
      9 H                     0.224384      -0.004333
     10 H                     0.232180      -0.005632
     11 S                     0.350643      -0.032399
     12 C                    -0.635556      -0.017651
     13 O                    -0.205379       0.006284
     14 O                     0.038239      -0.000104
     15 C                    -0.252855       0.001683
     16 H                     0.175013       0.000523
     17 H                     0.184046      -0.000298
     18 H                     0.188535      -0.000058
     19 C                     0.464748      -0.004856
     20 C                    -0.080894       0.023634
     21 C                    -0.252985       0.002426
     22 C                    -0.455983      -0.002965
     23 C                    -0.475592       0.000829
     24 C                    -0.353862       0.002444
     25 O                    -0.178724       0.007543
     26 O                    -0.197944      -0.002260
     27 H                     0.271558      -0.000234
     28 H                     0.201381       0.000772
     29 H                     0.228604       0.000070
     30 H                     0.236577       0.000051
     31 H                     0.206638      -0.000207
  --------------------------------------------------------
  Sum of atomic charges =    -1.000000

                    Cartesian Multipole Moments
 -----------------------------------------------------------------
    Charge (ESU x 10^10)
                -4.8032
    Dipole Moment (Debye)
         X      -6.0679      Y      -9.4290      Z     -30.0571
       Tot      32.0805
    Quadrupole Moments (Debye-Ang)
        XX    -118.8615     XY     -25.7252     YY    -178.6537
        XZ     -38.4290     YZ     -57.2732     ZZ    -326.6089

 Total job time:  84.73s(wall), 573.78s(cpu)
        *  Thank you very much for using Q-Chem.  Have a nice day.  *
