 Gaussian 16, Revision A.03,
 Gaussian 16:  ES64L-G16RevA.03 25-Dec-2016

 ----------------------------------------------------------------------
 #P UB3LYP/6-311++G(d,p) nosym opt freq SCRF=(PCM,Solvent=n,n-DiMethylF
 ormamide)
 ----------------------------------------------------------------------

 --------
 Oxidized
 --------
 Symbolic Z-matrix:
 Charge =  0 Multiplicity = 1

 SCF Done:  E(UB3LYP) =  -573.586297971     A.U. after   15 cycles
 SCF Done:  E(UB3LYP) =  -573.586570857     A.U. after   13 cycles
 SCF Done:  E(UB3LYP) =  -573.586513028     A.U. after   13 cycles
 SCF Done:  E(UB3LYP) =  -573.586701887     A.U. after   12 cycles
 SCF Done:  E(UB3LYP) =  -573.586801518     A.U. after   12 cycles
 SCF Done:  E(UB3LYP) =  -573.586833805     A.U. after   12 cycles
 SCF Done:  E(UB3LYP) =  -573.586866562     A.U. after   11 cycles
 SCF Done:  E(UB3LYP) =  -573.586880481     A.U. after   11 cycles
 SCF Done:  E(UB3LYP) =  -573.586898664     A.U. after   11 cycles
 SCF Done:  E(UB3LYP) =  -573.586907587     A.U. after   10 cycles
 SCF Done:  E(UB3LYP) =  -573.586910165     A.U. after   10 cycles
 SCF Done:  E(UB3LYP) =  -573.586910289     A.U. after    9 cycles
 SCF Done:  E(UB3LYP) =  -573.586910283     A.U. after    8 cycles
 Optimization completed.
    -- Stationary point found.
 Normal termination of Gaussian 16 at Sat Feb 10 10:42:19 2024.

 ----------------------------------------------------------------------
 #P Geom=AllCheck Guess=TCheck SCRF=Check GenChk UB3LYP/6-311++G(d,p) F
 req
 ----------------------------------------------------------------------

 Structure from the checkpoint file:  "057.chk"
 --------
 Oxidized
 --------
 Charge =  0 Multiplicity = 1

                          Input orientation:
 ---------------------------------------------------------------------
 Center     Atomic      Atomic             Coordinates (Angstroms)
 Number     Number       Type             X           Y           Z
 ---------------------------------------------------------------------
      1          6           0       -0.232095    1.027117    0.019469
      2          6           0       -1.421730    0.223639   -0.336214
      3          6           0       -1.354829   -1.110402   -0.393118
      4          6           0       -0.092829   -1.827953   -0.103891
      5          6           0        1.130326   -1.032836    0.254671
      6          6           0        1.039266    0.312944    0.316030
      7          8           0       -0.287006    2.250521    0.056535
      8          8           0       -0.047232   -3.048264   -0.156333
      9          6           0        2.223292    1.201121    0.655005
     10          6           0        2.254311    1.797023    2.034157
     11          8           0        3.091298    1.388481   -0.174032
     12          1           0       -2.330053    0.775632   -0.548524
     13          1           0       -2.207211   -1.727513   -0.652564
     14          1           0        2.303078    0.992168    2.775192
     15          1           0        1.330691    2.349983    2.222616
     16          1           0        3.116503    2.454011    2.143719
     17          6           0        2.370787   -1.824985    0.532886
     18          1           0        2.656824   -2.397122   -0.354180
     19          1           0        2.181765   -2.552533    1.326371
     20          1           0        3.208232   -1.192790    0.821286
 ---------------------------------------------------------------------

 SCF Done:  E(UB3LYP) =  -573.586910283     A.U. after    2 cycles

 Alpha  occ. eigenvalues --  -19.15050 -19.15026 -19.14327 -10.29769 -10.29451
 Alpha  occ. eigenvalues --  -10.29351 -10.23357 -10.22285 -10.21848 -10.21764
 Alpha  occ. eigenvalues --  -10.18421 -10.18265  -1.08247  -1.07936  -1.07343
 Alpha  occ. eigenvalues --   -0.87840  -0.82227  -0.77260  -0.73680  -0.70197
 Alpha  occ. eigenvalues --   -0.65438  -0.60841  -0.56443  -0.54176  -0.51207
 Alpha  occ. eigenvalues --   -0.49594  -0.47642  -0.47528  -0.45952  -0.45609
 Alpha  occ. eigenvalues --   -0.44790  -0.44237  -0.43497  -0.41580  -0.41395
 Alpha  occ. eigenvalues --   -0.40873  -0.39903  -0.38048  -0.31916  -0.30574
 Alpha  occ. eigenvalues --   -0.30108  -0.29554  -0.27269
 Alpha virt. eigenvalues --   -0.14341  -0.05525  -0.03314  -0.01050  -0.00737
 Alpha virt. eigenvalues --    0.00684   0.01044   0.02517   0.02931   0.03351
 Alpha virt. eigenvalues --    0.04426   0.04819   0.05431   0.06100   0.06733

  Beta  occ. eigenvalues --  -19.15050 -19.15026 -19.14327 -10.29769 -10.29451
  Beta  occ. eigenvalues --  -10.29351 -10.23357 -10.22285 -10.21848 -10.21764
  Beta  occ. eigenvalues --  -10.18421 -10.18265  -1.08247  -1.07936  -1.07343
  Beta  occ. eigenvalues --   -0.87840  -0.82227  -0.77260  -0.73680  -0.70197
  Beta  occ. eigenvalues --   -0.65438  -0.60841  -0.56443  -0.54176  -0.51207
  Beta  occ. eigenvalues --   -0.49594  -0.47642  -0.47528  -0.45952  -0.45609
  Beta  occ. eigenvalues --   -0.44790  -0.44237  -0.43497  -0.41580  -0.41395
  Beta  occ. eigenvalues --   -0.40873  -0.39903  -0.38048  -0.31916  -0.30574
  Beta  occ. eigenvalues --   -0.30108  -0.29554  -0.27269
  Beta virt. eigenvalues --   -0.14341  -0.05525  -0.03314  -0.01050  -0.00737
  Beta virt. eigenvalues --    0.00684   0.01044   0.02517   0.02931   0.03351
  Beta virt. eigenvalues --    0.04426   0.04819   0.05431   0.06100   0.06733

 Mulliken charges and spin densities:
               1          2
     1  C   -0.345765   0.000000
     2  C   -0.016975  -0.000000
     3  C    0.189691   0.000000
     4  C   -0.281851  -0.000000
     5  C    0.239700  -0.000000
     6  C    0.560579   0.000000
     7  O   -0.273883   0.000000
     8  O   -0.265292   0.000000
     9  C   -0.036938   0.000000
    10  C   -0.591362   0.000000
    11  O   -0.281979  -0.000000
    12  H    0.248853  -0.000000
    13  H    0.245452   0.000000
    14  H    0.175905  -0.000000
    15  H    0.207453   0.000000
    16  H    0.177295  -0.000000
    17  C   -0.528360  -0.000000
    18  H    0.200723   0.000000
    19  H    0.192083   0.000000
    20  H    0.184672  -0.000000
 Sum of Mulliken charges =  -0.00000   0.00000

 Dipole moment (field-independent basis, Debye):
    X=             -2.0086    Y=             -1.3446    Z=              2.8528  Tot=              3.7391
 Quadrupole moment (field-independent basis, Debye-Ang):
   XX=            -70.3563   YY=            -87.6374   ZZ=            -64.3717
   XY=             -4.6847   XZ=              9.2471   YZ=              3.0015

  Exact polarizability: 139.506  -0.967 220.637   6.503   8.446 101.403
 Approx polarizability: 146.181  -6.706 296.141  -0.799   7.796 116.357

                      1                      2                      3
                      A                      A                      A
 Frequencies --     42.2192                76.6104                80.4946
 Red. masses --      4.3580                 4.7501                 6.9518
 Frc consts  --      0.0046                 0.0164                 0.0265
 IR Inten    --      7.6073                 2.2602                22.4454

                      4                      5                      6
                      A                      A                      A
 Frequencies --    108.2328               119.3839               156.4843
 Red. masses --      1.0566                 1.1094                 5.4781
 Frc consts  --      0.0073                 0.0093                 0.0790
 IR Inten    --      0.1817                 0.8262                 0.2986

                      7                      8                      9
                      A                      A                      A
 Frequencies --    174.6717               258.9854               268.4175
 Red. masses --      3.3642                 4.1492                 4.5749
 Frc consts  --      0.0605                 0.1640                 0.1942
 IR Inten    --      5.7244                 0.0817                 1.5333

                     10                     11                     12
                      A                      A                      A
 Frequencies --    332.3395               355.7388               411.2301
 Red. masses --      3.7085                 4.5517                 7.3415
 Frc consts  --      0.2413                 0.3394                 0.7315
 IR Inten    --      5.2413                 1.1373                29.5620

                     13                     14                     15
                      A                      A                      A
 Frequencies --    450.3733               487.3000               543.7862
 Red. masses --      7.9379                 4.6340                 3.4440
 Frc consts  --      0.9486                 0.6483                 0.6000
 IR Inten    --      7.3717                 9.9926                 6.4238

                     16                     17                     18
                      A                      A                      A
 Frequencies --    563.2432               608.9160               621.4305
 Red. masses --      3.5719                 3.3446                 3.4128
 Frc consts  --      0.6676                 0.7307                 0.7765
 IR Inten    --     13.1737                 6.9599                 0.6622

                     19                     20                     21
                      A                      A                      A
 Frequencies --    649.7125               734.6808               799.9404
 Red. masses --      3.4104                 6.5962                 6.4632
 Frc consts  --      0.8482                 2.0977                 2.4368
 IR Inten    --      7.8637                15.3480                 1.6367

                     22                     23                     24
                      A                      A                      A
 Frequencies --    817.5636               850.1087               948.5538
 Red. masses --      2.9374                 2.0012                 3.7181
 Frc consts  --      1.1568                 0.8521                 1.9710
 IR Inten    --      7.7219                69.7602                55.3284

                     25                     26                     27
                      A                      A                      A
 Frequencies --    975.2992              1013.4860              1038.7799
 Red. masses --      2.0593                 1.2599                 1.8029
 Frc consts  --      1.1541                 0.7625                 1.1462
 IR Inten    --     22.0823                 0.0277                37.6006

                     28                     29                     30
                      A                      A                      A
 Frequencies --   1045.6947              1070.1136              1119.6139
 Red. masses --      1.5922                 2.5343                 1.7526
 Frc consts  --      1.0258                 1.7099                 1.2944
 IR Inten    --      1.8504                40.9189                43.2376

                     31                     32                     33
                      A                      A                      A
 Frequencies --   1151.3670              1214.3097              1300.7621
 Red. masses --      1.9572                 3.2716                 3.6298
 Frc consts  --      1.5287                 2.8423                 3.6185
 IR Inten    --     19.4128               107.0064               269.3435

                     34                     35                     36
                      A                      A                      A
 Frequencies --   1325.0661              1378.0055              1392.6588
 Red. masses --      3.3315                 1.2981                 1.9260
 Frc consts  --      3.4464                 1.4524                 2.2009
 IR Inten    --     46.6601                76.6175                 3.9933

                     37                     38                     39
                      A                      A                      A
 Frequencies --   1409.3115              1447.1031              1456.7304
 Red. masses --      1.2798                 1.0636                 1.0604
 Frc consts  --      1.4976                 1.3123                 1.3258
 IR Inten    --     34.6660                28.9083                32.0739

                     40                     41                     42
                      A                      A                      A
 Frequencies --   1458.9861              1471.5450              1646.2455
 Red. masses --      1.0475                 1.0804                 8.1737
 Frc consts  --      1.3138                 1.3784                13.0514
 IR Inten    --     13.9702                13.5695                89.2783

                     43                     44                     45
                      A                      A                      A
 Frequencies --   1673.9704              1688.3082              1710.5205
 Red. masses --     10.8190                10.7255                 8.9547
 Frc consts  --     17.8621                18.0123                15.4368
 IR Inten    --     68.0721               998.7126                72.3812

                     46                     47                     48
                      A                      A                      A
 Frequencies --   1748.2680              3032.5687              3042.6522
 Red. masses --     10.8147                 1.0377                 1.0384
 Frc consts  --     19.4751                 5.6226                 5.6641
 IR Inten    --    368.5294                 0.5463                 4.3639

                     49                     50                     51
                      A                      A                      A
 Frequencies --   3091.2716              3095.7612              3140.3546
 Red. masses --      1.0988                 1.0959                 1.1044
 Frc consts  --      6.1862                 6.1880                 6.4173
 IR Inten    --      7.1407                 2.5531                13.8526

                     52                     53                     54
                      A                      A                      A
 Frequencies --   3143.2066              3184.8890              3201.0900
 Red. masses --      1.1008                 1.0877                 1.1001
 Frc consts  --      6.4078                 6.5005                 6.6415
 IR Inten    --     11.0866                 2.6516                 1.9439

 - Thermochemistry -
 -------------------
 Temperature   298.150 Kelvin.  Pressure   1.00000 Atm.
 Atom     1 has atomic number  6 and mass  12.00000

 Molecular mass:   164.04734 amu.
 Principal axes and moments of inertia in atomic units:
                           1         2         3
     Eigenvalues --  1300.093982132.962123102.91964
           X            0.54634   0.80046  -0.24653
           Y            0.80936  -0.58029  -0.09053
           Z            0.21553   0.15007   0.96490
 This molecule is an asymmetric top.
 Rotational symmetry number  1.
 Warning -- assumption of classical behavior for rotation
           may cause significant error
 Rotational temperatures (Kelvin)      0.06662     0.04061     0.02791
 Rotational constants (GHZ):           1.38816     0.84612     0.58163
 Zero-point vibrational energy     389554.1 (Joules/Mol)
                                   93.10566 (Kcal/Mol)
 Warning -- explicit consideration of  17 degrees of freedom as
           vibrations may cause significant error
 Vibrational temperatures:     60.74   110.23   115.81   155.72   171.77
          (Kelvin)            225.15   251.31   372.62   386.19   478.16
                              511.83   591.67   647.99   701.12   782.39
                              810.38   876.09   894.10   934.79  1057.04
                             1150.94  1176.29  1223.12  1364.76  1403.24
                             1458.18  1494.57  1504.52  1539.65  1610.87
                             1656.56  1747.12  1871.51  1906.47  1982.64
                             2003.73  2027.68  2082.06  2095.91  2099.16
                             2117.23  2368.58  2408.47  2429.10  2461.06
                             2515.37  4363.19  4377.70  4447.65  4454.11
                             4518.27  4522.37  4582.34  4605.65

 Zero-point correction=                           0.148373 (Hartree/Particle)
 Thermal correction to Energy=                    0.160207
 Thermal correction to Enthalpy=                  0.161151
 Thermal correction to Gibbs Free Energy=         0.109743
 Sum of electronic and zero-point Energies=           -573.438537
 Sum of electronic and thermal Energies=              -573.426704
 Sum of electronic and thermal Enthalpies=            -573.425759
 Sum of electronic and thermal Free Energies=         -573.477167

                     E (Thermal)             CV                S
                      KCal/Mol        Cal/Mol-Kelvin    Cal/Mol-Kelvin
 Total                  100.531             42.074            108.197
 Electronic               0.000              0.000              0.000
 Translational            0.889              2.981             41.193
 Rotational               0.889              2.981             30.532
 Vibrational             98.754             36.112             36.471
 Vibration     1          0.595              1.980              5.152
 Vibration     2          0.599              1.965              3.976
 Vibration     3          0.600              1.962              3.879
 Vibration     4          0.606              1.943              3.300
 Vibration     5          0.609              1.933              3.110
 Vibration     6          0.620              1.895              2.592
 Vibration     7          0.627              1.874              2.385
 Vibration     8          0.668              1.748              1.669
 Vibration     9          0.673              1.731              1.606
 Vibration    10          0.714              1.611              1.249
 Vibration    11          0.731              1.563              1.141
 Vibration    12          0.775              1.446              0.922
 Vibration    13          0.809              1.360              0.795
 Vibration    14          0.843              1.278              0.691
 Vibration    15          0.899              1.153              0.557
 Vibration    16          0.919              1.111              0.517
 Vibration    17          0.968              1.013              0.435

                           ! Non-Optimized Parameters !
 Normal termination of Gaussian 16 at Sat Feb 10 11:03:11 2024.
