 Gaussian 16, Revision A.03,
 Gaussian 16:  ES64L-G16RevA.03 25-Dec-2016

 ----------------------------------------------------------------------
 #P UB3LYP/6-311++G(d,p) nosym opt freq SCRF=(PCM,Solvent=n,n-DiMethylF
 ormamide)
 ----------------------------------------------------------------------

 -------
 Reduced
 -------
 Symbolic Z-matrix:
 Charge = -2 Multiplicity = 1

 SCF Done:  E(UB3LYP) =  -990.211728472     A.U. after   15 cycles
 SCF Done:  E(UB3LYP) =  -990.212571211     A.U. after   13 cycles
 SCF Done:  E(UB3LYP) =  -990.212366077     A.U. after   12 cycles
 SCF Done:  E(UB3LYP) =  -990.212820628     A.U. after   12 cycles
 SCF Done:  E(UB3LYP) =  -990.212844527     A.U. after   11 cycles
 SCF Done:  E(UB3LYP) =  -990.212861568     A.U. after   10 cycles
 SCF Done:  E(UB3LYP) =  -990.212865694     A.U. after   10 cycles
 SCF Done:  E(UB3LYP) =  -990.212868315     A.U. after   10 cycles
 SCF Done:  E(UB3LYP) =  -990.212868738     A.U. after    9 cycles
 SCF Done:  E(UB3LYP) =  -990.212868971     A.U. after    8 cycles
 Optimization completed.
    -- Stationary point found.
 Normal termination of Gaussian 16 at Sat Feb 10 22:58:44 2024.

 ----------------------------------------------------------------------
 #P Geom=AllCheck Guess=TCheck SCRF=Check GenChk UB3LYP/6-311++G(d,p) F
 req
 ----------------------------------------------------------------------

 Structure from the checkpoint file:  "204-an.chk"
 -------
 Reduced
 -------
 Charge = -2 Multiplicity = 1

                          Input orientation:
 ---------------------------------------------------------------------
 Center     Atomic      Atomic             Coordinates (Angstroms)
 Number     Number       Type             X           Y           Z
 ---------------------------------------------------------------------
      1          8           0        4.875727   -0.901437    0.013013
      2          6           0        3.639111   -0.280793    0.054408
      3          6           0        3.571726    1.128420    0.122153
      4          6           0        2.342711    1.751703    0.165072
      5          6           0        1.126458    1.018227    0.142742
      6          6           0       -0.144050    1.724368    0.193926
      7          8           0       -0.151264    3.008129    0.267450
      8          6           0       -1.338315    0.902854    0.157981
      9          6           0       -2.671041    1.449259    0.190715
     10          8           0       -2.848083    2.823771    0.254255
     11          6           0       -3.786352    0.645013    0.158518
     12          6           0       -3.675403   -0.769705    0.090554
     13          6           0       -2.438699   -1.356690    0.054223
     14          8           0       -2.342444   -2.721784   -0.012759
     15          6           0       -1.233167   -0.556983    0.084918
     16          6           0        0.023458   -1.203784    0.044217
     17          8           0        0.131961   -2.559976   -0.019509
     18          6           0        1.196788   -0.413063    0.071394
     19          6           0        2.486180   -1.034892    0.029210
     20          8           0        2.605767   -2.396973   -0.037096
     21          1           0        4.708432   -1.853873   -0.029263
     22          1           0        4.495412    1.697517    0.139501
     23          1           0        2.277475    2.830837    0.218201
     24          1           0       -3.799420    2.984978    0.261017
     25          1           0       -4.772797    1.100795    0.184583
     26          1           0       -4.564659   -1.390236    0.066122
     27          1           0       -1.343879   -2.908483   -0.028162
     28          1           0        1.628370   -2.718001   -0.042325
 ---------------------------------------------------------------------

 SCF Done:  E(UB3LYP) =  -990.212868971     A.U. after    1 cycles

 Alpha  occ. eigenvalues --  -19.13917 -19.12978 -19.11251 -19.10148 -19.05583
 Alpha  occ. eigenvalues --  -19.02253 -10.20953 -10.20650 -10.20502 -10.20277
 Alpha  occ. eigenvalues --  -10.18940 -10.18476 -10.15373 -10.15300 -10.15191
 Alpha  occ. eigenvalues --  -10.14950 -10.14695 -10.14420 -10.14192 -10.14115
 Alpha  occ. eigenvalues --   -1.05166  -1.03747  -1.02261  -1.01559  -0.94685
 Alpha  occ. eigenvalues --   -0.94131  -0.83200  -0.81624  -0.76226  -0.72145
 Alpha  occ. eigenvalues --   -0.71472  -0.70854  -0.64959  -0.62324  -0.61782
 Alpha  occ. eigenvalues --   -0.57776  -0.56036  -0.53175  -0.52916  -0.50583
 Alpha  occ. eigenvalues --   -0.49541  -0.46713  -0.45830  -0.45119  -0.43720
 Alpha  occ. eigenvalues --   -0.42388  -0.41814  -0.40352  -0.40021  -0.39453
 Alpha  occ. eigenvalues --   -0.39139  -0.37527  -0.37346  -0.36938  -0.35926
 Alpha  occ. eigenvalues --   -0.35868  -0.35257  -0.34460  -0.33717  -0.33281
 Alpha  occ. eigenvalues --   -0.32009  -0.31629  -0.29441  -0.28107  -0.23855
 Alpha  occ. eigenvalues --   -0.23540  -0.21904  -0.19735  -0.19635  -0.19116
 Alpha  occ. eigenvalues --   -0.11487
 Alpha virt. eigenvalues --   -0.01670   0.00036   0.00067   0.00426   0.01274
 Alpha virt. eigenvalues --    0.01953   0.02467   0.03467   0.04195   0.04743
 Alpha virt. eigenvalues --    0.04837   0.05172   0.06549   0.06660   0.07036

  Beta  occ. eigenvalues --  -19.13917 -19.12978 -19.11251 -19.10148 -19.05583
  Beta  occ. eigenvalues --  -19.02253 -10.20953 -10.20650 -10.20502 -10.20277
  Beta  occ. eigenvalues --  -10.18940 -10.18476 -10.15373 -10.15300 -10.15191
  Beta  occ. eigenvalues --  -10.14950 -10.14695 -10.14420 -10.14192 -10.14115
  Beta  occ. eigenvalues --   -1.05166  -1.03747  -1.02261  -1.01559  -0.94685
  Beta  occ. eigenvalues --   -0.94131  -0.83200  -0.81624  -0.76226  -0.72145
  Beta  occ. eigenvalues --   -0.71472  -0.70854  -0.64959  -0.62324  -0.61782
  Beta  occ. eigenvalues --   -0.57776  -0.56036  -0.53175  -0.52916  -0.50583
  Beta  occ. eigenvalues --   -0.49541  -0.46713  -0.45830  -0.45119  -0.43720
  Beta  occ. eigenvalues --   -0.42388  -0.41814  -0.40352  -0.40021  -0.39453
  Beta  occ. eigenvalues --   -0.39139  -0.37527  -0.37346  -0.36938  -0.35926
  Beta  occ. eigenvalues --   -0.35868  -0.35257  -0.34460  -0.33717  -0.33281
  Beta  occ. eigenvalues --   -0.32009  -0.31629  -0.29441  -0.28107  -0.23855
  Beta  occ. eigenvalues --   -0.23540  -0.21904  -0.19735  -0.19635  -0.19116
  Beta  occ. eigenvalues --   -0.11487
  Beta virt. eigenvalues --   -0.01670   0.00036   0.00067   0.00426   0.01274
  Beta virt. eigenvalues --    0.01953   0.02467   0.03467   0.04195   0.04743
  Beta virt. eigenvalues --    0.04837   0.05172   0.06549   0.06660   0.07036

 Mulliken charges and spin densities:
               1          2
     1  O   -0.343175  -0.000000
     2  C   -0.385992   0.000000
     3  C   -0.055259   0.000000
     4  C   -0.101247  -0.000000
     5  C    0.209650  -0.000000
     6  C   -0.391951   0.000000
     7  O   -0.623561   0.000000
     8  C    0.073822  -0.000000
     9  C   -0.270605   0.000000
    10  O   -0.275168  -0.000000
    11  C   -0.251922  -0.000000
    12  C   -0.222260  -0.000000
    13  C   -0.246210   0.000000
    14  O   -0.492262   0.000000
    15  C    0.594383   0.000000
    16  C   -0.376761  -0.000000
    17  O   -0.777262   0.000000
    18  C    0.473855   0.000000
    19  C   -0.114096   0.000000
    20  O   -0.561374  -0.000000
    21  H    0.300957   0.000000
    22  H    0.188404  -0.000000
    23  H    0.149022   0.000000
    24  H    0.280074  -0.000000
    25  H    0.139375   0.000000
    26  H    0.164227   0.000000
    27  H    0.430044  -0.000000
    28  H    0.485294   0.000000
 Sum of Mulliken charges =  -2.00000  -0.00000

 Dipole moment (field-independent basis, Debye):
    X=             -1.9014    Y=             -1.2992    Z=             -1.0900  Tot=              2.5479
 Quadrupole moment (field-independent basis, Debye-Ang):
   XX=           -158.6013   YY=           -179.9534   ZZ=           -126.6322
   XY=             -6.9654   XZ=             -0.1411   YZ=             -2.9114

  Exact polarizability: 558.007   1.040 370.121  -3.269  10.808 152.536
 Approx polarizability: 619.641  -2.483 459.163  -3.795  14.371 171.433

                      1                      2                      3
                      A                      A                      A
 Frequencies --     51.2334                61.5741                96.2230
 Red. masses --      8.1613                 7.4289                 9.5648
 Frc consts  --      0.0126                 0.0166                 0.0522
 IR Inten    --      9.2431                 3.9613                 6.0452

                      4                      5                      6
                      A                      A                      A
 Frequencies --    108.5072               125.5775               192.7598
 Red. masses --      7.9402                 8.1161                 6.9064
 Frc consts  --      0.0551                 0.0754                 0.1512
 IR Inten    --      1.4632                 0.3411                11.6206

                      7                      8                      9
                      A                      A                      A
 Frequencies --    199.9625               271.6934               276.8052
 Red. masses --      6.6135                 5.1369                 6.9166
 Frc consts  --      0.1558                 0.2234                 0.3122
 IR Inten    --      0.2386                 0.3491                28.8402

                     10                     11                     12
                      A                      A                      A
 Frequencies --    314.4987               321.9870               337.3933
 Red. masses --      3.5175                 7.5022                 6.1987
 Frc consts  --      0.2050                 0.4583                 0.4157
 IR Inten    --     47.2246                 1.4717                12.6387

                     13                     14                     15
                      A                      A                      A
 Frequencies --    339.0436               356.2623               371.5327
 Red. masses --      1.7105                11.0022                 1.4130
 Frc consts  --      0.1158                 0.8228                 0.1149
 IR Inten    --     38.0027                 6.5451               167.9642

                     16                     17                     18
                      A                      A                      A
 Frequencies --    385.7462               394.6532               413.2112
 Red. masses --      2.7638                 3.9118                 6.7573
 Frc consts  --      0.2423                 0.3590                 0.6798
 IR Inten    --     18.6235                43.5910                33.9432

                     19                     20                     21
                      A                      A                      A
 Frequencies --    449.2649               459.0796               475.4628
 Red. masses --      8.2703                 9.9497                 9.3417
 Frc consts  --      0.9835                 1.2355                 1.2443
 IR Inten    --    180.3571                42.4169                 2.3897

                     22                     23                     24
                      A                      A                      A
 Frequencies --    489.5278               501.9161               530.2709
 Red. masses --      8.5929                 4.4041                 7.5961
 Frc consts  --      1.2132                 0.6537                 1.2585
 IR Inten    --      5.4848                 0.0177                 9.5931

                     25                     26                     27
                      A                      A                      A
 Frequencies --    550.5390               575.8603               604.6368
 Red. masses --      4.7693                 5.4621                 4.2769
 Frc consts  --      0.8517                 1.0672                 0.9212
 IR Inten    --      0.1173                82.1139                18.7965

                     28                     29                     30
                      A                      A                      A
 Frequencies --    626.9903               636.4068               701.9781
 Red. masses --      6.2513                 4.0524                 6.1799
 Frc consts  --      1.4479                 0.9670                 1.7942
 IR Inten    --     64.5708                28.1106                28.9398

                     31                     32                     33
                      A                      A                      A
 Frequencies --    709.4043               722.6385               736.7167
 Red. masses --      7.3760                 3.9473                 7.0793
 Frc consts  --      2.1871                 1.2145                 2.2638
 IR Inten    --      0.0770                 0.3004               100.9545

                     34                     35                     36
                      A                      A                      A
 Frequencies --    760.8928               770.6304               789.9984
 Red. masses --      2.9459                 1.7554                 9.1627
 Frc consts  --      1.0049                 0.6142                 3.3692
 IR Inten    --     11.3200               148.7118               365.2341

                     37                     38                     39
                      A                      A                      A
 Frequencies --    798.7064               829.5700               844.6218
 Red. masses --      2.9870                 1.3830                 9.0027
 Frc consts  --      1.1227                 0.5608                 3.7840
 IR Inten    --      3.1864                15.3582                64.1033

                     40                     41                     42
                      A                      A                      A
 Frequencies --    900.0816               905.0478               938.1247
 Red. masses --      1.0566                 7.4614                 1.2563
 Frc consts  --      0.5043                 3.6009                 0.6514
 IR Inten    --    212.3053               339.8101                 0.2801

                     43                     44                     45
                      A                      A                      A
 Frequencies --    962.9129               975.2483              1023.2051
 Red. masses --      1.0392                 6.8296                 3.6010
 Frc consts  --      0.5677                 3.8271                 2.2213
 IR Inten    --     33.7982               260.8020               148.2146

                     46                     47                     48
                      A                      A                      A
 Frequencies --   1067.0899              1115.5215              1153.6604
 Red. masses --      2.3128                 1.9146                 2.2155
 Frc consts  --      1.5517                 1.4037                 1.7373
 IR Inten    --    288.3713               152.8273                96.5591

                     49                     50                     51
                      A                      A                      A
 Frequencies --   1155.6274              1192.3561              1211.7218
 Red. masses --      2.3907                 2.7039                 3.2449
 Frc consts  --      1.8811                 2.2649                 2.8071
 IR Inten    --     74.6368               241.0606               834.2079

                     52                     53                     54
                      A                      A                      A
 Frequencies --   1226.1145              1233.3883              1257.1664
 Red. masses --      2.1609                 2.1389                 2.8911
 Frc consts  --      1.9141                 1.9171                 2.6921
 IR Inten    --     73.8296                61.5815               286.5566

                     55                     56                     57
                      A                      A                      A
 Frequencies --   1282.3697              1305.4133              1337.3717
 Red. masses --      5.6006                 3.1070                 2.0173
 Frc consts  --      5.4264                 3.1195                 2.1259
 IR Inten    --     18.8003               206.0288               169.8090

                     58                     59                     60
                      A                      A                      A
 Frequencies --   1361.4835              1372.1836              1393.7712
 Red. masses --      6.6935                 5.2291                 5.7256
 Frc consts  --      7.3102                 5.8009                 6.5532
 IR Inten    --    744.2463               894.1438               357.6638

                     61                     62                     63
                      A                      A                      A
 Frequencies --   1426.3315              1470.0939              1479.9551
 Red. masses --      2.9699                 3.7768                 3.1617
 Frc consts  --      3.5598                 4.8092                 4.0800
 IR Inten    --    714.7346               300.0512               840.8773

                     64                     65                     66
                      A                      A                      A
 Frequencies --   1500.3754              1545.8091              1562.2332
 Red. masses --      2.9596                 2.5706                 5.9063
 Frc consts  --      3.9254                 3.6191                 8.4929
 IR Inten    --     35.8640               753.8066                 8.2862

                     67                     68                     69
                      A                      A                      A
 Frequencies --   1574.1172              1595.1513              1641.9874
 Red. masses --      2.3079                 6.4794                 3.6224
 Frc consts  --      3.3694                 9.7138                 5.7542
 IR Inten    --    481.8060                 0.0616                12.8793

                     70                     71                     72
                      A                      A                      A
 Frequencies --   1690.7760              2559.2629              2784.6218
 Red. masses --      2.2994                 1.0764                 1.0780
 Frc consts  --      3.8729                 4.1537                 4.9247
 IR Inten    --     92.2216              2251.4152               503.9552

                     73                     74                     75
                      A                      A                      A
 Frequencies --   3134.1728              3162.9511              3167.9939
 Red. masses --      1.0880                 1.0884                 1.0921
 Frc consts  --      6.2969                 6.4156                 6.4576
 IR Inten    --     62.3105                21.0181                44.3184

                     76                     77                     78
                      A                      A                      A
 Frequencies --   3195.1298              3752.9461              3792.3572
 Red. masses --      1.0911                 1.0654                 1.0657
 Frc consts  --      6.5629                 8.8411                 9.0302
 IR Inten    --     27.5492               118.0650                51.7594

 - Thermochemistry -
 -------------------
 Temperature   298.150 Kelvin.  Pressure   1.00000 Atm.
 Atom     1 has atomic number  8 and mass  15.99491

 Molecular mass:   272.03209 amu.
 Principal axes and moments of inertia in atomic units:
                           1         2         3
     Eigenvalues --  2944.167686636.442559580.54415
           X            0.98687   0.16129   0.00809
           Y           -0.16071   0.98578  -0.04910
           Z           -0.01589   0.04716   0.99876
 This molecule is an asymmetric top.
 Rotational symmetry number  1.
 Warning -- assumption of classical behavior for rotation
           may cause significant error
 Rotational temperatures (Kelvin)      0.02942     0.01305     0.00904
 Rotational constants (GHZ):           0.61299     0.27194     0.18838
 Zero-point vibrational energy     499978.6 (Joules/Mol)
                                  119.49776 (Kcal/Mol)
 Warning -- explicit consideration of  27 degrees of freedom as
           vibrations may cause significant error
 Vibrational temperatures:     73.71    88.59   138.44   156.12   180.68
          (Kelvin)            277.34   287.70   390.91   398.26   452.49
                              463.27   485.43   487.81   512.58   534.55
                              555.00   567.82   594.52   646.39   660.51
                              684.08   704.32   722.15   762.94   792.10
                              828.53   869.94   902.10   915.65  1009.99
                             1020.67  1039.72  1059.97  1094.75  1108.77
                             1136.63  1149.16  1193.57  1215.22  1295.02
                             1302.16  1349.75  1385.42  1403.16  1472.16
                             1535.30  1604.99  1659.86  1662.69  1715.53
                             1743.40  1764.11  1774.57  1808.78  1845.04
                             1878.20  1924.18  1958.87  1974.27  2005.33
                             2052.17  2115.14  2129.33  2158.71  2224.07
                             2247.71  2264.80  2295.07  2362.45  2432.65
                             3682.21  4006.45  4509.38  4550.78  4558.04
                             4597.08  5399.65  5456.36

 Zero-point correction=                           0.190432 (Hartree/Particle)
 Thermal correction to Energy=                    0.205931
 Thermal correction to Enthalpy=                  0.206875
 Thermal correction to Gibbs Free Energy=         0.148326
 Sum of electronic and zero-point Energies=           -990.022437
 Sum of electronic and thermal Energies=              -990.006938
 Sum of electronic and thermal Enthalpies=            -990.005994
 Sum of electronic and thermal Free Energies=         -990.064543

                     E (Thermal)             CV                S
                      KCal/Mol        Cal/Mol-Kelvin    Cal/Mol-Kelvin
 Total                  129.223             62.900            123.226
 Electronic               0.000              0.000              0.000
 Translational            0.889              2.981             42.701
 Rotational               0.889              2.981             33.592
 Vibrational            127.446             56.938             46.933
 Vibration     1          0.595              1.977              4.769
 Vibration     2          0.597              1.973              4.406
 Vibration     3          0.603              1.952              3.529
 Vibration     4          0.606              1.942              3.295
 Vibration     5          0.611              1.927              3.013
 Vibration     6          0.635              1.850              2.201
 Vibration     7          0.638              1.840              2.133
 Vibration     8          0.675              1.725              1.585
 Vibration     9          0.678              1.716              1.553
 Vibration    10          0.702              1.646              1.339
 Vibration    11          0.707              1.631              1.300
 Vibration    12          0.718              1.601              1.224
 Vibration    13          0.719              1.597              1.217
 Vibration    14          0.732              1.562              1.138
 Vibration    15          0.743              1.531              1.073
 Vibration    16          0.754              1.501              1.017
 Vibration    17          0.762              1.482              0.983
 Vibration    18          0.777              1.442              0.915
 Vibration    19          0.808              1.363              0.798
 Vibration    20          0.817              1.341              0.769
 Vibration    21          0.832              1.304              0.722
 Vibration    22          0.845              1.273              0.685
 Vibration    23          0.857              1.246              0.653
 Vibration    24          0.885              1.183              0.587
 Vibration    25          0.906              1.139              0.543
 Vibration    26          0.932              1.083              0.493
 Vibration    27          0.963              1.022              0.442

 Optimization completed.
    -- Stationary point found.
 Normal termination of Gaussian 16 at Sun Feb 11 00:04:23 2024.
