 Q-Chem 5.4, Q-Chem, Inc., Pleasanton, CA (2021)
 Q-Chem 5.4.0 for Intel X86 EM64T Linux

User input:
--------------------------------------------------------------
$molecule
-2 1
C                 -3.4415970000     -2.7536440000     -0.3532310000
O                 -2.1596400000     -2.2348370000     -0.1924180000
C                 -2.0038290000     -0.8478990000     -0.2019930000
C                 -3.0865460000     -0.0074970000     -0.3614360000
C                 -2.9358910000      1.4015920000     -0.3718990000
C                 -1.6921310000      2.0114230000     -0.2224170000
O                 -1.5451550000      3.3137540000     -0.2309510000
C                 -0.5243780000      1.1243450000     -0.0512740000
C                  0.7495870000      1.7255960000      0.1014750000
O                  0.8926280000      3.0955720000      0.0903750000
C                  1.8936150000      0.9360700000      0.2672110000
C                  3.1946280000      1.5118480000      0.4240900000
C                  4.3136950000      0.7286290000      0.5863430000
C                  4.1999770000     -0.6906770000      0.6018660000
C                  2.9506850000     -1.2674220000      0.4518210000
C                  1.7774990000     -0.5031060000      0.2830160000
C                  0.4959290000     -1.1923210000      0.1313980000
O                  0.4541080000     -2.4605490000      0.1534860000
C                 -0.6718320000     -0.3234480000     -0.0394320000
H                 -3.3349690000     -3.8425980000     -0.3172110000
H                 -4.1343600000     -2.4379660000      0.4467750000
H                 -3.8983690000     -2.4730090000     -1.3186980000
H                 -4.0840830000     -0.4147000000     -0.4829920000
H                 -3.8046100000      2.0430010000     -0.4992760000
H                 -0.0715500000      3.4237020000     -0.0421990000
H                  3.2698280000      2.5937930000      0.4107970000
H                  5.2905250000      1.1963630000      0.7034200000
H                  5.0849870000     -1.3105830000      0.7301990000
H                  2.8212480000     -2.3454300000      0.4580660000
$end
$rem
MAX_SCF_CYCLES=200
BASIS  =  6-311++G(d,p)
GUI  =  2
JOB_TYPE  =  SP
METHOD  =  B3LYP
SOLVENT_METHOD = PCM
$end
$pcm
theory = CPCM
$end
$solvent
dielectric 37.219
opticaldielectric 1.43
$end

--------------------------------------------------------------

             Standard Nuclear Orientation (Angstroms)
    I     Atom           X                Y                Z
 ----------------------------------------------------------------
    1      C      -3.4415970000    -2.7536440000    -0.3532310000
    2      O      -2.1596400000    -2.2348370000    -0.1924180000
    3      C      -2.0038290000    -0.8478990000    -0.2019930000
    4      C      -3.0865460000    -0.0074970000    -0.3614360000
    5      C      -2.9358910000     1.4015920000    -0.3718990000
    6      C      -1.6921310000     2.0114230000    -0.2224170000
    7      O      -1.5451550000     3.3137540000    -0.2309510000
    8      C      -0.5243780000     1.1243450000    -0.0512740000
    9      C       0.7495870000     1.7255960000     0.1014750000
   10      O       0.8926280000     3.0955720000     0.0903750000
   11      C       1.8936150000     0.9360700000     0.2672110000
   12      C       3.1946280000     1.5118480000     0.4240900000
   13      C       4.3136950000     0.7286290000     0.5863430000
   14      C       4.1999770000    -0.6906770000     0.6018660000
   15      C       2.9506850000    -1.2674220000     0.4518210000
   16      C       1.7774990000    -0.5031060000     0.2830160000
   17      C       0.4959290000    -1.1923210000     0.1313980000
   18      O       0.4541080000    -2.4605490000     0.1534860000
   19      C      -0.6718320000    -0.3234480000    -0.0394320000
   20      H      -3.3349690000    -3.8425980000    -0.3172110000
   21      H      -4.1343600000    -2.4379660000     0.4467750000
   22      H      -3.8983690000    -2.4730090000    -1.3186980000
   23      H      -4.0840830000    -0.4147000000    -0.4829920000
   24      H      -3.8046100000     2.0430010000    -0.4992760000
   25      H      -0.0715500000     3.4237020000    -0.0421990000
   26      H       3.2698280000     2.5937930000     0.4107970000
   27      H       5.2905250000     1.1963630000     0.7034200000
   28      H       5.0849870000    -1.3105830000     0.7301990000
   29      H       2.8212480000    -2.3454300000     0.4580660000
 ----------------------------------------------------------------

    9    -879.0108779825      3.53e-06  Convergence criterion met
 Total energy in the final basis set =     -879.0108779825

                    Orbital Energies (a.u.)
 --------------------------------------------------------------

 Alpha MOs
 -- Occupied --
-19.1253 -19.0920 -19.0466 -19.0302 -10.2013 -10.1994 -10.1954 -10.1924
-10.1861 -10.1569 -10.1534 -10.1529 -10.1520 -10.1514 -10.1511 -10.1499
-10.1430 -10.1403 -10.1273  -1.0414  -1.0095  -0.9563  -0.9529  -0.8364
 -0.8110  -0.7626  -0.7326  -0.7197  -0.7096  -0.6673  -0.6450  -0.6085
 -0.6002  -0.5539  -0.5436  -0.5128  -0.5118  -0.4845  -0.4653  -0.4490
 -0.4480  -0.4385  -0.4234  -0.4179  -0.4069  -0.4028  -0.3976  -0.3860
 -0.3732  -0.3628  -0.3606  -0.3577  -0.3514  -0.3397  -0.3247  -0.3229
 -0.3141  -0.3132  -0.3096  -0.2658  -0.2481  -0.2361  -0.2245  -0.2215
 -0.1995  -0.1764  -0.1192

          Ground-State Mulliken Net Atomic Charges

     Atom                 Charge (a.u.)
  ----------------------------------------
      1 C                    -0.282273
      2 O                    -0.192090
      3 C                    -0.329467
      4 C                    -0.192900
      5 C                    -0.277096
      6 C                    -0.482109
      7 O                    -0.682376
      8 C                     0.705739
      9 C                     0.111702
     10 O                    -0.543821
     11 C                     0.210590
     12 C                    -0.205485
     13 C                    -0.510427
     14 C                    -0.555768
     15 C                    -0.038407
     16 C                    -0.009817
     17 C                    -0.193580
     18 O                    -0.632331
     19 C                     0.189335
     20 H                     0.190517
     21 H                     0.144271
     22 H                     0.144340
     23 H                     0.193109
     24 H                     0.155672
     25 H                     0.417787
     26 H                     0.159693
     27 H                     0.178736
     28 H                     0.179139
     29 H                     0.147316
  ----------------------------------------
  Sum of atomic charges =    -2.000000

                    Cartesian Multipole Moments
 -----------------------------------------------------------------
    Charge (ESU x 10^10)
                -9.6064
    Dipole Moment (Debye)
         X      -0.6468      Y      -5.6825      Z      -0.3634
       Tot       5.7307
    Quadrupole Moments (Debye-Ang)
        XX    -135.5991     XY      16.4650     YY    -180.7264
        XZ      -2.0733     YZ       3.1774     ZZ    -122.8271

 Total job time:  210.00s(wall), 399.02s(cpu)
        *  Thank you very much for using Q-Chem.  Have a nice day.  *
