 Q-Chem 5.4, Q-Chem, Inc., Pleasanton, CA (2021)
 Q-Chem 5.4.0 for Intel X86 EM64T Linux

User input:
--------------------------------------------------------------
$molecule
-2 1
C                  1.3292440000      1.0456640000     -2.9831660000
C                  0.0212250000      1.4078550000     -3.4708720000
C                 -1.1112250000      0.7098810000     -3.1274280000
C                 -1.1126770000     -0.4575150000     -2.2760330000
C                  0.1776900000     -0.8804630000     -1.8254750000
O                  2.3433960000      1.7945440000     -3.1878070000
O                 -2.2200520000     -1.0669990000     -1.9945940000
H                 -0.0320960000      2.2992690000     -4.0945980000
C                  1.3727270000     -0.1815700000     -2.1924380000
C                  2.6788180000     -0.6189060000     -1.7028270000
C                  3.8939960000     -0.5539220000     -2.6121240000
C                  5.1713480000     -0.5681450000     -2.0324870000
C                  3.8065940000     -0.6476000000     -4.0087520000
C                  6.3216540000     -0.6593830000     -2.8163370000
C                  6.2205100000     -0.7582790000     -4.2041690000
C                  4.9504080000     -0.7540480000     -4.7938510000
O                  2.8734560000     -1.1275300000     -0.5799540000
C                  0.2122480000     -2.1641820000     -1.0296720000
H                  5.2354890000     -0.5189890000     -0.9514170000
H                  2.8244640000     -0.6330370000     -4.4662690000
H                  7.3026000000     -0.6659470000     -2.3442210000
H                  7.1152620000     -0.8509310000     -4.8167340000
H                  4.8560500000     -0.8292840000     -5.8743270000
H                 -2.0865450000      1.0262180000     -3.4987130000
H                  0.3122430000     -1.9849850000      0.0493740000
H                  1.0586410000     -2.8008070000     -1.3085880000
H                 -0.7310560000     -2.6917090000     -1.1974010000
$end
$rem
MAX_SCF_CYCLES=200
BASIS  =  6-311++G(d,p)
GUI  =  2
JOB_TYPE  =  SP
METHOD  =  B3LYP
SOLVENT_METHOD = PCM
$end
$pcm
theory = CPCM
$end
$solvent
dielectric 37.219
opticaldielectric 1.43
$end

--------------------------------------------------------------

             Standard Nuclear Orientation (Angstroms)
    I     Atom           X                Y                Z
 ----------------------------------------------------------------
    1      C       1.3292440000     1.0456640000    -2.9831660000
    2      C       0.0212250000     1.4078550000    -3.4708720000
    3      C      -1.1112250000     0.7098810000    -3.1274280000
    4      C      -1.1126770000    -0.4575150000    -2.2760330000
    5      C       0.1776900000    -0.8804630000    -1.8254750000
    6      O       2.3433960000     1.7945440000    -3.1878070000
    7      O      -2.2200520000    -1.0669990000    -1.9945940000
    8      H      -0.0320960000     2.2992690000    -4.0945980000
    9      C       1.3727270000    -0.1815700000    -2.1924380000
   10      C       2.6788180000    -0.6189060000    -1.7028270000
   11      C       3.8939960000    -0.5539220000    -2.6121240000
   12      C       5.1713480000    -0.5681450000    -2.0324870000
   13      C       3.8065940000    -0.6476000000    -4.0087520000
   14      C       6.3216540000    -0.6593830000    -2.8163370000
   15      C       6.2205100000    -0.7582790000    -4.2041690000
   16      C       4.9504080000    -0.7540480000    -4.7938510000
   17      O       2.8734560000    -1.1275300000    -0.5799540000
   18      C       0.2122480000    -2.1641820000    -1.0296720000
   19      H       5.2354890000    -0.5189890000    -0.9514170000
   20      H       2.8244640000    -0.6330370000    -4.4662690000
   21      H       7.3026000000    -0.6659470000    -2.3442210000
   22      H       7.1152620000    -0.8509310000    -4.8167340000
   23      H       4.8560500000    -0.8292840000    -5.8743270000
   24      H      -2.0865450000     1.0262180000    -3.4987130000
   25      H       0.3122430000    -1.9849850000     0.0493740000
   26      H       1.0586410000    -2.8008070000    -1.3085880000
   27      H      -0.7310560000    -2.6917090000    -1.1974010000
 ----------------------------------------------------------------

    9    -765.6392310705      7.28e-06  Convergence criterion met
 Total energy in the final basis set =     -765.6392310705

                    Orbital Energies (a.u.)
 --------------------------------------------------------------

 Alpha MOs
 -- Occupied --
-19.0810 -19.0297 -19.0166 -10.2324 -10.1877 -10.1715 -10.1709 -10.1700
-10.1689 -10.1680 -10.1669 -10.1658 -10.1356 -10.1342 -10.1338 -10.1319
-10.1290  -1.0066  -0.9513  -0.9316  -0.8501  -0.7878  -0.7517  -0.7401
 -0.7314  -0.6863  -0.6309  -0.6187  -0.5989  -0.5765  -0.5297  -0.5252
 -0.4902  -0.4537  -0.4496  -0.4428  -0.4288  -0.4225  -0.4140  -0.4103
 -0.3913  -0.3800  -0.3754  -0.3660  -0.3613  -0.3542  -0.3513  -0.3423
 -0.3322  -0.3253  -0.3189  -0.3147  -0.2541  -0.2529  -0.2348  -0.2316
 -0.2161  -0.2021  -0.1963  -0.1240

          Ground-State Mulliken Net Atomic Charges

     Atom                 Charge (a.u.)
  ----------------------------------------
      1 C                    -0.704190
      2 C                    -0.181870
      3 C                    -0.041408
      4 C                    -0.499468
      5 C                     0.807825
      6 O                    -0.597759
      7 O                    -0.743527
      8 H                     0.161997
      9 C                     0.905842
     10 C                    -1.337063
     11 C                     1.288948
     12 C                     0.642702
     13 C                    -1.072576
     14 C                    -0.522010
     15 C                    -0.305157
     16 C                    -0.498985
     17 O                    -0.368890
     18 C                    -0.525380
     19 H                     0.208467
     20 H                     0.175954
     21 H                     0.201898
     22 H                     0.188566
     23 H                     0.207106
     24 H                     0.158128
     25 H                     0.157570
     26 H                     0.152864
     27 H                     0.140417
  ----------------------------------------
  Sum of atomic charges =    -2.000000

                    Cartesian Multipole Moments
 -----------------------------------------------------------------
    Charge (ESU x 10^10)
                -9.6064
    Dipole Moment (Debye)
         X      -4.5070      Y       0.5000      Z      19.9420
       Tot      20.4511
    Quadrupole Moments (Debye-Ang)
        XX    -157.6981     XY     -17.2697     YY    -129.8705
        XZ       9.1526     YZ      11.3467     ZZ    -155.0203

 Total job time:  43.32s(wall), 321.51s(cpu)
        *  Thank you very much for using Q-Chem.  Have a nice day.  *
