 Q-Chem 5.4, Q-Chem, Inc., Pleasanton, CA (2021)
 Q-Chem 5.4.0 for Intel X86 EM64T Linux

User input:
--------------------------------------------------------------
$molecule
-2 1
C                  1.6782440000      0.9249320000     -0.6743680000
C                  0.6226150000      1.5665640000      0.0464740000
C                 -0.5309910000      0.9137550000      0.4756560000
C                 -0.7764790000     -0.4766100000      0.2432490000
C                  0.2851340000     -1.1590550000     -0.4567230000
C                  1.4382700000     -0.4836150000     -0.8832860000
O                  2.7310050000      1.5497260000     -1.1074940000
O                 -1.8573360000     -1.0815540000      0.6364230000
C                  0.1086000000     -2.6346710000     -0.7119780000
O                  2.3647550000     -1.2222900000     -1.6380100000
C                  3.6768620000     -1.2582470000     -1.0926170000
H                  0.7500360000      2.6338950000      0.2316010000
H                 -1.3028550000      1.4640080000      1.0152570000
H                 -0.4743460000     -3.0709940000      0.1068800000
H                  1.0704850000     -3.1470860000     -0.8161610000
H                 -0.4635340000     -2.8318790000     -1.6332460000
H                  4.3014840000     -1.8300140000     -1.7907600000
H                  3.6828860000     -1.7806420000     -0.1198330000
H                  4.0652750000     -0.2429120000     -0.9732560000
$end
$rem
MAX_SCF_CYCLES=200
BASIS  =  6-311++G(d,p)
GUI  =  2
JOB_TYPE  =  SP
METHOD  =  B3LYP
SOLVENT_METHOD = PCM
$end
$pcm
theory = CPCM
$end
$solvent
dielectric 37.219
opticaldielectric 1.43
$end

--------------------------------------------------------------

             Standard Nuclear Orientation (Angstroms)
    I     Atom           X                Y                Z
 ----------------------------------------------------------------
    1      C       1.6782440000     0.9249320000    -0.6743680000
    2      C       0.6226150000     1.5665640000     0.0464740000
    3      C      -0.5309910000     0.9137550000     0.4756560000
    4      C      -0.7764790000    -0.4766100000     0.2432490000
    5      C       0.2851340000    -1.1590550000    -0.4567230000
    6      C       1.4382700000    -0.4836150000    -0.8832860000
    7      O       2.7310050000     1.5497260000    -1.1074940000
    8      O      -1.8573360000    -1.0815540000     0.6364230000
    9      C       0.1086000000    -2.6346710000    -0.7119780000
   10      O       2.3647550000    -1.2222900000    -1.6380100000
   11      C       3.6768620000    -1.2582470000    -1.0926170000
   12      H       0.7500360000     2.6338950000     0.2316010000
   13      H      -1.3028550000     1.4640080000     1.0152570000
   14      H      -0.4743460000    -3.0709940000     0.1068800000
   15      H       1.0704850000    -3.1470860000    -0.8161610000
   16      H      -0.4635340000    -2.8318790000    -1.6332460000
   17      H       4.3014840000    -1.8300140000    -1.7907600000
   18      H       3.6828860000    -1.7806420000    -0.1198330000
   19      H       4.0652750000    -0.2429120000    -0.9732560000
 ----------------------------------------------------------------

   10    -535.7121762673      4.51e-06  Convergence criterion met
 Total energy in the final basis set =     -535.7121762673

                    Orbital Energies (a.u.)
 --------------------------------------------------------------

 Alpha MOs
 -- Occupied --
-19.1102 -19.0135 -19.0134 -10.1879 -10.1718 -10.1654 -10.1638 -10.1352
-10.1266 -10.1181 -10.1158  -1.0187  -0.9254  -0.9227  -0.7780  -0.7234
 -0.6840  -0.6335  -0.6261  -0.5424  -0.5229  -0.4636  -0.4468  -0.4329
 -0.4146  -0.4048  -0.3866  -0.3740  -0.3651  -0.3527  -0.3415  -0.3300
 -0.3202  -0.3110  -0.3049  -0.2612  -0.2223  -0.1984  -0.1933  -0.1901
 -0.1150

          Ground-State Mulliken Net Atomic Charges

     Atom                 Charge (a.u.)
  ----------------------------------------
      1 C                     0.048742
      2 C                    -0.173155
      3 C                     0.096607
      4 C                    -1.119109
      5 C                     1.698732
      6 C                    -1.328672
      7 O                    -0.761636
      8 O                    -0.757815
      9 C                    -0.308393
     10 O                    -0.251387
     11 C                    -0.280088
     12 H                     0.138076
     13 H                     0.130266
     14 H                     0.135128
     15 H                     0.147321
     16 H                     0.154709
     17 H                     0.143920
     18 H                     0.117274
     19 H                     0.169480
  ----------------------------------------
  Sum of atomic charges =    -2.000000

                    Cartesian Multipole Moments
 -----------------------------------------------------------------
    Charge (ESU x 10^10)
                -9.6064
    Dipole Moment (Debye)
         X      -3.6381      Y      -1.6101      Z       3.4877
       Tot       5.2908
    Quadrupole Moments (Debye-Ang)
        XX    -114.4978     XY     -24.7060     YY     -91.2366
        XZ      19.7622     YZ       7.2344     ZZ     -85.4669

 Total job time:  21.26s(wall), 123.09s(cpu)
        *  Thank you very much for using Q-Chem.  Have a nice day.  *
