 Gaussian 16, Revision A.03,
 Gaussian 16:  ES64L-G16RevA.03 25-Dec-2016

 ----------------------------------------------------------------------
 #P UB3LYP/6-311++G(d,p) nosym opt freq SCRF=(PCM,Solvent=n,n-DiMethylF
 ormamide)
 ----------------------------------------------------------------------

 --------
 Oxidized
 --------
 Symbolic Z-matrix:
 Charge =  0 Multiplicity = 1

 SCF Done:  E(UB3LYP) =  -655.630084553     A.U. after   15 cycles
 SCF Done:  E(UB3LYP) =  -655.630172604     A.U. after   11 cycles
 SCF Done:  E(UB3LYP) =  -655.630183835     A.U. after   11 cycles
 SCF Done:  E(UB3LYP) =  -655.630184987     A.U. after   10 cycles
 SCF Done:  E(UB3LYP) =  -655.630185740     A.U. after    9 cycles
 SCF Done:  E(UB3LYP) =  -655.630186025     A.U. after    9 cycles
 SCF Done:  E(UB3LYP) =  -655.630186205     A.U. after    9 cycles
 SCF Done:  E(UB3LYP) =  -655.630186356     A.U. after    9 cycles
 SCF Done:  E(UB3LYP) =  -655.630186490     A.U. after    8 cycles
 SCF Done:  E(UB3LYP) =  -655.630186808     A.U. after   10 cycles
 SCF Done:  E(UB3LYP) =  -655.630191003     A.U. after   11 cycles
 SCF Done:  E(UB3LYP) =  -655.630191626     A.U. after   11 cycles
 SCF Done:  E(UB3LYP) =  -655.630192907     A.U. after   11 cycles
 SCF Done:  E(UB3LYP) =  -655.630192959     A.U. after    9 cycles
 SCF Done:  E(UB3LYP) =  -655.630193011     A.U. after    9 cycles
 SCF Done:  E(UB3LYP) =  -655.630193044     A.U. after    8 cycles
 SCF Done:  E(UB3LYP) =  -655.630193081     A.U. after    8 cycles
 SCF Done:  E(UB3LYP) =  -655.630193109     A.U. after    8 cycles
 SCF Done:  E(UB3LYP) =  -655.630193130     A.U. after    8 cycles
 Optimization completed.
    -- Stationary point found.
 Normal termination of Gaussian 16 at Sat Feb 10 11:11:21 2024.

 ----------------------------------------------------------------------
 #P Geom=AllCheck Guess=TCheck SCRF=Check GenChk UB3LYP/6-311++G(d,p) F
 req
 ----------------------------------------------------------------------

 Structure from the checkpoint file:  "040.chk"
 --------
 Oxidized
 --------
 Charge =  0 Multiplicity = 1

                          Input orientation:
 ---------------------------------------------------------------------
 Center     Atomic      Atomic             Coordinates (Angstroms)
 Number     Number       Type             X           Y           Z
 ---------------------------------------------------------------------
      1          6           0        0.661246    1.422482    0.389928
      2          6           0       -0.517737    0.614437    0.029025
      3          6           0       -0.417677   -0.651349   -0.403425
      4          6           0        0.944489   -1.266363   -0.516446
      5          6           0        2.149500   -0.464963   -0.144156
      6          6           0        2.020235    0.816597    0.272560
      7          6           0        3.198507    1.671231    0.642011
      8          6           0        3.487305   -1.137234   -0.272960
      9          8           0        0.512867    2.576661    0.782332
     10          8           0        1.058949   -2.419850   -0.911784
     11          6           0       -1.591112   -1.524089   -0.780498
     12          6           0       -2.910188   -0.809238   -0.877939
     13          6           0       -3.987853   -0.959732   -0.095455
     14          6           0       -4.071873   -1.887239    1.090043
     15          6           0       -5.248630   -0.174282   -0.363071
     16          1           0       -1.477854    1.106160    0.137353
     17          1           0        3.957050    1.654368   -0.144899
     18          1           0        3.675332    1.300049    1.555682
     19          1           0        2.889350    2.700389    0.814621
     20          1           0        3.369726   -2.202828   -0.459539
     21          1           0        4.084498   -0.997489    0.631535
     22          1           0        4.057094   -0.707224   -1.103999
     23          1           0       -1.629823   -2.358275   -0.073907
     24          1           0       -1.353464   -1.988200   -1.745346
     25          1           0       -2.980650   -0.096636   -1.698153
     26          1           0       -3.150641   -2.437289    1.280023
     27          1           0       -4.879173   -2.614799    0.948383
     28          1           0       -4.319623   -1.321349    1.995202
     29          1           0       -5.142668    0.484757   -1.226967
     30          1           0       -5.518297    0.436353    0.506291
     31          1           0       -6.094340   -0.847521   -0.545101
 ---------------------------------------------------------------------

 SCF Done:  E(UB3LYP) =  -655.630193130     A.U. after    2 cycles

 Alpha  occ. eigenvalues --  -19.13948 -19.13633 -10.28364 -10.28086 -10.21672
 Alpha  occ. eigenvalues --  -10.21121 -10.21036 -10.19850 -10.18706 -10.18486
 Alpha  occ. eigenvalues --  -10.17362 -10.17349 -10.16785 -10.16539 -10.16385
 Alpha  occ. eigenvalues --   -1.06977  -1.06425  -0.86860  -0.83503  -0.80976
 Alpha  occ. eigenvalues --   -0.75108  -0.74824  -0.69626  -0.69237  -0.68761
 Alpha  occ. eigenvalues --   -0.64446  -0.59554  -0.57892  -0.54031  -0.51783
 Alpha  occ. eigenvalues --   -0.49532  -0.47753  -0.46904  -0.46086  -0.45117
 Alpha  occ. eigenvalues --   -0.43905  -0.43423  -0.42863  -0.42486  -0.42078
 Alpha  occ. eigenvalues --   -0.41573  -0.41128  -0.40209  -0.39293  -0.38778
 Alpha  occ. eigenvalues --   -0.38389  -0.37975  -0.37411  -0.36496  -0.33806
 Alpha  occ. eigenvalues --   -0.29960  -0.29106  -0.27655  -0.27332  -0.24707
 Alpha virt. eigenvalues --   -0.12987  -0.02105  -0.01010  -0.00319  -0.00003
 Alpha virt. eigenvalues --    0.00608   0.00946   0.01473   0.01832   0.02734
 Alpha virt. eigenvalues --    0.03080   0.03532   0.03969   0.04155   0.04573

  Beta  occ. eigenvalues --  -19.13948 -19.13633 -10.28364 -10.28086 -10.21672
  Beta  occ. eigenvalues --  -10.21121 -10.21036 -10.19850 -10.18706 -10.18486
  Beta  occ. eigenvalues --  -10.17362 -10.17349 -10.16785 -10.16539 -10.16385
  Beta  occ. eigenvalues --   -1.06977  -1.06425  -0.86860  -0.83503  -0.80976
  Beta  occ. eigenvalues --   -0.75108  -0.74824  -0.69626  -0.69237  -0.68761
  Beta  occ. eigenvalues --   -0.64446  -0.59554  -0.57892  -0.54031  -0.51783
  Beta  occ. eigenvalues --   -0.49532  -0.47753  -0.46904  -0.46086  -0.45117
  Beta  occ. eigenvalues --   -0.43905  -0.43423  -0.42863  -0.42486  -0.42078
  Beta  occ. eigenvalues --   -0.41573  -0.41128  -0.40209  -0.39293  -0.38778
  Beta  occ. eigenvalues --   -0.38389  -0.37975  -0.37411  -0.36496  -0.33806
  Beta  occ. eigenvalues --   -0.29960  -0.29106  -0.27655  -0.27332  -0.24707
  Beta virt. eigenvalues --   -0.12987  -0.02105  -0.01010  -0.00319  -0.00003
  Beta virt. eigenvalues --    0.00608   0.00946   0.01473   0.01832   0.02734
  Beta virt. eigenvalues --    0.03080   0.03532   0.03969   0.04155   0.04573

 Mulliken charges and spin densities:
               1          2
     1  C   -0.975769   0.000000
     2  C   -1.070512   0.000000
     3  C    1.445756  -0.000000
     4  C   -1.082299  -0.000000
     5  C    0.315035  -0.000000
     6  C    1.200501   0.000000
     7  C   -0.428006  -0.000000
     8  C   -0.509759   0.000000
     9  O   -0.287016  -0.000000
    10  O   -0.257243   0.000000
    11  C   -0.499064   0.000000
    12  C    0.313881  -0.000000
    13  C    0.238198   0.000000
    14  C   -0.630519   0.000000
    15  C   -0.605198  -0.000000
    16  H    0.217555  -0.000000
    17  H    0.169918   0.000000
    18  H    0.188228   0.000000
    19  H    0.191583   0.000000
    20  H    0.195708   0.000000
    21  H    0.168070  -0.000000
    22  H    0.192053  -0.000000
    23  H    0.205014   0.000000
    24  H    0.216662  -0.000000
    25  H    0.185483  -0.000000
    26  H    0.129596  -0.000000
    27  H    0.153450   0.000000
    28  H    0.158827   0.000000
    29  H    0.155168   0.000000
    30  H    0.155621  -0.000000
    31  H    0.149078   0.000000
 Sum of Mulliken charges =  -0.00000   0.00000

 Dipole moment (field-independent basis, Debye):
    X=              0.1335    Y=             -0.9152    Z=              0.2165  Tot=              0.9499
 Quadrupole moment (field-independent basis, Debye-Ang):
   XX=            -72.1958   YY=           -108.0791   ZZ=            -91.2953
   XY=              4.4320   XZ=              0.0223   YZ=             -7.4593

  Exact polarizability: 237.245   0.826 260.595 -10.504  35.153 163.760
 Approx polarizability: 232.095  -8.483 337.859 -17.273  56.016 193.405

                      1                      2                      3
                      A                      A                      A
 Frequencies --     28.3033                28.7748                35.5155
 Red. masses --      3.1297                 3.4878                 1.1094
 Frc consts  --      0.0015                 0.0017                 0.0008
 IR Inten    --      0.4021                 1.8742                 0.0002

                      4                      5                      6
                      A                      A                      A
 Frequencies --     59.5655                76.4108                79.1245
 Red. masses --      5.0752                 2.8605                 1.0982
 Frc consts  --      0.0106                 0.0098                 0.0041
 IR Inten    --     11.8009                 1.7247                 0.0040

                      7                      8                      9
                      A                      A                      A
 Frequencies --    106.9997               138.6666               142.9575
 Red. masses --      3.1307                 1.0518                 4.7052
 Frc consts  --      0.0211                 0.0119                 0.0567
 IR Inten    --      0.0262                 0.2492                 3.4185

                     10                     11                     12
                      A                      A                      A
 Frequencies --    183.2841               216.6176               254.0523
 Red. masses --      1.3487                 2.6335                 3.3587
 Frc consts  --      0.0267                 0.0728                 0.1277
 IR Inten    --      1.2929                 1.1522                 0.2415

                     13                     14                     15
                      A                      A                      A
 Frequencies --    277.9465               298.4730               316.8171
 Red. masses --      2.9999                 2.4643                 2.5956
 Frc consts  --      0.1365                 0.1293                 0.1535
 IR Inten    --      0.1627                 2.1807                 0.9398

                     16                     17                     18
                      A                      A                      A
 Frequencies --    335.6985               361.1506               400.9836
 Red. masses --      3.9433                 3.2524                 2.4435
 Frc consts  --      0.2618                 0.2499                 0.2315
 IR Inten    --      2.0204                 0.7837                 0.1103

                     19                     20                     21
                      A                      A                      A
 Frequencies --    417.6938               443.8322               463.7488
 Red. masses --      8.4568                 3.1468                 4.8671
 Frc consts  --      0.8693                 0.3652                 0.6167
 IR Inten    --     43.0873                 7.3513                 1.9887

                     22                     23                     24
                      A                      A                      A
 Frequencies --    491.0487               502.6645               530.5942
 Red. masses --      4.5333                 3.3406                 2.9692
 Frc consts  --      0.6440                 0.4973                 0.4925
 IR Inten    --      3.1438                 0.4706                 8.5199

                     25                     26                     27
                      A                      A                      A
 Frequencies --    593.5529               670.8822               694.4296
 Red. masses --      4.1933                 3.4717                 3.7651
 Frc consts  --      0.8704                 0.9206                 1.0698
 IR Inten    --      6.4955                 8.9876                 6.3104

                     28                     29                     30
                      A                      A                      A
 Frequencies --    700.1990               777.5459               796.4072
 Red. masses --      5.3466                 2.7906                 5.1255
 Frc consts  --      1.5445                 0.9940                 1.9154
 IR Inten    --      7.9077                 4.3949                 2.2502

                     31                     32                     33
                      A                      A                      A
 Frequencies --    835.8646               873.5387               896.7975
 Red. masses --      1.9629                 1.9162                 1.5598
 Frc consts  --      0.8080                 0.8615                 0.7391
 IR Inten    --     14.7945                19.9273                43.3534

                     34                     35                     36
                      A                      A                      A
 Frequencies --    924.3337               957.9064               961.4147
 Red. masses --      3.1620                 1.7302                 1.4699
 Frc consts  --      1.5917                 0.9354                 0.8005
 IR Inten    --     14.3706                11.5529                 5.9619

                     37                     38                     39
                      A                      A                      A
 Frequencies --   1001.3131              1010.4908              1019.8466
 Red. masses --      1.8201                 1.2546                 1.4617
 Frc consts  --      1.0752                 0.7548                 0.8958
 IR Inten    --     48.0817                10.4278                 3.3736

                     40                     41                     42
                      A                      A                      A
 Frequencies --   1043.3221              1056.1348              1099.9214
 Red. masses --      2.0129                 1.5627                 1.6886
 Frc consts  --      1.2909                 1.0270                 1.2037
 IR Inten    --      3.9432                 1.3572                 0.3459

                     43                     44                     45
                      A                      A                      A
 Frequencies --   1107.2432              1123.2580              1130.0272
 Red. masses --      3.3285                 2.1554                 2.0142
 Frc consts  --      2.4043                 1.6023                 1.5154
 IR Inten    --     65.8206                 3.9968                11.1039

                     46                     47                     48
                      A                      A                      A
 Frequencies --   1174.0613              1187.5382              1250.4959
 Red. masses --      2.8298                 1.6041                 1.6984
 Frc consts  --      2.2982                 1.3329                 1.5648
 IR Inten    --     97.8986                 5.5008                67.6810

                     49                     50                     51
                      A                      A                      A
 Frequencies --   1261.7167              1308.0445              1317.3249
 Red. masses --      2.1387                 2.1559                 3.9410
 Frc consts  --      2.0060                 2.1734                 4.0294
 IR Inten    --     87.8603                40.3690               158.3378

                     52                     53                     54
                      A                      A                      A
 Frequencies --   1369.5472              1390.4571              1397.9840
 Red. masses --      1.5664                 1.5837                 1.3955
 Frc consts  --      1.7311                 1.8040                 1.6069
 IR Inten    --      9.3058                 7.4155                13.3912

                     55                     56                     57
                      A                      A                      A
 Frequencies --   1401.1208              1405.9638              1412.2514
 Red. masses --      1.1999                 1.3734                 1.2675
 Frc consts  --      1.3879                 1.5996                 1.4895
 IR Inten    --     26.9015                13.4930                 4.7524

                     58                     59                     60
                      A                      A                      A
 Frequencies --   1447.3787              1463.2056              1469.4744
 Red. masses --      1.1014                 1.0449                 1.0674
 Frc consts  --      1.3594                 1.3181                 1.3581
 IR Inten    --     27.6162                 0.6250                 1.2157

                     61                     62                     63
                      A                      A                      A
 Frequencies --   1473.0363              1476.8599              1478.9655
 Red. masses --      1.1066                 1.0474                 1.0481
 Frc consts  --      1.4147                 1.3459                 1.3508
 IR Inten    --     56.6667                 0.2504                23.8159

                     64                     65                     66
                      A                      A                      A
 Frequencies --   1481.0235              1485.4530              1487.8926
 Red. masses --      1.0451                 1.0865                 1.0433
 Frc consts  --      1.3506                 1.4126                 1.3608
 IR Inten    --     16.1330                10.0231                34.0124

                     67                     68                     69
                      A                      A                      A
 Frequencies --   1648.6822              1668.8151              1679.1288
 Red. masses --      8.6569                12.2665                11.7658
 Frc consts  --     13.8639                20.1274                19.5453
 IR Inten    --    128.0519               884.7854               366.7296

                     70                     71                     72
                      A                      A                      A
 Frequencies --   1703.9959              1723.2191              3007.0801
 Red. masses --      8.4833                 6.4418                 1.0379
 Frc consts  --     14.5128                11.2705                 5.5296
 IR Inten    --     14.3597                 9.9682                41.3624

                     73                     74                     75
                      A                      A                      A
 Frequencies --   3014.5092              3022.7270              3025.1171
 Red. masses --      1.0408                 1.0674                 1.0427
 Frc consts  --      5.5724                 5.7462                 5.6222
 IR Inten    --     71.1274                10.7348                30.7116

                     76                     77                     78
                      A                      A                      A
 Frequencies --   3028.6849              3049.5314              3053.2555
 Red. masses --      1.0441                 1.0994                 1.0990
 Frc consts  --      5.6431                 6.0240                 6.0363
 IR Inten    --      3.8722                22.0916                44.4607

                     79                     80                     81
                      A                      A                      A
 Frequencies --   3060.0436              3073.4439              3082.1445
 Red. masses --      1.0908                 1.0951                 1.0958
 Frc consts  --      6.0181                 6.0949                 6.1333
 IR Inten    --      6.5275                29.1479                 4.7928

                     82                     83                     84
                      A                      A                      A
 Frequencies --   3097.8291              3116.5700              3117.4627
 Red. masses --      1.0999                 1.0899                 1.0936
 Frc consts  --      6.2189                 6.2375                 6.2620
 IR Inten    --     34.1253                20.0511                61.3399

                     85                     86                     87
                      A                      A                      A
 Frequencies --   3138.9433              3140.2853              3182.2057
 Red. masses --      1.0978                 1.0979                 1.0917
 Frc consts  --      6.3728                 6.3788                 6.5134
 IR Inten    --      9.3725                10.0720                 2.5322

 - Thermochemistry -
 -------------------
 Temperature   298.150 Kelvin.  Pressure   1.00000 Atm.
 Atom     1 has atomic number  6 and mass  12.00000

 Molecular mass:   204.11503 amu.
 Principal axes and moments of inertia in atomic units:
                           1         2         3
     Eigenvalues --  1686.180755714.317306980.53662
           X            0.97900  -0.20174   0.02928
           Y            0.20172   0.93796  -0.28202
           Z            0.02943   0.28200   0.95896
 This molecule is an asymmetric top.
 Rotational symmetry number  1.
 Warning -- assumption of classical behavior for rotation
           may cause significant error
 Rotational temperatures (Kelvin)      0.05137     0.01516     0.01241
 Rotational constants (GHZ):           1.07031     0.31583     0.25854
 Zero-point vibrational energy     671337.2 (Joules/Mol)
                                  160.45345 (Kcal/Mol)
 Warning -- explicit consideration of  25 degrees of freedom as
           vibrations may cause significant error
 Vibrational temperatures:     40.72    41.40    51.10    85.70   109.94
          (Kelvin)            113.84   153.95   199.51   205.68   263.70
                              311.66   365.52   399.90   429.44   455.83
                              483.00   519.62   576.93   600.97   638.58
                              667.23   706.51   723.22   763.41   853.99
                              965.25   999.13  1007.43  1118.72  1145.85
                             1202.62  1256.83  1290.29  1329.91  1378.21
                             1383.26  1440.67  1453.87  1467.33  1501.11
                             1519.54  1582.54  1593.08  1616.12  1625.86
                             1689.21  1708.60  1799.18  1815.33  1881.98
                             1895.34  1970.47  2000.56  2011.39  2015.90
                             2022.87  2031.91  2082.46  2105.23  2114.25
                             2119.37  2124.87  2127.90  2130.86  2137.24
                             2140.75  2372.09  2401.05  2415.89  2451.67
                             2479.33  4326.52  4337.21  4349.03  4352.47
                             4357.60  4387.60  4392.95  4402.72  4422.00
                             4434.52  4457.09  4484.05  4485.33  4516.24
                             4518.17  4578.48

 Zero-point correction=                           0.255699 (Hartree/Particle)
 Thermal correction to Energy=                    0.272398
 Thermal correction to Enthalpy=                  0.273342
 Thermal correction to Gibbs Free Energy=         0.209282
 Sum of electronic and zero-point Energies=           -655.374494
 Sum of electronic and thermal Energies=              -655.357796
 Sum of electronic and thermal Enthalpies=            -655.356851
 Sum of electronic and thermal Free Energies=         -655.420911

                     E (Thermal)             CV                S
                      KCal/Mol        Cal/Mol-Kelvin    Cal/Mol-Kelvin
 Total                  170.932             59.863            134.826
 Electronic               0.000              0.000              0.000
 Translational            0.889              2.981             41.845
 Rotational               0.889              2.981             32.575
 Vibrational            169.155             53.901             60.406
 Vibration     1          0.593              1.984              5.945
 Vibration     2          0.593              1.984              5.912
 Vibration     3          0.594              1.982              5.495
 Vibration     4          0.597              1.974              4.472
 Vibration     5          0.599              1.965              3.981
 Vibration     6          0.600              1.963              3.912
 Vibration     7          0.606              1.944              3.323
 Vibration     8          0.614              1.915              2.822
 Vibration     9          0.616              1.910              2.764
 Vibration    10          0.631              1.863              2.295
 Vibration    11          0.645              1.816              1.987
 Vibration    12          0.665              1.756              1.702
 Vibration    13          0.679              1.714              1.546
 Vibration    14          0.692              1.677              1.425
 Vibration    15          0.704              1.641              1.326
 Vibration    16          0.717              1.604              1.233
 Vibration    17          0.735              1.552              1.117
 Vibration    18          0.767              1.468              0.959
 Vibration    19          0.781              1.432              0.900
 Vibration    20          0.803              1.374              0.815
 Vibration    21          0.821              1.330              0.755
 Vibration    22          0.847              1.270              0.681
 Vibration    23          0.858              1.244              0.651
 Vibration    24          0.886              1.182              0.586
 Vibration    25          0.951              1.046              0.461

                           ! Non-Optimized Parameters !
 Normal termination of Gaussian 16 at Sat Feb 10 11:44:28 2024.
