 Gaussian 16, Revision A.03,
 Gaussian 16:  ES64L-G16RevA.03 25-Dec-2016

 ----------------------------------------------------------------------
 #P UB3LYP/6-311++G(d,p) nosym opt freq SCRF=(PCM,Solvent=n,n-DiMethylF
 ormamide)
 ----------------------------------------------------------------------

 --------
 Oxidized
 --------
 Symbolic Z-matrix:
 Charge =  0 Multiplicity = 1

 SCF Done:  E(UB3LYP) =  -1941.06092085     A.U. after   16 cycles
 SCF Done:  E(UB3LYP) =  -1941.06125810     A.U. after   17 cycles
 SCF Done:  E(UB3LYP) =  -1941.06154045     A.U. after   17 cycles
 SCF Done:  E(UB3LYP) =  -1941.06181255     A.U. after   14 cycles
 SCF Done:  E(UB3LYP) =  -1941.06187877     A.U. after   14 cycles
 SCF Done:  E(UB3LYP) =  -1941.06189004     A.U. after   14 cycles
 SCF Done:  E(UB3LYP) =  -1941.06189177     A.U. after   14 cycles
 SCF Done:  E(UB3LYP) =  -1941.06189484     A.U. after   13 cycles
 SCF Done:  E(UB3LYP) =  -1941.06189499     A.U. after   12 cycles
 SCF Done:  E(UB3LYP) =  -1941.06189506     A.U. after   11 cycles
 SCF Done:  E(UB3LYP) =  -1941.06189506     A.U. after   10 cycles
 Optimization completed.
    -- Stationary point found.
 Normal termination of Gaussian 16 at Sat Feb 10 13:02:29 2024.

 ----------------------------------------------------------------------
 #P Geom=AllCheck Guess=TCheck SCRF=Check GenChk UB3LYP/6-311++G(d,p) F
 req
 ----------------------------------------------------------------------

 Structure from the checkpoint file:  "072.chk"
 --------
 Oxidized
 --------
 Charge =  0 Multiplicity = 1

                          Input orientation:
 ---------------------------------------------------------------------
 Center     Atomic      Atomic             Coordinates (Angstroms)
 Number     Number       Type             X           Y           Z
 ---------------------------------------------------------------------
      1          6           0        0.687434    1.145905   -1.510734
      2          6           0       -0.753956    0.875184   -1.778162
      3          6           0       -1.509346    0.165669   -0.933873
      4          6           0       -0.956070   -0.387145    0.332835
      5          6           0        0.490892   -0.136040    0.588990
      6          6           0        1.248275    0.567118   -0.258952
      7          8           0        1.343275    1.816075   -2.282848
      8          8           0       -1.628288   -1.000186    1.137661
      9         16           0        3.024638    0.766856    0.121692
     10          6           0        3.266427    2.528716    0.344621
     11          6           0        3.767568    3.285175   -0.713369
     12          6           0        2.963899    3.093213    1.584776
     13          6           0        3.165816    4.459338    1.760693
     14          6           0        3.970335    4.649107   -0.517517
     15          6           0        3.667940    5.233077    0.713120
     16          8           0        3.782582    0.310772   -1.049550
     17          8           0        3.225254    0.101473    1.417128
     18          1           0        3.994002    2.816094   -1.661014
     19          1           0        2.590243    2.479291    2.394186
     20          1           0        4.365362    5.252814   -1.325507
     21          1           0        2.938860    4.915722    2.716440
     22          1           0        3.825803    6.295426    0.857532
     23         16           0       -3.247355   -0.165934   -1.390845
     24          6           0       -4.233137    0.643033   -0.131646
     25          6           0       -4.485055    2.010154   -0.256390
     26          6           0       -4.740166   -0.112373    0.924231
     27          6           0       -5.524064    0.526509    1.881878
     28          6           0       -5.264272    2.634098    0.713914
     29          6           0       -5.782135    1.893809    1.777866
     30          1           0       -1.155147    1.288551   -2.696407
     31          1           0        0.892693   -0.551380    1.506071
     32          1           0       -4.090466    2.569604   -1.094806
     33          1           0       -4.527673   -1.170574    0.990076
     34          1           0       -5.933072   -0.044619    2.706419
     35          1           0       -5.472443    3.694034    0.633667
     36          1           0       -6.390894    2.384693    2.528086
     37          8           0       -3.453591   -1.617468   -1.319828
     38          8           0       -3.457359    0.532779   -2.667125
 ---------------------------------------------------------------------

 SCF Done:  E(UB3LYP) =  -1941.06189506     A.U. after    2 cycles

 Alpha  occ. eigenvalues --  -89.08100 -89.08098 -19.17195 -19.17192 -19.14390
 Alpha  occ. eigenvalues --  -19.14388 -19.14362 -19.14356 -10.32339 -10.32337
 Alpha  occ. eigenvalues --  -10.26305 -10.26304 -10.25002 -10.25001 -10.23264
 Alpha  occ. eigenvalues --  -10.23262 -10.21078 -10.21075 -10.20921 -10.20919
 Alpha  occ. eigenvalues --  -10.20212 -10.20211 -10.19997 -10.19995 -10.19956
 Alpha  occ. eigenvalues --  -10.19955  -8.14465  -8.14462  -6.10726  -6.10722
 Alpha  occ. eigenvalues --   -6.10667  -6.10664  -6.10563  -6.10560  -1.13882
 Alpha  occ. eigenvalues --   -1.13860  -1.10478  -1.10321  -1.03371  -1.03366
 Alpha  occ. eigenvalues --   -0.90503  -0.89349  -0.89287  -0.84637  -0.80101
 Alpha  occ. eigenvalues --   -0.79693  -0.77898  -0.77894  -0.75198  -0.73120
 Alpha  occ. eigenvalues --   -0.69334  -0.66372  -0.65472  -0.63771  -0.63759
 Alpha  occ. eigenvalues --   -0.61822  -0.59873  -0.57042  -0.56367  -0.56073
 Alpha  occ. eigenvalues --   -0.54065  -0.53250  -0.51014  -0.50498  -0.50201
 Alpha  occ. eigenvalues --   -0.49725  -0.49451  -0.48483  -0.48064  -0.48057
 Alpha  occ. eigenvalues --   -0.47113  -0.47094  -0.46826  -0.46790  -0.45333
 Alpha  occ. eigenvalues --   -0.45251  -0.45087  -0.44803  -0.40280  -0.40252
 Alpha  occ. eigenvalues --   -0.39498  -0.39444  -0.37612  -0.37608  -0.37264
 Alpha  occ. eigenvalues --   -0.36835  -0.35816  -0.35661  -0.34704  -0.34538
 Alpha  occ. eigenvalues --   -0.33997  -0.33487  -0.33064  -0.32866  -0.32123
 Alpha  occ. eigenvalues --   -0.30169  -0.28918  -0.28897  -0.28394  -0.28361
 Alpha virt. eigenvalues --   -0.16765  -0.08705  -0.06139  -0.05019  -0.03916
 Alpha virt. eigenvalues --   -0.03879  -0.03641  -0.01116  -0.00492   0.00489
 Alpha virt. eigenvalues --    0.00729   0.01025   0.01310   0.01407   0.02164

  Beta  occ. eigenvalues --  -89.08100 -89.08098 -19.17195 -19.17192 -19.14390
  Beta  occ. eigenvalues --  -19.14388 -19.14362 -19.14356 -10.32339 -10.32337
  Beta  occ. eigenvalues --  -10.26305 -10.26304 -10.25002 -10.25001 -10.23264
  Beta  occ. eigenvalues --  -10.23262 -10.21078 -10.21075 -10.20921 -10.20919
  Beta  occ. eigenvalues --  -10.20212 -10.20211 -10.19997 -10.19995 -10.19956
  Beta  occ. eigenvalues --  -10.19955  -8.14465  -8.14462  -6.10726  -6.10722
  Beta  occ. eigenvalues --   -6.10667  -6.10664  -6.10563  -6.10560  -1.13882
  Beta  occ. eigenvalues --   -1.13860  -1.10478  -1.10321  -1.03371  -1.03366
  Beta  occ. eigenvalues --   -0.90503  -0.89349  -0.89287  -0.84637  -0.80101
  Beta  occ. eigenvalues --   -0.79693  -0.77898  -0.77894  -0.75198  -0.73120
  Beta  occ. eigenvalues --   -0.69334  -0.66372  -0.65472  -0.63771  -0.63759
  Beta  occ. eigenvalues --   -0.61822  -0.59873  -0.57042  -0.56367  -0.56073
  Beta  occ. eigenvalues --   -0.54065  -0.53250  -0.51014  -0.50498  -0.50201
  Beta  occ. eigenvalues --   -0.49725  -0.49451  -0.48483  -0.48064  -0.48057
  Beta  occ. eigenvalues --   -0.47113  -0.47094  -0.46826  -0.46790  -0.45333
  Beta  occ. eigenvalues --   -0.45251  -0.45087  -0.44803  -0.40280  -0.40252
  Beta  occ. eigenvalues --   -0.39498  -0.39444  -0.37612  -0.37608  -0.37264
  Beta  occ. eigenvalues --   -0.36835  -0.35816  -0.35661  -0.34704  -0.34538
  Beta  occ. eigenvalues --   -0.33997  -0.33487  -0.33064  -0.32866  -0.32123
  Beta  occ. eigenvalues --   -0.30169  -0.28918  -0.28897  -0.28394  -0.28361
  Beta virt. eigenvalues --   -0.16765  -0.08705  -0.06139  -0.05019  -0.03916
  Beta virt. eigenvalues --   -0.03879  -0.03641  -0.01116  -0.00492   0.00489
  Beta virt. eigenvalues --    0.00729   0.01025   0.01310   0.01407   0.02164

 Mulliken charges and spin densities:
               1          2
     1  C   -0.516468   0.000000
     2  C   -0.424012  -0.000000
     3  C    0.454822  -0.000000
     4  C   -0.506220   0.000000
     5  C   -0.422085   0.000000
     6  C    0.443286  -0.000000
     7  O   -0.173900   0.000000
     8  O   -0.173527  -0.000000
     9  S    0.491486  -0.000000
    10  C    0.613367  -0.000000
    11  C   -0.191304   0.000000
    12  C   -0.134749   0.000000
    13  C   -0.524488  -0.000000
    14  C   -0.397777  -0.000000
    15  C   -0.312025  -0.000000
    16  O   -0.179174  -0.000000
    17  O   -0.184845  -0.000000
    18  H    0.271033   0.000000
    19  H    0.252981  -0.000000
    20  H    0.223730   0.000000
    21  H    0.220249   0.000000
    22  H    0.201992   0.000000
    23  S    0.498386  -0.000000
    24  C    0.615208   0.000000
    25  C   -0.132879  -0.000000
    26  C   -0.195125  -0.000000
    27  C   -0.396422  -0.000000
    28  C   -0.525898  -0.000000
    29  C   -0.313012  -0.000000
    30  H    0.305370  -0.000000
    31  H    0.305398   0.000000
    32  H    0.252726  -0.000000
    33  H    0.270432  -0.000000
    34  H    0.223762   0.000000
    35  H    0.220351   0.000000
    36  H    0.201909  -0.000000
    37  O   -0.178535  -0.000000
    38  O   -0.184044   0.000000
 Sum of Mulliken charges =  -0.00000  -0.00000

 Dipole moment (field-independent basis, Debye):
    X=             -2.8793    Y=              9.9498    Z=              5.7389  Tot=             11.8416
 Quadrupole moment (field-independent basis, Debye-Ang):
   XX=           -171.0717   YY=           -133.6059   ZZ=           -171.1832
   XY=             -0.7778   XZ=            -20.0226   YZ=              6.8320

  Exact polarizability: 366.230  47.871 375.751 -73.170 -27.811 357.536
 Approx polarizability: 387.843  59.919 458.256-111.984 -65.504 460.943

                      1                      2                      3
                      A                      A                      A
 Frequencies --     15.4990                19.7150                30.3350
 Red. masses --      5.7038                 6.1418                 3.9820
 Frc consts  --      0.0008                 0.0014                 0.0022
 IR Inten    --      0.3745                 0.0301                 0.0002

                      4                      5                      6
                      A                      A                      A
 Frequencies --     37.3675                39.8404                55.9612
 Red. masses --      5.2570                 6.8323                 7.4001
 Frc consts  --      0.0043                 0.0064                 0.0137
 IR Inten    --      0.4507                 1.6809                 0.9142

                      7                      8                      9
                      A                      A                      A
 Frequencies --     73.3290               118.2276               132.0495
 Red. masses --      9.0661                11.3079                 9.2551
 Frc consts  --      0.0287                 0.0931                 0.0951
 IR Inten    --      0.3662                 6.3588                26.6705

                     10                     11                     12
                      A                      A                      A
 Frequencies --    147.4068               164.4557               173.1175
 Red. masses --      5.6159                 7.3939                 8.0625
 Frc consts  --      0.0719                 0.1178                 0.1424
 IR Inten    --      4.7556                 0.8810                 0.1673

                     13                     14                     15
                      A                      A                      A
 Frequencies --    178.3635               189.0104               205.2323
 Red. masses --      6.6761                 8.9833                 5.8830
 Frc consts  --      0.1251                 0.1891                 0.1460
 IR Inten    --      2.0430                 0.1209                 3.7642

                     16                     17                     18
                      A                      A                      A
 Frequencies --    230.5777               264.6097               270.7577
 Red. masses --      7.5472                 9.2176                12.6126
 Frc consts  --      0.2364                 0.3803                 0.5448
 IR Inten    --      0.1228                 3.3086                 0.0555

                     19                     20                     21
                      A                      A                      A
 Frequencies --    292.9542               303.3868               303.9283
 Red. masses --     13.3672                 8.6268                 9.2536
 Frc consts  --      0.6759                 0.4678                 0.5036
 IR Inten    --      2.8421                 7.9464                 1.3571

                     22                     23                     24
                      A                      A                      A
 Frequencies --    357.4803               376.1027               408.5935
 Red. masses --      7.9078                 4.8429                 2.8548
 Frc consts  --      0.5954                 0.4036                 0.2808
 IR Inten    --     10.3384                 0.8465                 0.0446

                     25                     26                     27
                      A                      A                      A
 Frequencies --    409.0476               416.8221               427.5986
 Red. masses --      2.8556                 5.8798                10.9599
 Frc consts  --      0.2815                 0.6019                 1.1807
 IR Inten    --      0.0167                 0.0490                29.8865

                     28                     29                     30
                      A                      A                      A
 Frequencies --    448.2426               449.2933               467.4424
 Red. masses --      6.8919                 5.5953                 9.4200
 Frc consts  --      0.8159                 0.6655                 1.2127
 IR Inten    --     78.1120                 0.5423                 1.3232

                     31                     32                     33
                      A                      A                      A
 Frequencies --    487.6497               512.0819               541.4377
 Red. masses --      5.4767                 8.1174                12.4558
 Frc consts  --      0.7673                 1.2541                 2.1514
 IR Inten    --     92.2700               143.3795                34.9882

                     34                     35                     36
                      A                      A                      A
 Frequencies --    552.3327               600.9809               608.0427
 Red. masses --      7.8933                 9.2940                 6.4998
 Frc consts  --      1.4188                 1.9778                 1.4159
 IR Inten    --     64.5799               559.4418                 0.5728

                     37                     38                     39
                      A                      A                      A
 Frequencies --    624.0213               624.6347               675.9625
 Red. masses --      6.4623                 6.4660                 6.9961
 Frc consts  --      1.4826                 1.4864                 1.8834
 IR Inten    --      0.1741                 0.2310                 6.2906

                     40                     41                     42
                      A                      A                      A
 Frequencies --    694.5148               694.9595               699.9928
 Red. masses --      2.1574                 2.1898                 5.9219
 Frc consts  --      0.6131                 0.6231                 1.7096
 IR Inten    --     71.3463                49.7446                16.5356

                     43                     44                     45
                      A                      A                      A
 Frequencies --    715.7343               732.8382               763.6077
 Red. masses --      6.9306                 8.2613                 1.5861
 Frc consts  --      2.0918                 2.6141                 0.5449
 IR Inten    --    117.8492               142.8105                57.0774

                     46                     47                     48
                      A                      A                      A
 Frequencies --    763.9041               782.3661               821.5567
 Red. masses --      1.5904                 3.8398                 4.7046
 Frc consts  --      0.5468                 1.3848                 1.8709
 IR Inten    --      6.9937                 0.1777                 8.7018

                     49                     50                     51
                      A                      A                      A
 Frequencies --    850.6294               851.6268               880.4362
 Red. masses --      1.2488                 1.2479                10.8893
 Frc consts  --      0.5324                 0.5332                 4.9733
 IR Inten    --      0.0522                 0.0330                11.5776

                     52                     53                     54
                      A                      A                      A
 Frequencies --    932.3972               947.0525               948.2227
 Red. masses --      1.5263                 1.3364                 1.3357
 Frc consts  --      0.7818                 0.7062                 0.7076
 IR Inten    --      4.7910                 0.6106                 0.6327

                     55                     56                     57
                      A                      A                      A
 Frequencies --    967.6732               998.0225               998.3581
 Red. masses --      1.4732                 1.3941                 1.3950
 Frc consts  --      0.8127                 0.8182                 0.8192
 IR Inten    --     39.1768                 0.7131                 0.6828

                     58                     59                     60
                      A                      A                      A
 Frequencies --   1001.5688              1011.7276              1013.5647
 Red. masses --      4.3639                 6.2682                 5.6829
 Frc consts  --      2.5792                 3.7802                 3.4398
 IR Inten    --     34.4771                19.8986                 9.4129

                     61                     62                     63
                      A                      A                      A
 Frequencies --   1022.2635              1022.3829              1035.6189
 Red. masses --      1.3242                 1.3229                 3.8733
 Frc consts  --      0.8153                 0.8147                 2.4476
 IR Inten    --      0.0974                 0.0802                37.6555

                     64                     65                     66
                      A                      A                      A
 Frequencies --   1038.5983              1060.6802              1066.5980
 Red. masses --      3.1354                 3.2627                 3.4280
 Frc consts  --      1.9927                 2.1627                 2.2977
 IR Inten    --     12.7391                43.6636               214.9561

                     67                     68                     69
                      A                      A                      A
 Frequencies --   1100.2121              1101.6399              1105.6467
 Red. masses --      1.5542                 1.5781                 5.0547
 Frc consts  --      1.1084                 1.1284                 3.6407
 IR Inten    --     14.1148                17.8598               419.3763

                     70                     71                     72
                      A                      A                      A
 Frequencies --   1106.6486              1178.4578              1183.0518
 Red. masses --      5.1583                 5.0963                 1.1104
 Frc consts  --      3.7220                 4.1700                 0.9157
 IR Inten    --    181.2832               355.3739                 0.6336

                     73                     74                     75
                      A                      A                      A
 Frequencies --   1184.0667              1195.1328              1197.1743
 Red. masses --      1.1120                 1.1686                 1.1686
 Frc consts  --      0.9186                 0.9834                 0.9868
 IR Inten    --      0.6578                 0.6891                 0.7350

                     76                     77                     78
                      A                      A                      A
 Frequencies --   1201.3179              1244.7829              1245.8809
 Red. masses --      1.6653                18.1313                16.2580
 Frc consts  --      1.4160                16.5526                14.8686
 IR Inten    --     15.5920               450.2626               240.0143

                     79                     80                     81
                      A                      A                      A
 Frequencies --   1330.3474              1330.6727              1333.2948
 Red. masses --      2.6419                 2.4197                 2.5540
 Frc consts  --      2.7548                 2.5244                 2.6750
 IR Inten    --      7.8222                27.6485                25.4556

                     82                     83                     84
                      A                      A                      A
 Frequencies --   1333.6977              1343.5786              1345.4559
 Red. masses --      2.4311                 1.9967                 1.8512
 Frc consts  --      2.5479                 2.1237                 1.9744
 IR Inten    --     34.7420                 8.9147                 8.8563

                     85                     86                     87
                      A                      A                      A
 Frequencies --   1475.4681              1475.8974              1502.5258
 Red. masses --      2.1298                 2.1281                 2.0091
 Frc consts  --      2.7318                 2.7312                 2.6723
 IR Inten    --     28.7546                28.5817                 3.3182

                     88                     89                     90
                      A                      A                      A
 Frequencies --   1503.4796              1615.3596              1615.8286
 Red. masses --      1.9981                 5.3742                 5.3379
 Frc consts  --      2.6611                 8.2623                 8.2113
 IR Inten    --      3.5722                 9.9194                10.4593

                     91                     92                     93
                      A                      A                      A
 Frequencies --   1620.9609              1621.0205              1642.3765
 Red. masses --      5.7733                 5.7499                 9.1121
 Frc consts  --      8.9376                 8.9021                14.4816
 IR Inten    --      0.1017                 0.1664                43.4958

                     94                     95                     96
                      A                      A                      A
 Frequencies --   1674.4508              1722.9778              1723.7553
 Red. masses --      9.0381                11.9301                12.5796
 Frc consts  --     14.9305                20.8667                22.0226
 IR Inten    --      0.0307                 0.7986               949.0610

                     97                     98                     99
                      A                      A                      A
 Frequencies --   3179.5125              3179.5814              3190.0831
 Red. masses --      1.0872                 1.0872                 1.0901
 Frc consts  --      6.4759                 6.4761                 6.5360
 IR Inten    --      0.9582                 0.9557                11.2008

                    100                    101                    102
                      A                      A                      A
 Frequencies --   3190.1416              3197.7212              3197.7573
 Red. masses --      1.0900                 1.0943                 1.0944
 Frc consts  --      6.5361                 6.5926                 6.5933
 IR Inten    --     11.1547                10.3996                10.4945

                    103                    104                    105
                      A                      A                      A
 Frequencies --   3198.3667              3199.5714              3207.3114
 Red. masses --      1.0925                 1.0928                 1.0956
 Frc consts  --      6.5844                 6.5912                 6.6400
 IR Inten    --     26.7737                 0.3136                 6.1383

                    106                    107                    108
                      A                      A                      A
 Frequencies --   3207.6587              3218.9532              3219.0231
 Red. masses --      1.0954                 1.0937                 1.0937
 Frc consts  --      6.6402                 6.6769                 6.6771
 IR Inten    --      6.2327                 4.2809                 4.1295

 - Thermochemistry -
 -------------------
 Temperature   298.150 Kelvin.  Pressure   1.00000 Atm.
 Atom     1 has atomic number  6 and mass  12.00000

 Molecular mass:   388.00753 amu.
 Principal axes and moments of inertia in atomic units:
                           1         2         3
     Eigenvalues --  5398.78936********************
           X            0.96473  -0.24188   0.10387
           Y            0.26183   0.84090  -0.47363
           Z            0.02722   0.48413   0.87458
 This molecule is an asymmetric top.
 Rotational symmetry number  1.
 Warning -- assumption of classical behavior for rotation
           may cause significant error
 Rotational temperatures (Kelvin)      0.01604     0.00463     0.00432
 Rotational constants (GHZ):           0.33429     0.09640     0.08992
 Zero-point vibrational energy     694980.3 (Joules/Mol)
                                  166.10427 (Kcal/Mol)
 Warning -- explicit consideration of  36 degrees of freedom as
           vibrations may cause significant error
 Vibrational temperatures:     22.30    28.37    43.65    53.76    57.32
          (Kelvin)             80.52   105.50   170.10   189.99   212.09
                              236.62   249.08   256.63   271.94   295.28
                              331.75   380.71   389.56   421.50   436.51
                              437.29   514.33   541.13   587.87   588.53
                              599.71   615.22   644.92   646.43   672.55
                              701.62   736.77   779.01   794.68   864.68
                              874.84   897.83   898.71   972.56   999.25
                              999.89  1007.13  1029.78  1054.39  1098.66
                             1099.09  1125.65  1182.04  1223.87  1225.30
                             1266.75  1341.51  1362.60  1364.28  1392.27
                             1435.93  1436.41  1441.03  1455.65  1458.29
                             1470.81  1470.98  1490.02  1494.31  1526.08
                             1534.60  1582.96  1585.01  1590.78  1592.22
                             1695.54  1702.15  1703.61  1719.53  1722.47
                             1728.43  1790.96  1792.54  1914.07  1914.54
                             1918.31  1918.89  1933.11  1935.81  2122.87
                             2123.49  2161.80  2163.17  2324.14  2324.82
                             2332.20  2332.29  2363.01  2409.16  2478.98
                             2480.10  4574.61  4574.71  4589.82  4589.90
                             4600.81  4600.86  4601.74  4603.47  4614.61
                             4615.11  4631.36  4631.46

 Zero-point correction=                           0.264704 (Hartree/Particle)
 Thermal correction to Energy=                    0.287381
 Thermal correction to Enthalpy=                  0.288325
 Thermal correction to Gibbs Free Energy=         0.209447
 Sum of electronic and zero-point Energies=          -1940.797191
 Sum of electronic and thermal Energies=             -1940.774514
 Sum of electronic and thermal Enthalpies=           -1940.773570
 Sum of electronic and thermal Free Energies=        -1940.852448

                     E (Thermal)             CV                S
                      KCal/Mol        Cal/Mol-Kelvin    Cal/Mol-Kelvin
 Total                  180.334             85.994            166.013
 Electronic               0.000              0.000              0.000
 Translational            0.889              2.981             43.760
 Rotational               0.889              2.981             35.960
 Vibrational            178.557             80.033             86.293
 Vibration     1          0.593              1.986              7.141
 Vibration     2          0.593              1.986              6.663
 Vibration     3          0.594              1.984              5.807
 Vibration     4          0.594              1.982              5.394
 Vibration     5          0.594              1.981              5.267
 Vibration     6          0.596              1.975              4.595
 Vibration     7          0.599              1.967              4.062
 Vibration     8          0.608              1.934              3.129
 Vibration     9          0.612              1.921              2.916
 Vibration    10          0.617              1.905              2.705
 Vibration    11          0.623              1.886              2.498
 Vibration    12          0.627              1.876              2.401
 Vibration    13          0.629              1.869              2.345
 Vibration    14          0.633              1.855              2.238
 Vibration    15          0.640              1.832              2.086
 Vibration    16          0.652              1.794              1.874
 Vibration    17          0.671              1.738              1.631
 Vibration    18          0.674              1.727              1.591
 Vibration    19          0.688              1.687              1.457
 Vibration    20          0.695              1.667              1.398
 Vibration    21          0.695              1.666              1.395
 Vibration    22          0.733              1.560              1.133
 Vibration    23          0.747              1.521              1.055
 Vibration    24          0.773              1.452              0.932
 Vibration    25          0.773              1.451              0.930
 Vibration    26          0.780              1.434              0.903
 Vibration    27          0.789              1.410              0.867
 Vibration    28          0.807              1.365              0.801
 Vibration    29          0.808              1.362              0.798
 Vibration    30          0.825              1.322              0.745
 Vibration    31          0.844              1.277              0.690
 Vibration    32          0.867              1.223              0.629
 Vibration    33          0.897              1.158              0.562
 Vibration    34          0.908              1.135              0.539
 Vibration    35          0.959              1.030              0.448
 Vibration    36          0.967              1.015              0.436

 Optimization completed.
    -- Stationary point found.
 Normal termination of Gaussian 16 at Sat Feb 10 18:15:01 2024.
