 Q-Chem 5.4, Q-Chem, Inc., Pleasanton, CA (2021)
 Q-Chem 5.4.0 for Intel X86 EM64T Linux

User input:
--------------------------------------------------------------
$molecule
-1 2
C                  5.7700130000     -5.1277640000      1.2384480000
C                  6.7793810000     -5.0403890000      0.2961460000
C                  6.6907420000     -4.0962980000     -0.7443060000
C                  4.6442330000     -4.2829540000      1.1773920000
C                  4.5558100000     -3.3314370000      0.1280150000
C                  5.5926040000     -3.2578320000     -0.8208200000
C                  3.5954340000     -4.4205230000      2.2115630000
C                  2.4942240000     -3.5038610000      2.0447480000
C                  2.3922700000     -2.5754530000      1.0339810000
C                  3.3977890000     -2.4232670000      0.0189780000
O                  3.6810030000     -5.2630720000      3.1344360000
O                  3.3014410000     -1.5733840000     -0.9040070000
H                  5.8122080000     -5.8451540000      2.0499540000
H                  7.6399640000     -5.6999720000      0.3590600000
H                  5.4944800000     -2.5203550000     -1.6095500000
Cl                 1.1869240000     -3.5972710000      3.2410250000
H                  7.4825700000     -4.0270950000     -1.4843630000
H                  1.5316990000     -1.9197390000      0.9752400000
$end

$rem
BASIS  =  6-311++G(d,p)
GUI  =  2
JOB_TYPE  =  SP
METHOD  =  B3LYP
SCF_CONVERGENCE  = 8
SOLVENT_METHOD = sm12
$end

$smx
solvent dimethylformamide
charges CM5
$end

--------------------------------------------------------------

             Standard Nuclear Orientation (Angstroms)
    I     Atom           X                Y                Z
 ----------------------------------------------------------------
    1      C       5.7700130000    -5.1277640000     1.2384480000
    2      C       6.7793810000    -5.0403890000     0.2961460000
    3      C       6.6907420000    -4.0962980000    -0.7443060000
    4      C       4.6442330000    -4.2829540000     1.1773920000
    5      C       4.5558100000    -3.3314370000     0.1280150000
    6      C       5.5926040000    -3.2578320000    -0.8208200000
    7      C       3.5954340000    -4.4205230000     2.2115630000
    8      C       2.4942240000    -3.5038610000     2.0447480000
    9      C       2.3922700000    -2.5754530000     1.0339810000
   10      C       3.3977890000    -2.4232670000     0.0189780000
   11      O       3.6810030000    -5.2630720000     3.1344360000
   12      O       3.3014410000    -1.5733840000    -0.9040070000
   13      H       5.8122080000    -5.8451540000     2.0499540000
   14      H       7.6399640000    -5.6999720000     0.3590600000
   15      H       5.4944800000    -2.5203550000    -1.6095500000
   16      Cl      1.1869240000    -3.5972710000     3.2410250000
   17      H       7.4825700000    -4.0270950000    -1.4843630000
   18      H       1.5316990000    -1.9197390000     0.9752400000
 ----------------------------------------------------------------

   18    -994.9594957774      4.18e-09  Convergence criterion met
 Total energy in the final basis set =     -995.0425277270

                    Orbital Energies (a.u.)
 --------------------------------------------------------------

 Alpha MOs
 -- Occupied --
******** -19.0844 -19.0829 -10.2356 -10.2322 -10.2284 -10.1884 -10.1873
-10.1868 -10.1861 -10.1835 -10.1834 -10.1771  -9.4612  -7.2256  -7.2165
 -7.2156  -1.0120  -1.0062  -0.8748  -0.8637  -0.7993  -0.7629  -0.7432
 -0.6847  -0.6309  -0.6151  -0.5717  -0.5221  -0.5115  -0.4785  -0.4654
 -0.4388  -0.4316  -0.4311  -0.4230  -0.4086  -0.3999  -0.3877  -0.3697
 -0.3648  -0.3518  -0.3380  -0.3084  -0.2785  -0.2685  -0.2576  -0.2519
 -0.2453  -0.1630

 Beta MOs
 -- Occupied --
******** -19.0777 -19.0762 -10.2344 -10.2312 -10.2265 -10.1879 -10.1871
-10.1865 -10.1855 -10.1836 -10.1834 -10.1754  -9.4611  -7.2256  -7.2163
 -7.2156  -1.0005  -0.9947  -0.8716  -0.8624  -0.7956  -0.7613  -0.7408
 -0.6757  -0.6291  -0.6123  -0.5692  -0.5200  -0.5089  -0.4756  -0.4643
 -0.4383  -0.4292  -0.4193  -0.4177  -0.4035  -0.3966  -0.3696  -0.3635
 -0.3575  -0.3504  -0.3267  -0.3080  -0.2624  -0.2568  -0.2465  -0.2456
 -0.2391

          Ground-State Mulliken Net Atomic Charges

     Atom                 Charge (a.u.)    Spin (a.u.)
  --------------------------------------------------------
      1 C                     0.095044       0.041388
      2 C                     0.913630       0.014919
      3 C                     1.033715       0.026031
      4 C                    -1.029916       0.003891
      5 C                    -0.975891       0.039665
      6 C                     0.088308       0.022180
      7 C                    -1.970267       0.084961
      8 C                     1.276664       0.100293
      9 C                    -0.006566       0.136371
     10 C                    -1.609675       0.050079
     11 O                    -0.299032       0.252289
     12 O                    -0.353783       0.241457
     13 H                     0.149655      -0.002734
     14 H                     0.370034      -0.001505
     15 H                     0.149101      -0.002467
     16 Cl                    0.592949       0.006222
     17 H                     0.371925      -0.001958
     18 H                     0.204106      -0.011083
  --------------------------------------------------------
  Sum of atomic charges =    -1.000000

                    Cartesian Multipole Moments
 -----------------------------------------------------------------
    Charge (ESU x 10^10)
                -4.8032
    Dipole Moment (Debye)
         X     -15.3665      Y      16.4323      Z      -6.5385
       Tot      23.4286
    Quadrupole Moments (Debye-Ang)
        XX    -136.5844     XY      52.1985     YY    -156.4594
        XZ     -20.3837     YZ      37.9183     ZZ    -115.0041

 Total job time:  273.08s(wall), 2097.01s(cpu)
        *  Thank you very much for using Q-Chem.  Have a nice day.  *
