 Gaussian 16, Revision A.03,
 Gaussian 16:  ES64L-G16RevA.03 25-Dec-2016

 ----------------------------------------------------------------------
 #P UB3LYP/6-311++G(d,p) nosym opt freq SCRF=(PCM,Solvent=n,n-DiMethylF
 ormamide)
 ----------------------------------------------------------------------

 -------
 Radical
 -------
 Symbolic Z-matrix:
 Charge = -1 Multiplicity = 2

 SCF Done:  E(UB3LYP) =  -917.044919425     A.U. after   18 cycles
 SCF Done:  E(UB3LYP) =  -917.045571165     A.U. after   13 cycles
 SCF Done:  E(UB3LYP) =  -917.045407179     A.U. after   14 cycles
 SCF Done:  E(UB3LYP) =  -917.045672132     A.U. after   13 cycles
 SCF Done:  E(UB3LYP) =  -917.045774817     A.U. after   13 cycles
 SCF Done:  E(UB3LYP) =  -917.045812527     A.U. after   13 cycles
 SCF Done:  E(UB3LYP) =  -917.045848982     A.U. after   13 cycles
 SCF Done:  E(UB3LYP) =  -917.045854964     A.U. after   11 cycles
 SCF Done:  E(UB3LYP) =  -917.045858362     A.U. after   10 cycles
 SCF Done:  E(UB3LYP) =  -917.045859220     A.U. after   10 cycles
 SCF Done:  E(UB3LYP) =  -917.045859688     A.U. after   10 cycles
 SCF Done:  E(UB3LYP) =  -917.045859756     A.U. after    9 cycles
 SCF Done:  E(UB3LYP) =  -917.045859890     A.U. after    9 cycles
 SCF Done:  E(UB3LYP) =  -917.045860101     A.U. after    9 cycles
 SCF Done:  E(UB3LYP) =  -917.045860405     A.U. after    9 cycles
 SCF Done:  E(UB3LYP) =  -917.045860748     A.U. after    9 cycles
 SCF Done:  E(UB3LYP) =  -917.045860883     A.U. after    9 cycles
 SCF Done:  E(UB3LYP) =  -917.045860938     A.U. after    8 cycles
 SCF Done:  E(UB3LYP) =  -917.045860940     A.U. after    7 cycles
 Optimization completed.
    -- Stationary point found.
 Normal termination of Gaussian 16 at Sat Feb 10 18:05:34 2024.

 ----------------------------------------------------------------------
 #P Geom=AllCheck Guess=TCheck SCRF=Check GenChk UB3LYP/6-311++G(d,p) F
 req
 ----------------------------------------------------------------------

 Structure from the checkpoint file:  "144-rad.chk"
 -------
 Radical
 -------
 Charge = -1 Multiplicity = 2

                          Input orientation:
 ---------------------------------------------------------------------
 Center     Atomic      Atomic             Coordinates (Angstroms)
 Number     Number       Type             X           Y           Z
 ---------------------------------------------------------------------
      1          6           0       -2.930560    3.721554    0.240420
      2          6           0       -4.195247    3.174277    0.322009
      3          6           0       -4.363351    1.774860    0.246858
      4          6           0       -1.786344    2.906034    0.081248
      5          6           0       -1.956389    1.492211    0.004825
      6          6           0       -3.261917    0.957036    0.091586
      7          6           0       -0.466605    3.526986   -0.000033
      8          6           0        0.669418    2.624588   -0.160842
      9          6           0        0.501609    1.210828   -0.238783
     10          6           0       -0.818079    0.589738   -0.160235
     11          6           0        1.973461    3.165018   -0.243258
     12          6           0        3.055212    2.334531   -0.394980
     13          6           0        2.911663    0.937996   -0.479541
     14          6           0        1.645863    0.396777   -0.399725
     15          8           0       -0.313038    4.779499    0.065987
     16          8           0       -0.966457   -0.661633   -0.230777
     17          1           0       -3.374902   -0.118785    0.032711
     18          1           0        1.504163   -0.675046   -0.462604
     19          1           0       -2.786113    4.793669    0.297298
     20          1           0        2.103744    4.238381   -0.188642
     21          1           0        3.786064    0.311370   -0.608747
     22          1           0       -5.356878    1.344650    0.311425
     23          8           0        4.335453    2.898330   -0.552168
     24          6           0        5.166210    2.953413    0.526533
     25          6           0        6.487916    3.557419    0.146706
     26          8           0        4.852600    2.561670    1.624630
     27          1           0       -5.060088    3.817392    0.444138
     28          1           0        6.334267    4.548406   -0.285286
     29          1           0        6.970260    2.938087   -0.612989
     30          1           0        7.126164    3.628621    1.024467
 ---------------------------------------------------------------------

 SCF Done:  E(UB3LYP) =  -917.045860940     A.U. after    1 cycles

 Alpha  occ. eigenvalues --  -19.18255 -19.12761 -19.07780 -19.07732 -10.31985
 Alpha  occ. eigenvalues --  -10.23988 -10.22706 -10.22579 -10.18259 -10.18093
 Alpha  occ. eigenvalues --  -10.18038 -10.17869 -10.17767 -10.17713 -10.17564
 Alpha  occ. eigenvalues --  -10.17514 -10.17416 -10.17364 -10.17169 -10.17149
 Alpha  occ. eigenvalues --   -1.12361  -1.04044  -1.00260  -0.99974  -0.86796
 Alpha  occ. eigenvalues --   -0.85547  -0.79570  -0.77171  -0.75620  -0.75167
 Alpha  occ. eigenvalues --   -0.73685  -0.67500  -0.65457  -0.63264  -0.60086
 Alpha  occ. eigenvalues --   -0.58898  -0.55980  -0.53660  -0.51763  -0.50330
 Alpha  occ. eigenvalues --   -0.49278  -0.49209  -0.47348  -0.46317  -0.45896
 Alpha  occ. eigenvalues --   -0.43703  -0.42951  -0.42614  -0.42366  -0.41878
 Alpha  occ. eigenvalues --   -0.41674  -0.41337  -0.40476  -0.39035  -0.38867
 Alpha  occ. eigenvalues --   -0.38141  -0.36740  -0.35960  -0.35350  -0.34031
 Alpha  occ. eigenvalues --   -0.33760  -0.32620  -0.29807  -0.26997  -0.26351
 Alpha  occ. eigenvalues --   -0.25792  -0.25043  -0.24841  -0.24015  -0.14540
 Alpha virt. eigenvalues --   -0.05801  -0.02469  -0.01311  -0.00671  -0.00499
 Alpha virt. eigenvalues --    0.00094   0.01124   0.01590   0.02268   0.03228
 Alpha virt. eigenvalues --    0.03510   0.03995   0.04307   0.04586   0.04857

  Beta  occ. eigenvalues --  -19.18253 -19.12761 -19.07231 -19.07155 -10.31981
  Beta  occ. eigenvalues --  -10.23939 -10.22539 -10.22395 -10.18259 -10.18043
  Beta  occ. eigenvalues --  -10.17948 -10.17875 -10.17758 -10.17633 -10.17495
  Beta  occ. eigenvalues --  -10.17438 -10.17375 -10.17317 -10.17169 -10.17140
  Beta  occ. eigenvalues --   -1.12348  -1.04036  -0.99288  -0.98957  -0.86555
  Beta  occ. eigenvalues --   -0.85412  -0.79259  -0.77014  -0.75424  -0.74986
  Beta  occ. eigenvalues --   -0.73545  -0.66855  -0.65259  -0.63046  -0.59962
  Beta  occ. eigenvalues --   -0.58770  -0.55732  -0.53480  -0.51640  -0.50276
  Beta  occ. eigenvalues --   -0.49211  -0.49125  -0.47080  -0.46206  -0.45826
  Beta  occ. eigenvalues --   -0.43651  -0.42814  -0.42401  -0.42078  -0.41512
  Beta  occ. eigenvalues --   -0.41098  -0.40784  -0.40235  -0.38986  -0.38705
  Beta  occ. eigenvalues --   -0.36468  -0.35864  -0.35764  -0.35214  -0.33686
  Beta  occ. eigenvalues --   -0.32921  -0.32456  -0.29791  -0.25962  -0.24914
  Beta  occ. eigenvalues --   -0.24787  -0.24517  -0.24321  -0.23492
  Beta virt. eigenvalues --   -0.08594  -0.04874  -0.01473  -0.01229  -0.00505
  Beta virt. eigenvalues --   -0.00456   0.00099   0.01128   0.01602   0.02269
  Beta virt. eigenvalues --    0.03259   0.03578   0.04000   0.04358   0.04734

 Mulliken charges and spin densities:
               1          2
     1  C    0.059742   0.032922
     2  C   -0.446436   0.030235
     3  C   -0.455301   0.038702
     4  C    0.253687   0.026131
     5  C    0.174286   0.027822
     6  C    0.077118   0.024887
     7  C   -0.689938   0.105699
     8  C    0.490038   0.057472
     9  C    0.125544   0.035508
    10  C   -0.497187   0.095824
    11  C    0.145413   0.025320
    12  C   -0.906005   0.033407
    13  C    0.268880   0.043819
    14  C    0.201092   0.019320
    15  O   -0.459023   0.214568
    16  O   -0.458464   0.203663
    17  H    0.167911  -0.001297
    18  H    0.182839  -0.000962
    19  H    0.165247  -0.001866
    20  H    0.183070  -0.001912
    21  H    0.210600  -0.003495
    22  H    0.181543  -0.003157
    23  O   -0.008944   0.000047
    24  C    0.120976   0.000229
    25  C   -0.534321   0.000467
    26  O   -0.289084  -0.000758
    27  H    0.183115  -0.002614
    28  H    0.187772   0.000053
    29  H    0.189481  -0.000003
    30  H    0.176351  -0.000031
 Sum of Mulliken charges =  -1.00000   1.00000

 Dipole moment (field-independent basis, Debye):
    X=              2.7573    Y=             -9.4609    Z=             -1.8194  Tot=             10.0210
 Quadrupole moment (field-independent basis, Debye-Ang):
   XX=           -104.0468   YY=           -165.1794   ZZ=           -128.1974
   XY=              5.6474   XZ=            -11.6829   YZ=             -4.8689

  Exact polarizability: 495.398  -0.306 365.190 -23.271  12.534 165.976
 Approx polarizability: 496.580   2.198 438.210 -27.916  12.801 195.628

                      1                      2                      3
                      A                      A                      A
 Frequencies --     15.8238                35.0348                41.5158
 Red. masses --      8.0407                 1.3581                 5.2345
 Frc consts  --      0.0012                 0.0010                 0.0053
 IR Inten    --      0.8663                 3.9089                 7.1468

                      4                      5                      6
                      A                      A                      A
 Frequencies --     73.6109                78.2620               121.9041
 Red. masses --      6.4973                 2.2596                 4.3098
 Frc consts  --      0.0207                 0.0082                 0.0377
 IR Inten    --      5.2175                 5.1195                 0.8098

                      7                      8                      9
                      A                      A                      A
 Frequencies --    147.5945               164.1036               199.6962
 Red. masses --      5.7457                 8.9242                 6.6098
 Frc consts  --      0.0737                 0.1416                 0.1553
 IR Inten    --      2.1650                 8.5509                 4.7318

                     10                     11                     12
                      A                      A                      A
 Frequencies --    217.2905               261.6431               289.4218
 Red. masses --      6.1459                 4.9389                 7.0192
 Frc consts  --      0.1710                 0.1992                 0.3464
 IR Inten    --      0.7987                 6.0004                 2.5635

                     13                     14                     15
                      A                      A                      A
 Frequencies --    324.7837               379.4684               399.4742
 Red. masses --      5.8260                10.5782                 7.2317
 Frc consts  --      0.3621                 0.8975                 0.6799
 IR Inten    --      2.9184                18.5251                11.2467

                     16                     17                     18
                      A                      A                      A
 Frequencies --    406.0126               420.6672               444.4208
 Red. masses --      4.9585                 3.7858                 5.1352
 Frc consts  --      0.4816                 0.3947                 0.5976
 IR Inten    --     10.6917                 2.1168                 3.5698

                     19                     20                     21
                      A                      A                      A
 Frequencies --    456.9703               467.1441               491.7607
 Red. masses --      5.6389                 3.1496                10.9878
 Frc consts  --      0.6938                 0.4050                 1.5656
 IR Inten    --      5.4301                 0.4575                 1.2544

                     22                     23                     24
                      A                      A                      A
 Frequencies --    540.6452               565.9949               601.8167
 Red. masses --      4.8495                 5.2468                 2.8807
 Frc consts  --      0.8352                 0.9903                 0.6147
 IR Inten    --     13.3394                23.8388                14.8524

                     25                     26                     27
                      A                      A                      A
 Frequencies --    637.0980               642.8946               656.4803
 Red. masses --      5.4648                 6.0161                 4.9780
 Frc consts  --      1.3069                 1.4650                 1.2640
 IR Inten    --     10.5529                 8.5554                22.6586

                     28                     29                     30
                      A                      A                      A
 Frequencies --    689.7554               698.7336               709.7897
 Red. masses --      4.5080                 5.7625                 3.2326
 Frc consts  --      1.2636                 1.6576                 0.9595
 IR Inten    --     37.0257                 6.6107                65.3099

                     31                     32                     33
                      A                      A                      A
 Frequencies --    728.3376               768.3646               790.1123
 Red. masses --      4.6605                 3.5441                 1.9177
 Frc consts  --      1.4566                 1.2328                 0.7054
 IR Inten    --      1.0498                13.5947                29.1642

                     34                     35                     36
                      A                      A                      A
 Frequencies --    795.8565               831.5596               856.7595
 Red. masses --      3.6696                 2.0459                 3.9228
 Frc consts  --      1.3694                 0.8335                 1.6965
 IR Inten    --      2.4256                16.2225                38.0710

                     37                     38                     39
                      A                      A                      A
 Frequencies --    886.9706               902.2674               932.8371
 Red. masses --      1.4600                 2.6989                 4.6302
 Frc consts  --      0.6767                 1.2945                 2.3739
 IR Inten    --      0.3707                56.0049                77.5724

                     40                     41                     42
                      A                      A                      A
 Frequencies --    941.7679               986.9437               991.5384
 Red. masses --      2.7165                 1.3500                 1.4692
 Frc consts  --      1.4196                 0.7748                 0.8510
 IR Inten    --     55.2589                 1.9570                 8.9124

                     43                     44                     45
                      A                      A                      A
 Frequencies --    991.9656              1003.2305              1021.4110
 Red. masses --      2.6912                 1.2871                 1.8485
 Frc consts  --      1.5603                 0.7632                 1.1362
 IR Inten    --     14.0492                 0.0044               167.8817

                     46                     47                     48
                      A                      A                      A
 Frequencies --   1039.6386              1062.3507              1108.2872
 Red. masses --      1.9776                 1.7916                 2.5416
 Frc consts  --      1.2594                 1.1913                 1.8394
 IR Inten    --     37.6110                14.0192                25.9903

                     49                     50                     51
                      A                      A                      A
 Frequencies --   1115.3471              1137.0285              1153.5492
 Red. masses --      1.7874                 1.8965                 1.3493
 Frc consts  --      1.3100                 1.4446                 1.0579
 IR Inten    --      6.9396               236.2777                 5.9833

                     52                     53                     54
                      A                      A                      A
 Frequencies --   1189.5942              1200.6746              1214.7742
 Red. masses --      2.0286                 4.8329                 1.7773
 Frc consts  --      1.6914                 4.1050                 1.5453
 IR Inten    --     98.7524               632.1009               123.3418

                     55                     56                     57
                      A                      A                      A
 Frequencies --   1220.3547              1233.3504              1255.3719
 Red. masses --      2.5961                 4.1085                 1.9678
 Frc consts  --      2.2780                 3.6822                 1.8272
 IR Inten    --    168.1166                56.7298               247.6197

                     58                     59                     60
                      A                      A                      A
 Frequencies --   1333.0600              1358.1732              1364.7742
 Red. masses --      2.4623                10.7832                 8.5088
 Frc consts  --      2.5780                11.7195                 9.3377
 IR Inten    --    113.9742                 6.2640                20.1988

                     61                     62                     63
                      A                      A                      A
 Frequencies --   1395.1359              1405.6277              1458.4820
 Red. masses --      1.2969                 3.2454                 1.8882
 Frc consts  --      1.4872                 3.7780                 2.3664
 IR Inten    --     77.5740              1196.2531               227.8362

                     64                     65                     66
                      A                      A                      A
 Frequencies --   1459.3686              1463.5543              1475.8637
 Red. masses --      1.3182                 1.0496                 3.2868
 Frc consts  --      1.6542                 1.3246                 4.2181
 IR Inten    --    131.8062                11.3951               152.7761

                     67                     68                     69
                      A                      A                      A
 Frequencies --   1490.7672              1503.3277              1527.2091
 Red. masses --      3.5828                 4.5301                 6.2204
 Frc consts  --      4.6913                 6.0320                 8.5481
 IR Inten    --     34.5361              1028.5864                13.6412

                     70                     71                     72
                      A                      A                      A
 Frequencies --   1560.0551              1608.4421              1624.2290
 Red. masses --      5.8698                 8.3936                 5.8916
 Frc consts  --      8.4169                12.7941                 9.1575
 IR Inten    --     93.5933                 5.3409                37.9539

                     73                     74                     75
                      A                      A                      A
 Frequencies --   1633.4677              1767.7378              3053.0225
 Red. masses --      6.8726                11.3377                 1.0367
 Frc consts  --     10.8042                20.8742                 5.6935
 IR Inten    --     52.7789               474.7665                 1.1776

                     76                     77                     78
                      A                      A                      A
 Frequencies --   3114.2421              3158.5470              3159.8940
 Red. masses --      1.1001                 1.1034                 1.0860
 Frc consts  --      6.2860                 6.4858                 6.3889
 IR Inten    --      3.9598                11.7541                12.4272

                     79                     80                     81
                      A                      A                      A
 Frequencies --   3173.4865              3183.1568              3188.3299
 Red. masses --      1.0900                 1.0879                 1.0922
 Frc consts  --      6.4676                 6.4945                 6.5414
 IR Inten    --     18.8669                 0.9256                18.7335

                     82                     83                     84
                      A                      A                      A
 Frequencies --   3192.1806              3197.6973              3199.1032
 Red. masses --      1.0947                 1.0937                 1.0918
 Frc consts  --      6.5724                 6.5888                 6.5832
 IR Inten    --     50.4755                 7.2833                21.0951

 - Thermochemistry -
 -------------------
 Temperature   298.150 Kelvin.  Pressure   1.00000 Atm.
 Atom     1 has atomic number  6 and mass  12.00000

 Molecular mass:   266.05791 amu.
 Principal axes and moments of inertia in atomic units:
                           1         2         3
     Eigenvalues --  2036.590319966.38592**********
           X            0.99606  -0.08855  -0.00458
           Y            0.08756   0.99046  -0.10640
           Z            0.01396   0.10558   0.99431
 This molecule is an asymmetric top.
 Rotational symmetry number  1.
 Warning -- assumption of classical behavior for rotation
           may cause significant error
 Rotational temperatures (Kelvin)      0.04253     0.00869     0.00748
 Rotational constants (GHZ):           0.88616     0.18108     0.15589
 Zero-point vibrational energy     571749.1 (Joules/Mol)
                                  136.65132 (Kcal/Mol)
 Warning -- explicit consideration of  24 degrees of freedom as
           vibrations may cause significant error
 Vibrational temperatures:     22.77    50.41    59.73   105.91   112.60
          (Kelvin)            175.39   212.36   236.11   287.32   312.63
                              376.45   416.41   467.29   545.97   574.75
                              584.16   605.25   639.42   657.48   672.12
                              707.53   777.87   814.34   865.88   916.64
                              924.98   944.53   992.40  1005.32  1021.23
                             1047.92  1105.51  1136.80  1145.06  1196.43
                             1232.69  1276.15  1298.16  1342.14  1354.99
                             1419.99  1426.60  1427.22  1443.42  1469.58
                             1495.81  1528.49  1594.58  1604.74  1635.93
                             1659.70  1711.56  1727.50  1747.79  1755.82
                             1774.52  1806.20  1917.98  1954.11  1963.61
                             2007.29  2022.38  2098.43  2099.71  2105.73
                             2123.44  2144.88  2162.95  2197.31  2244.57
                             2314.19  2336.90  2350.20  2543.38  4392.62
                             4480.70  4544.44  4546.38  4565.94  4579.85
                             4587.30  4592.84  4600.77  4602.80

 Zero-point correction=                           0.217768 (Hartree/Particle)
 Thermal correction to Energy=                    0.233874
 Thermal correction to Enthalpy=                  0.234818
 Thermal correction to Gibbs Free Energy=         0.171166
 Sum of electronic and zero-point Energies=           -916.828093
 Sum of electronic and thermal Energies=              -916.811987
 Sum of electronic and thermal Enthalpies=            -916.811043
 Sum of electronic and thermal Free Energies=         -916.874695

                     E (Thermal)             CV                S
                      KCal/Mol        Cal/Mol-Kelvin    Cal/Mol-Kelvin
 Total                  146.758             62.047            133.968
 Electronic               0.000              0.000              1.377
 Translational            0.889              2.981             42.635
 Rotational               0.889              2.981             33.818
 Vibrational            144.981             56.085             56.137
 Vibration     1          0.593              1.986              7.099
 Vibration     2          0.594              1.982              5.522
 Vibration     3          0.594              1.981              5.185
 Vibration     4          0.599              1.966              4.054
 Vibration     5          0.600              1.964              3.934
 Vibration     6          0.609              1.931              3.070
 Vibration     7          0.617              1.905              2.703
 Vibration     8          0.623              1.887              2.502
 Vibration     9          0.638              1.840              2.136
 Vibration    10          0.646              1.815              1.982
 Vibration    11          0.669              1.743              1.651
 Vibration    12          0.686              1.693              1.477
 Vibration    13          0.709              1.626              1.286
 Vibration    14          0.749              1.514              1.041
 Vibration    15          0.766              1.471              0.965
 Vibration    16          0.771              1.457              0.941
 Vibration    17          0.783              1.425              0.890
 Vibration    18          0.804              1.373              0.813
 Vibration    19          0.815              1.345              0.775
 Vibration    20          0.824              1.323              0.746
 Vibration    21          0.848              1.268              0.679
 Vibration    22          0.896              1.160              0.564
 Vibration    23          0.922              1.105              0.512
 Vibration    24          0.960              1.028              0.447

 Optimization completed.
    -- Stationary point found.
 Normal termination of Gaussian 16 at Sat Feb 10 19:29:35 2024.
