 Q-Chem 5.4, Q-Chem, Inc., Pleasanton, CA (2021)
 Q-Chem 5.4.0 for Intel X86 EM64T Linux

User input:
--------------------------------------------------------------
$molecule
-1 2
C                 -4.2515840000     -0.5518770000     -3.5877710000
C                 -3.2729630000     -0.9088900000     -4.4982540000
C                 -1.9155310000     -0.7011700000     -4.1901070000
C                 -3.9102470000      0.0201000000     -2.3461880000
C                 -2.5461450000      0.2285510000     -2.0378830000
C                 -1.5628870000     -0.1402720000     -2.9750320000
C                 -4.9742650000      0.3864820000     -1.3967980000
C                 -4.5618120000      0.9588070000     -0.1294340000
C                 -3.2097510000      1.1723250000      0.1535130000
C                 -2.1302740000      0.8335290000     -0.7552460000
O                 -6.1874830000      0.1984810000     -1.6834740000
O                 -0.9224050000      1.0163270000     -0.4893670000
H                 -5.3043550000     -0.6996890000     -3.7982880000
H                 -3.5513030000     -1.3489370000     -5.4513460000
H                 -1.1472100000     -0.9811100000     -4.9045820000
H                 -0.5267830000      0.0327060000     -2.7081930000
C                 -5.6650660000      1.3132990000      0.8334130000
S                 -2.7484550000      2.0429440000      1.6520330000
C                 -1.8778140000      0.8556280000      2.6519750000
C                 -1.2380700000      1.3090160000      3.7912050000
C                 -0.5707900000      0.4188100000      4.6657480000
C                 -0.5505840000     -0.9798950000      4.3587180000
C                 -1.2078670000     -1.4148620000      3.1775350000
C                 -1.8518620000     -0.5320630000      2.3492550000
C                  0.0891230000      0.8616940000      5.8453020000
C                  0.7315040000     -0.0264190000      6.6762660000
C                  0.7494230000     -1.4083620000      6.3707160000
C                  0.1209620000     -1.8683560000      5.2353080000
H                 -5.8847580000      2.3883070000      0.8112520000
H                 -5.3943930000      1.0665250000      1.8620500000
H                 -6.5745880000      0.7876660000      0.5419310000
H                 -1.2382980000      2.3691600000      4.0262130000
H                 -1.1935120000     -2.4720130000      2.9294360000
H                 -2.3433550000     -0.8808630000      1.4501140000
H                  0.0782420000      1.9215830000      6.0805570000
H                  1.2297490000      0.3316260000      7.5713950000
H                  1.2597840000     -2.1005240000      7.0319540000
H                  0.1326330000     -2.9271020000      4.9937030000
$end
$rem
MAX_SCF_CYCLES=200
BASIS  =  6-311++G(d,p)
GUI  =  2
JOB_TYPE  =  SP
METHOD  =  B3LYP
SOLVENT_METHOD = COSMO
$end
$solvent
dielectric 37.219
opticaldielectric 1.43
$end

--------------------------------------------------------------

             Standard Nuclear Orientation (Angstroms)
    I     Atom           X                Y                Z
 ----------------------------------------------------------------
    1      C       4.9745852025     0.6009822150     0.7449235498
    2      C       5.3816642250     1.8799925139     0.4094299404
    3      C       4.5431600637     2.7056663550    -0.3625138957
    4      C       3.7240151733     0.1064248308     0.3245849033
    5      C       2.8826128843     0.9368112434    -0.4511590317
    6      C       3.3115797564     2.2354358588    -0.7837796550
    7      C       3.3174999650    -1.2578435699     0.7003887919
    8      C       2.0138868305    -1.7073200639     0.2504459420
    9      C       1.2007102329    -0.8793663180    -0.5286267789
   10      C       1.5648157468     0.4674631604    -0.9278432293
   11      O       4.0770755440    -1.9903815351     1.3902137623
   12      O       0.8261835173     1.2063162719    -1.6145548003
   13      H       5.5994878628    -0.0568475267     1.3375864128
   14      H       6.3484207651     2.2475448451     0.7407695763
   15      H       4.8624538425     3.7095121935    -0.6261483084
   16      H       2.6433188952     2.8464189698    -1.3793994990
   17      C       1.6110922186    -3.1007751385     0.6578128133
   18      S      -0.3230584593    -1.5309922458    -1.2140801005
   19      C      -1.6347304408    -0.6212911216    -0.4269463662
   20      C      -2.9207236693    -0.7862855199    -0.9082740317
   21      C      -4.0236003524    -0.1396377923    -0.3015908212
   22      C      -3.8008457422     0.7105236928     0.8291864395
   23      C      -2.4688052149     0.8681651510     1.2952633828
   24      C      -1.4179096587     0.2260267433     0.6924465052
   25      C      -5.3549869346    -0.2987161400    -0.7760198381
   26      C      -6.4078293575     0.3439095807    -0.1673703210
   27      C      -6.1848941418     1.1831258362     0.9504240762
   28      C      -4.9073001018     1.3588013670     1.4327109328
   29      H       1.7594570747    -3.8153709885    -0.1617837494
   30      H       0.5554693775    -3.1489403462     0.9327598768
   31      H       2.2369550418    -3.4233481202     1.4901135243
   32      H      -3.0979322517    -1.4198758562    -1.7721574248
   33      H      -2.2854897869     1.5160060594     2.1473344056
   34      H      -0.4082222579     0.3619600166     1.0581442558
   35      H      -5.5279892355    -0.9404892992    -1.6345216841
   36      H      -7.4163705320     0.2099269816    -0.5449859870
   37      H      -7.0218563317     1.6863768458     1.4226792946
   38      H      -4.7288197163     2.0029669584     2.2886593678
 ----------------------------------------------------------------

   10   -1357.6627823978      7.09e-06  Convergence criterion met
 Total energy in the final basis set =    -1357.6627823978
    4   -1357.7445606069      8.58e-06  Convergence criterion met
 Total energy in the final basis set =    -1357.7445606069

                    Orbital Energies (a.u.)
 --------------------------------------------------------------

 Alpha MOs
 -- Occupied --
-88.8508 -19.0832 -19.0831 -10.2327 -10.2266 -10.2108 -10.1943 -10.1894
-10.1858 -10.1845 -10.1795 -10.1783 -10.1775 -10.1771 -10.1771 -10.1769
-10.1765 -10.1764 -10.1753 -10.1751 -10.1745 -10.1722 -10.1716 -10.1539
 -7.9368  -5.9006  -5.8969  -5.8910  -1.0126  -1.0078  -0.8833  -0.8623
 -0.8415  -0.8217  -0.7838  -0.7705  -0.7555  -0.7525  -0.7331  -0.7192
 -0.6828  -0.6603  -0.6279  -0.6197  -0.6007  -0.5996  -0.5875  -0.5579
 -0.5198  -0.5172  -0.5117  -0.4955  -0.4830  -0.4690  -0.4530  -0.4491
 -0.4426  -0.4351  -0.4269  -0.4229  -0.4219  -0.4212  -0.4182  -0.4030
 -0.3998  -0.3991  -0.3861  -0.3827  -0.3792  -0.3725  -0.3604  -0.3529
 -0.3469  -0.3457  -0.3404  -0.3368  -0.3262  -0.2987  -0.2803  -0.2730
 -0.2592  -0.2543  -0.2521  -0.2426  -0.2358  -0.2075  -0.1592

 Beta MOs
 -- Occupied --
-88.8508 -19.0779 -19.0765 -10.2315 -10.2249 -10.2106 -10.1930 -10.1894
-10.1858 -10.1821 -10.1795 -10.1783 -10.1775 -10.1771 -10.1769 -10.1767
-10.1764 -10.1762 -10.1753 -10.1749 -10.1741 -10.1723 -10.1714 -10.1541
 -7.9368  -5.9007  -5.8969  -5.8910  -1.0033  -0.9962  -0.8832  -0.8602
 -0.8406  -0.8182  -0.7832  -0.7695  -0.7537  -0.7510  -0.7326  -0.7169
 -0.6812  -0.6538  -0.6278  -0.6186  -0.6005  -0.5984  -0.5851  -0.5552
 -0.5192  -0.5156  -0.5111  -0.4940  -0.4816  -0.4666  -0.4522  -0.4490
 -0.4414  -0.4290  -0.4263  -0.4210  -0.4191  -0.4155  -0.4153  -0.4022
 -0.3984  -0.3930  -0.3842  -0.3811  -0.3713  -0.3623  -0.3563  -0.3466
 -0.3454  -0.3421  -0.3391  -0.3364  -0.3235  -0.2985  -0.2762  -0.2538
 -0.2526  -0.2489  -0.2457  -0.2378  -0.2345  -0.2061

          Ground-State Mulliken Net Atomic Charges

     Atom                 Charge (a.u.)    Spin (a.u.)
  --------------------------------------------------------
      1 C                    -0.033470       0.027364
      2 C                    -0.548508       0.008778
      3 C                    -0.584952       0.028444
      4 C                     0.144988       0.003149
      5 C                     0.195553       0.008120
      6 C                     0.060546       0.019847
      7 C                    -0.771154       0.099267
      8 C                     0.682219       0.173605
      9 C                     1.327119       0.090196
     10 C                    -0.825654       0.088204
     11 O                    -0.494535       0.241051
     12 O                    -0.413708       0.195180
     13 H                     0.196152      -0.003053
     14 H                     0.205703      -0.001143
     15 H                     0.207300      -0.002243
     16 H                     0.192721      -0.001627
     17 C                    -0.444672      -0.008293
     18 S                    -0.583269       0.006412
     19 C                     0.241536       0.026739
     20 C                    -0.207802       0.002104
     21 C                    -0.130263       0.003706
     22 C                     0.205494      -0.000038
     23 C                    -0.090709      -0.002653
     24 C                    -0.372731      -0.021110
     25 C                    -0.171889      -0.000716
     26 C                    -0.286242      -0.000974
     27 C                    -0.278242       0.000500
     28 C                    -0.344957      -0.000795
     29 H                     0.202594       0.011751
     30 H                     0.142653       0.004820
     31 H                     0.181092      -0.000604
     32 H                     0.193328       0.000461
     33 H                     0.220294      -0.000017
     34 H                     0.225046       0.003545
     35 H                     0.175721       0.000035
     36 H                     0.206227      -0.000002
     37 H                     0.210957      -0.000022
     38 H                     0.165444       0.000012
  --------------------------------------------------------
  Sum of atomic charges =    -1.000071

                    Cartesian Multipole Moments
 -----------------------------------------------------------------
    Charge (ESU x 10^10)
                -4.8035
    Dipole Moment (Debye)
         X      -9.4384      Y       2.9658      Z       1.9192
       Tot      10.0778
    Quadrupole Moments (Debye-Ang)
        XX    -177.8862     XY      18.0575     YY    -160.2924
        XZ      -8.8977     YZ      15.1716     ZZ    -161.1614

 Total job time:  195.97s(wall), 1462.28s(cpu)
        *  Thank you very much for using Q-Chem.  Have a nice day.  *
