 Gaussian 16, Revision A.03,
 Gaussian 16:  ES64L-G16RevA.03 25-Dec-2016

 --------------------------------------
 #P UB3LYP/6-311++G(d,p) nosym opt freq
 --------------------------------------

 -------
 Radical
 -------
 Symbolic Z-matrix:
 Charge = -1 Multiplicity = 2

 SCF Done:  E(UB3LYP) =  -1357.66263418     A.U. after   26 cycles
 Optimization completed.
    -- Stationary point found.
 Normal termination of Gaussian 16 at Mon Jan  8 22:28:20 2024.

 ----------------------------------------------------------------------
 #P Geom=AllCheck Guess=TCheck SCRF=Check GenChk UB3LYP/6-311++G(d,p) F
 req
 ----------------------------------------------------------------------

 Structure from the checkpoint file:  "314-rad.chk"
 -------
 Radical
 -------
 Charge = -1 Multiplicity = 2

                          Input orientation:
 ---------------------------------------------------------------------
 Center     Atomic      Atomic             Coordinates (Angstroms)
 Number     Number       Type             X           Y           Z
 ---------------------------------------------------------------------
      1          6           0       -4.251584   -0.551877   -3.587771
      2          6           0       -3.272963   -0.908890   -4.498254
      3          6           0       -1.915531   -0.701170   -4.190107
      4          6           0       -3.910247    0.020100   -2.346188
      5          6           0       -2.546145    0.228551   -2.037883
      6          6           0       -1.562887   -0.140272   -2.975032
      7          6           0       -4.974265    0.386482   -1.396798
      8          6           0       -4.561812    0.958807   -0.129434
      9          6           0       -3.209751    1.172325    0.153513
     10          6           0       -2.130274    0.833529   -0.755246
     11          8           0       -6.187483    0.198481   -1.683474
     12          8           0       -0.922405    1.016327   -0.489367
     13          1           0       -5.304355   -0.699689   -3.798288
     14          1           0       -3.551303   -1.348937   -5.451346
     15          1           0       -1.147210   -0.981110   -4.904582
     16          1           0       -0.526783    0.032706   -2.708193
     17          6           0       -5.665066    1.313299    0.833413
     18         16           0       -2.748455    2.042944    1.652033
     19          6           0       -1.877814    0.855628    2.651975
     20          6           0       -1.238070    1.309016    3.791205
     21          6           0       -0.570790    0.418810    4.665748
     22          6           0       -0.550584   -0.979895    4.358718
     23          6           0       -1.207867   -1.414862    3.177535
     24          6           0       -1.851862   -0.532063    2.349255
     25          6           0        0.089123    0.861694    5.845302
     26          6           0        0.731504   -0.026419    6.676266
     27          6           0        0.749423   -1.408362    6.370716
     28          6           0        0.120962   -1.868356    5.235308
     29          1           0       -5.884758    2.388307    0.811252
     30          1           0       -5.394393    1.066525    1.862050
     31          1           0       -6.574588    0.787666    0.541931
     32          1           0       -1.238298    2.369160    4.026213
     33          1           0       -1.193512   -2.472013    2.929436
     34          1           0       -2.343355   -0.880863    1.450114
     35          1           0        0.078242    1.921583    6.080557
     36          1           0        1.229749    0.331626    7.571395
     37          1           0        1.259784   -2.100524    7.031954
     38          1           0        0.132633   -2.927102    4.993703
 ---------------------------------------------------------------------

 SCF Done:  E(UB3LYP) =  -1357.66263418     A.U. after    1 cycles

 Alpha  occ. eigenvalues --  -88.74189 -18.95669 -18.95601 -10.11335 -10.10956
 Alpha  occ. eigenvalues --  -10.10311 -10.10102 -10.09839 -10.09809 -10.09762
 Alpha  occ. eigenvalues --  -10.09628 -10.09598 -10.08880 -10.08416 -10.08265
 Alpha  occ. eigenvalues --  -10.07733 -10.06923 -10.06845 -10.06711 -10.06200
 Alpha  occ. eigenvalues --  -10.06160 -10.06133 -10.06091 -10.04584  -7.82781
 Alpha  occ. eigenvalues --   -5.79177  -5.78761  -5.78204  -0.88546  -0.88062
 Alpha  occ. eigenvalues --   -0.79385  -0.74952  -0.74683  -0.71300  -0.69327
 Alpha  occ. eigenvalues --   -0.67404  -0.64851  -0.64238  -0.64024  -0.61705
 Alpha  occ. eigenvalues --   -0.57567  -0.54614  -0.54031  -0.52317  -0.51456
 Alpha  occ. eigenvalues --   -0.49242  -0.48026  -0.44469  -0.43431  -0.42341
 Alpha  occ. eigenvalues --   -0.40684  -0.39724  -0.38026  -0.36686  -0.35921
 Alpha  occ. eigenvalues --   -0.35307  -0.33911  -0.33713  -0.33637  -0.31688
 Alpha  occ. eigenvalues --   -0.31500  -0.31143  -0.31017  -0.30061  -0.29464
 Alpha  occ. eigenvalues --   -0.28909  -0.28468  -0.27408  -0.26480  -0.26043
 Alpha  occ. eigenvalues --   -0.25642  -0.25243  -0.25185  -0.24441  -0.23696
 Alpha  occ. eigenvalues --   -0.22822  -0.21589  -0.20827  -0.18198  -0.15649
 Alpha  occ. eigenvalues --   -0.14661  -0.14455  -0.13923  -0.12614  -0.11723
 Alpha  occ. eigenvalues --   -0.10449  -0.03695
 Alpha virt. eigenvalues --    0.03786   0.05721   0.06659   0.07209   0.07597
 Alpha virt. eigenvalues --    0.07748   0.08297   0.08668   0.09099   0.09453
 Alpha virt. eigenvalues --    0.09719   0.09826   0.11251   0.11709   0.11906

  Beta  occ. eigenvalues --  -88.74190 -18.95029 -18.94946 -10.11317 -10.10870
  Beta  occ. eigenvalues --  -10.10191 -10.10102 -10.09840 -10.09808 -10.09762
  Beta  occ. eigenvalues --  -10.09627 -10.09597 -10.08881 -10.08413 -10.08264
  Beta  occ. eigenvalues --  -10.07599 -10.06904 -10.06808 -10.06455 -10.06184
  Beta  occ. eigenvalues --  -10.06139 -10.06101 -10.06071 -10.04602  -7.82781
  Beta  occ. eigenvalues --   -5.79180  -5.78765  -5.78200  -0.87565  -0.86821
  Beta  occ. eigenvalues --   -0.79379  -0.74802  -0.74623  -0.70935  -0.69279
  Beta  occ. eigenvalues --   -0.67264  -0.64731  -0.64164  -0.63892  -0.61460
  Beta  occ. eigenvalues --   -0.57393  -0.54096  -0.53925  -0.52238  -0.51446
  Beta  occ. eigenvalues --   -0.49159  -0.47689  -0.44264  -0.43413  -0.42307
  Beta  occ. eigenvalues --   -0.40568  -0.39559  -0.37849  -0.36683  -0.35844
  Beta  occ. eigenvalues --   -0.35129  -0.33842  -0.33640  -0.33567  -0.31558
  Beta  occ. eigenvalues --   -0.31211  -0.31111  -0.30564  -0.29855  -0.29187
  Beta  occ. eigenvalues --   -0.28494  -0.27865  -0.27123  -0.26416  -0.25889
  Beta  occ. eigenvalues --   -0.25229  -0.25191  -0.24477  -0.23467  -0.22629
  Beta  occ. eigenvalues --   -0.22389  -0.21291  -0.20810  -0.18146  -0.14574
  Beta  occ. eigenvalues --   -0.13943  -0.13404  -0.12846  -0.12006  -0.11182
  Beta  occ. eigenvalues --   -0.10182
  Beta virt. eigenvalues --    0.02968   0.03801   0.05723   0.06700   0.07211
  Beta virt. eigenvalues --    0.07741   0.08140   0.08405   0.09086   0.09435
  Beta virt. eigenvalues --    0.09550   0.09807   0.09919   0.11285   0.11724

 Mulliken charges and spin densities:
               1          2
     1  C   -0.055879   0.022217
     2  C   -0.450868   0.011062
     3  C   -0.487121   0.028372
     4  C    0.252340   0.009961
     5  C    0.288698   0.016378
     6  C    0.028907   0.012258
     7  C   -0.960353   0.063412
     8  C    0.735211   0.185199
     9  C    1.273035   0.095537
    10  C   -0.943064   0.056941
    11  O   -0.371957   0.269036
    12  O   -0.288262   0.214704
    13  H    0.175603  -0.003066
    14  H    0.128126  -0.001256
    15  H    0.128946  -0.002375
    16  H    0.178046  -0.001599
    17  C   -0.448292  -0.009009
    18  S   -0.597913   0.004652
    19  C    0.346031   0.021731
    20  C   -0.163303   0.004035
    21  C   -0.124330   0.004664
    22  C    0.234668   0.000605
    23  C   -0.056797  -0.002598
    24  C   -0.310350  -0.021715
    25  C   -0.168738  -0.000845
    26  C   -0.264061  -0.000893
    27  C   -0.212653   0.000724
    28  C   -0.312850  -0.000740
    29  H    0.153786   0.013012
    30  H    0.120551   0.004982
    31  H    0.192205  -0.000996
    32  H    0.126134   0.001372
    33  H    0.155182   0.000037
    34  H    0.210447   0.004246
    35  H    0.113262  -0.000027
    36  H    0.137295   0.000059
    37  H    0.141953  -0.000047
    38  H    0.096362  -0.000030
 Sum of Mulliken charges =  -1.00000   1.00000

 Dipole moment (field-independent basis, Debye):
    X=             14.7198    Y=             -3.0394    Z=              1.0613  Tot=             15.0677
 Quadrupole moment (field-independent basis, Debye-Ang):
   XX=           -232.7541   YY=           -153.1259   ZZ=           -182.6168
   XY=              5.8074   XZ=            -18.4929   YZ=              1.6674

  Exact polarizability: 309.765 -22.284 231.307  96.333  26.744 444.794
 Approx polarizability: 536.653 -23.578 410.019 123.776  49.475 593.408

                      1                      2                      3
                      A                      A                      A
 Frequencies --     12.5598                23.3957                29.3760
 Red. masses --      6.1952                 5.3634                 5.6837
 Frc consts  --      0.0006                 0.0017                 0.0029
 IR Inten    --      0.2161                 0.0728                 0.5144

                      4                      5                      6
                      A                      A                      A
 Frequencies --     75.5095                77.9592                89.3016
 Red. masses --      1.9080                 1.9056                 5.3742
 Frc consts  --      0.0064                 0.0068                 0.0253
 IR Inten    --      4.7687                 4.0489                 0.8033

                      7                      8                      9
                      A                      A                      A
 Frequencies --     98.9864               139.7608               164.1286
 Red. masses --      3.5339                 5.0822                 5.9063
 Frc consts  --      0.0204                 0.0585                 0.0937
 IR Inten    --      0.2460                 0.1330                 0.5337

                     10                     11                     12
                      A                      A                      A
 Frequencies --    180.4347               183.7146               211.7786
 Red. masses --      5.5197                 4.2829                 8.1581
 Frc consts  --      0.1059                 0.0852                 0.2156
 IR Inten    --      1.5436                 0.6534                 1.9642

                     13                     14                     15
                      A                      A                      A
 Frequencies --    262.0485               271.1765               284.7999
 Red. masses --      5.1676                 5.0670                 6.1081
 Frc consts  --      0.2091                 0.2195                 0.2919
 IR Inten    --      0.0392                 0.3620                 6.8719

                     16                     17                     18
                      A                      A                      A
 Frequencies --    337.7533               354.4268               380.9687
 Red. masses --      4.3537                 5.0815                11.0223
 Frc consts  --      0.2926                 0.3761                 0.9425
 IR Inten    --      0.4674                 1.5127                 1.0586

                     19                     20                     21
                      A                      A                      A
 Frequencies --    389.2842               402.5450               407.6809
 Red. masses --      8.8772                 3.1986                 5.7864
 Frc consts  --      0.7926                 0.3054                 0.5666
 IR Inten    --     13.1621                 0.3152                 0.9966

                     22                     23                     24
                      A                      A                      A
 Frequencies --    423.2932               441.5368               468.7116
 Red. masses --      6.5704                 3.6853                 4.4760
 Frc consts  --      0.6936                 0.4233                 0.5794
 IR Inten    --      0.7239                 1.8417                 3.3545

                     25                     26                     27
                      A                      A                      A
 Frequencies --    474.8420               503.1890               518.9283
 Red. masses --      2.6818                10.2684                 3.8210
 Frc consts  --      0.3563                 1.5318                 0.6062
 IR Inten    --     18.7020                 0.3926                 1.0263

                     28                     29                     30
                      A                      A                      A
 Frequencies --    524.9514               538.7936               577.3527
 Red. masses --      6.7734                 5.2210                 6.7219
 Frc consts  --      1.0998                 0.8930                 1.3202
 IR Inten    --      2.7212                 2.3113                19.1644

                     31                     32                     33
                      A                      A                      A
 Frequencies --    608.1260               635.6533               652.1633
 Red. masses --      7.3910                 3.4847                 6.9760
 Frc consts  --      1.6104                 0.8296                 1.7481
 IR Inten    --     10.6927                 3.7337                 1.4670

                     34                     35                     36
                      A                      A                      A
 Frequencies --    662.5196               684.6035               692.9451
 Red. masses --      6.3274                 4.6645                 5.5752
 Frc consts  --      1.6363                 1.2880                 1.5773
 IR Inten    --      6.2646                 3.6272                 3.5796

                     37                     38                     39
                      A                      A                      A
 Frequencies --    706.0484               742.9107               766.9104
 Red. masses --      2.8816                 1.2659                 3.2555
 Frc consts  --      0.8464                 0.4116                 1.1281
 IR Inten    --     49.1257                39.9972                 0.5772

                     40                     41                     42
                      A                      A                      A
 Frequencies --    777.4490               782.1966               796.8561
 Red. masses --      4.7634                 1.7563                 4.6062
 Frc consts  --      1.6963                 0.6331                 1.7233
 IR Inten    --      0.2583                25.7225                 0.3513

                     43                     44                     45
                      A                      A                      A
 Frequencies --    810.5125               822.7161               846.3357
 Red. masses --      6.2768                 1.3331                 1.9921
 Frc consts  --      2.4295                 0.5316                 0.8407
 IR Inten    --     20.0303                22.1554                17.1163

                     46                     47                     48
                      A                      A                      A
 Frequencies --    850.0233               859.6023               879.3268
 Red. masses --      2.5675                 5.7739                 1.6063
 Frc consts  --      1.0930                 2.5137                 0.7318
 IR Inten    --      4.6210                16.0085                 4.5090

                     49                     50                     51
                      A                      A                      A
 Frequencies --    882.3569               948.8987               954.4477
 Red. masses --      1.4776                 1.3523                 4.9099
 Frc consts  --      0.6778                 0.7174                 2.6353
 IR Inten    --      0.0892                 2.2281                21.4459

                     52                     53                     54
                      A                      A                      A
 Frequencies --    967.4714               974.5207               982.7355
 Red. masses --      1.2666                 5.9518                 1.3203
 Frc consts  --      0.6985                 3.3303                 0.7513
 IR Inten    --      0.1648                10.5118                 1.1786

                     55                     56                     57
                      A                      A                      A
 Frequencies --    983.4006               988.0585              1033.1561
 Red. masses --      1.3617                 1.2665                 1.9684
 Frc consts  --      0.7758                 0.7285                 1.2379
 IR Inten    --      2.2181                 0.0182                17.9195

                     58                     59                     60
                      A                      A                      A
 Frequencies --   1037.2325              1041.2557              1044.6813
 Red. masses --      2.3233                 2.0681                 1.5053
 Frc consts  --      1.4727                 1.3211                 0.9679
 IR Inten    --      8.7416                18.9920                 8.0936

                     61                     62                     63
                      A                      A                      A
 Frequencies --   1082.3428              1109.5456              1133.9300
 Red. masses --      2.5126                 2.0707                 2.9179
 Frc consts  --      1.7342                 1.5019                 2.2105
 IR Inten    --     53.8764                12.8521                 6.8979

                     64                     65                     66
                      A                      A                      A
 Frequencies --   1152.2629              1155.8348              1169.7532
 Red. masses --      1.5651                 1.5332                 1.1888
 Frc consts  --      1.2243                 1.2068                 0.9584
 IR Inten    --     20.2487                 3.8390                 1.5417

                     67                     68                     69
                      A                      A                      A
 Frequencies --   1177.6926              1205.7541              1222.8678
 Red. masses --      1.2227                 2.2917                 2.4610
 Frc consts  --      0.9992                 1.9631                 2.1683
 IR Inten    --      0.5284                 2.8713                30.8927

                     70                     71                     72
                      A                      A                      A
 Frequencies --   1224.1756              1263.2800              1265.8533
 Red. masses --      2.7812                 1.9202                 1.6143
 Frc consts  --      2.4557                 1.8055                 1.5241
 IR Inten    --      3.9299                26.6106                 4.3428

                     73                     74                     75
                      A                      A                      A
 Frequencies --   1285.8599              1354.9886              1361.9053
 Red. masses --      1.8181                 6.6252                 2.9135
 Frc consts  --      1.7711                 7.1667                 3.1839
 IR Inten    --      4.0784                 2.2713                 5.5397

                     76                     77                     78
                      A                      A                      A
 Frequencies --   1365.1417              1392.4235              1392.7134
 Red. masses --      2.7985                 1.3834                 3.6449
 Frc consts  --      3.0727                 1.5803                 4.1655
 IR Inten    --     13.6886                55.7552                 9.8236

                     79                     80                     81
                      A                      A                      A
 Frequencies --   1399.5341              1445.2602              1459.8171
 Red. masses --      4.4272                 3.8375                 2.4993
 Frc consts  --      5.1092                 4.7227                 3.1381
 IR Inten    --     31.1579               170.8969                 6.1879

                     82                     83                     84
                      A                      A                      A
 Frequencies --   1463.2327              1476.6939              1483.8575
 Red. masses --      1.5460                 1.6748                 1.9955
 Frc consts  --      1.9502                 2.1518                 2.5887
 IR Inten    --     53.3399                 0.6068                45.9260

                     85                     86                     87
                      A                      A                      A
 Frequencies --   1487.9659              1502.6573              1528.7457
 Red. masses --      2.1577                 1.4356                 4.9301
 Frc consts  --      2.8147                 1.9099                 6.7885
 IR Inten    --     16.4216                31.6038               237.7755

                     88                     89                     90
                      A                      A                      A
 Frequencies --   1533.3800              1555.2372              1596.5835
 Red. masses --      3.2367                 8.0888                 6.6506
 Frc consts  --      4.4839                11.5274                 9.9884
 IR Inten    --     53.2966                94.8058                 2.1087

                     91                     92                     93
                      A                      A                      A
 Frequencies --   1610.4636              1624.4209              1632.7622
 Red. masses --      7.9467                 5.3454                 6.1841
 Frc consts  --     12.1433                 8.3106                 9.7135
 IR Inten    --     35.1459                69.1762                10.8066

                     94                     95                     96
                      A                      A                      A
 Frequencies --   1651.9821              3002.2801              3067.7288
 Red. masses --      6.0282                 1.0522                 1.0807
 Frc consts  --      9.6928                 5.5881                 5.9922
 IR Inten    --    108.1671                62.3752                26.3028

                     97                     98                     99
                      A                      A                      A
 Frequencies --   3119.2792              3136.6560              3142.5823
 Red. masses --      1.1011                 1.0850                 1.0842
 Frc consts  --      6.3121                 6.2893                 6.3088
 IR Inten    --     10.4553                14.2245                 1.5899

                    100                    101                    102
                      A                      A                      A
 Frequencies --   3148.1920              3150.3373              3153.1076
 Red. masses --      1.0880                 1.0890                 1.0885
 Frc consts  --      6.3534                 6.3678                 6.3763
 IR Inten    --      1.0642                20.3732                 1.0823

                    103                    104                    105
                      A                      A                      A
 Frequencies --   3155.6560              3162.1257              3175.2066
 Red. masses --      1.0916                 1.0931                 1.0970
 Frc consts  --      6.4045                 6.4400                 6.5163
 IR Inten    --     53.9104                53.1965                54.2255

                    106                    107                    108
                      A                      A                      A
 Frequencies --   3184.9588              3187.2969              3196.5389
 Red. masses --      1.0913                 1.0928                 1.0922
 Frc consts  --      6.5226                 6.5411                 6.5755
 IR Inten    --      7.7807                28.7298                 5.1010

 - Thermochemistry -
 -------------------
 Temperature   298.150 Kelvin.  Pressure   1.00000 Atm.
 Atom     1 has atomic number  6 and mass  12.00000

 Molecular mass:   330.07145 amu.
 Principal axes and moments of inertia in atomic units:
                           1         2         3
     Eigenvalues --  3490.04396********************
           X            0.41793   0.77398   0.47569
           Y           -0.03534  -0.50937   0.85982
           Z            0.90779  -0.37615  -0.18553
 This molecule is an asymmetric top.
 Rotational symmetry number  1.
 Warning -- assumption of classical behavior for rotation
           may cause significant error
 Rotational temperatures (Kelvin)      0.02482     0.00529     0.00486
 Rotational constants (GHZ):           0.51711     0.11030     0.10125
 Zero-point vibrational energy     747756.8 (Joules/Mol)
                                  178.71815 (Kcal/Mol)
 Warning -- explicit consideration of  31 degrees of freedom as
           vibrations may cause significant error
 Vibrational temperatures:     18.07    33.66    42.27   108.64   112.17
          (Kelvin)            128.49   142.42   201.08   236.14   259.61
                              264.32   304.70   377.03   390.16   409.76
                              485.95   509.94   548.13   560.09   579.17
                              586.56   609.02   635.27   674.37   683.19
                              723.98   746.62   755.29   775.20   830.68
                              874.96   914.56   938.32   953.22   984.99
                              996.99  1015.85  1068.88  1103.41  1118.58
                             1125.41  1146.50  1166.15  1183.71  1217.69
                             1222.99  1236.78  1265.16  1269.51  1365.25
                             1373.24  1391.98  1402.12  1413.94  1414.89
                             1421.60  1486.48  1492.35  1498.13  1503.06
                             1557.25  1596.39  1631.47  1657.85  1662.99
                             1683.01  1694.44  1734.81  1759.43  1761.32
                             1817.58  1821.28  1850.07  1949.53  1959.48
                             1964.13  2003.39  2003.80  2013.62  2079.41
                             2100.35  2105.27  2124.63  2134.94  2140.85
                             2161.99  2199.52  2206.19  2237.64  2297.13
                             2317.10  2337.18  2349.18  2376.83  4319.61
                             4413.78  4487.95  4512.95  4521.47  4529.55
                             4532.63  4536.62  4540.29  4549.59  4568.41
                             4582.45  4585.81  4599.11

 Zero-point correction=                           0.284806 (Hartree/Particle)
 Thermal correction to Energy=                    0.304351
 Thermal correction to Enthalpy=                  0.305295
 Thermal correction to Gibbs Free Energy=         0.233739
 Sum of electronic and zero-point Energies=          -1357.377829
 Sum of electronic and thermal Energies=             -1357.358283
 Sum of electronic and thermal Enthalpies=           -1357.357339
 Sum of electronic and thermal Free Energies=        -1357.428896

                     E (Thermal)             CV                S
                      KCal/Mol        Cal/Mol-Kelvin    Cal/Mol-Kelvin
 Total                  190.983             77.207            150.604
 Electronic               0.000              0.000              1.377
 Translational            0.889              2.981             43.278
 Rotational               0.889              2.981             35.275
 Vibrational            189.206             71.246             70.674
 Vibration     1          0.593              1.987              7.558
 Vibration     2          0.593              1.985              6.323
 Vibration     3          0.593              1.984              5.871
 Vibration     4          0.599              1.965              4.004
 Vibration     5          0.599              1.964              3.942
 Vibration     6          0.602              1.957              3.675
 Vibration     7          0.604              1.950              3.474
 Vibration     8          0.615              1.914              2.807
 Vibration     9          0.623              1.886              2.502
 Vibration    10          0.629              1.866              2.324
 Vibration    11          0.631              1.862              2.290
 Vibration    12          0.643              1.823              2.028
 Vibration    13          0.669              1.742              1.648
 Vibration    14          0.675              1.726              1.589
 Vibration    15          0.683              1.702              1.505
 Vibration    16          0.718              1.600              1.223
 Vibration    17          0.730              1.566              1.146
 Vibration    18          0.751              1.511              1.035
 Vibration    19          0.757              1.493              1.003
 Vibration    20          0.768              1.465              0.953
 Vibration    21          0.772              1.454              0.935
 Vibration    22          0.785              1.420              0.881
 Vibration    23          0.801              1.380              0.822
 Vibration    24          0.826              1.319              0.741
 Vibration    25          0.832              1.306              0.724
 Vibration    26          0.858              1.243              0.650
 Vibration    27          0.874              1.208              0.612
 Vibration    28          0.880              1.195              0.599
 Vibration    29          0.894              1.164              0.568
 Vibration    30          0.934              1.080              0.490
 Vibration    31          0.967              1.015              0.436

 Optimization completed.
    -- Stationary point found.
 Normal termination of Gaussian 16 at Tue Jan  9 01:46:12 2024.
