 Gaussian 16, Revision A.03,
 Gaussian 16:  ES64L-G16RevA.03 25-Dec-2016

 ----------------------------------------------------------------------
 #P UB3LYP/6-311++G(d,p) nosym opt freq SCRF=(PCM,Solvent=n,n-DiMethylF
 ormamide)
 ----------------------------------------------------------------------

 -------
 Reduced
 -------
 Symbolic Z-matrix:
 Charge = -2 Multiplicity = 1

 SCF Done:  E(UB3LYP) =  -649.058734692     A.U. after   16 cycles
 SCF Done:  E(UB3LYP) =  -649.060062813     A.U. after   13 cycles
 SCF Done:  E(UB3LYP) =  -649.060272050     A.U. after   12 cycles
 SCF Done:  E(UB3LYP) =  -649.060289554     A.U. after   12 cycles
 SCF Done:  E(UB3LYP) =  -649.060297944     A.U. after   11 cycles
 SCF Done:  E(UB3LYP) =  -649.060300275     A.U. after   11 cycles
 SCF Done:  E(UB3LYP) =  -649.060300596     A.U. after   10 cycles
 SCF Done:  E(UB3LYP) =  -649.060300693     A.U. after    8 cycles
 SCF Done:  E(UB3LYP) =  -649.060300761     A.U. after    8 cycles
 SCF Done:  E(UB3LYP) =  -649.060300802     A.U. after    7 cycles
 SCF Done:  E(UB3LYP) =  -649.060300835     A.U. after    8 cycles
 Optimization completed.
    -- Stationary point found.
 Normal termination of Gaussian 16 at Sat Feb 10 10:19:07 2024.

 ----------------------------------------------------------------------
 #P Geom=AllCheck Guess=TCheck SCRF=Check GenChk UB3LYP/6-311++G(d,p) F
 req
 ----------------------------------------------------------------------

 Structure from the checkpoint file:  "044-an.chk"
 -------
 Reduced
 -------
 Charge = -2 Multiplicity = 1

                          Input orientation:
 ---------------------------------------------------------------------
 Center     Atomic      Atomic             Coordinates (Angstroms)
 Number     Number       Type             X           Y           Z
 ---------------------------------------------------------------------
      1          6           0       -0.932514    2.125365    0.012709
      2          6           0       -2.058190    1.283343    0.082900
      3          6           0       -2.016022   -0.098357    0.155900
      4          6           0       -0.840362   -0.872285    0.172722
      5          6           0        0.335009   -0.047000    0.075895
      6          6           0        0.291714    1.368258    0.001350
      7          8           0       -1.009183    3.439538   -0.030809
      8          8           0       -0.835404   -2.185503    0.271160
      9          6           0        1.584923    2.148172   -0.100641
     10          6           0        1.674455   -0.751804    0.051013
     11          8           0       -3.335014   -0.584365    0.303518
     12          8           0       -3.404864    1.700856    0.182017
     13          6           0       -4.130495    0.515588   -0.122879
     14          1           0        2.159946    1.892268   -1.000787
     15          1           0        2.253348    1.964756    0.750990
     16          1           0        1.363545    3.215829   -0.132379
     17          1           0        1.519143   -1.830714    0.091568
     18          1           0        2.312490   -0.470228    0.899626
     19          1           0        2.252035   -0.522854   -0.854234
     20          1           0       -4.278881    0.453031   -1.213964
     21          1           0       -5.080697    0.514898    0.410224
 ---------------------------------------------------------------------

 SCF Done:  E(UB3LYP) =  -649.060300835     A.U. after    1 cycles

 Alpha  occ. eigenvalues --  -19.13103 -19.13101 -19.01028 -19.01027 -10.26033
 Alpha  occ. eigenvalues --  -10.17154 -10.17096 -10.16608 -10.16604 -10.13332
 Alpha  occ. eigenvalues --  -10.13329 -10.12451 -10.12406  -1.08759  -0.99290
 Alpha  occ. eigenvalues --   -0.91556  -0.91090  -0.78880  -0.74111  -0.69496
 Alpha  occ. eigenvalues --   -0.66496  -0.63885  -0.60193  -0.55066  -0.53728
 Alpha  occ. eigenvalues --   -0.49480  -0.47396  -0.45873  -0.42860  -0.40411
 Alpha  occ. eigenvalues --   -0.40048  -0.37047  -0.36538  -0.36494  -0.35757
 Alpha  occ. eigenvalues --   -0.35414  -0.35018  -0.34888  -0.32773  -0.31653
 Alpha  occ. eigenvalues --   -0.30604  -0.28976  -0.28923  -0.20850  -0.19442
 Alpha  occ. eigenvalues --   -0.19055  -0.17156  -0.11518
 Alpha virt. eigenvalues --   -0.00138   0.01195   0.01950   0.03207   0.03712
 Alpha virt. eigenvalues --    0.03900   0.04067   0.04325   0.04780   0.06297
 Alpha virt. eigenvalues --    0.06672   0.06771   0.07821   0.08208   0.08880

  Beta  occ. eigenvalues --  -19.13103 -19.13101 -19.01028 -19.01027 -10.26033
  Beta  occ. eigenvalues --  -10.17154 -10.17096 -10.16608 -10.16604 -10.13332
  Beta  occ. eigenvalues --  -10.13329 -10.12451 -10.12406  -1.08759  -0.99290
  Beta  occ. eigenvalues --   -0.91556  -0.91090  -0.78880  -0.74111  -0.69496
  Beta  occ. eigenvalues --   -0.66496  -0.63885  -0.60193  -0.55066  -0.53728
  Beta  occ. eigenvalues --   -0.49480  -0.47396  -0.45873  -0.42860  -0.40411
  Beta  occ. eigenvalues --   -0.40048  -0.37047  -0.36538  -0.36494  -0.35757
  Beta  occ. eigenvalues --   -0.35414  -0.35018  -0.34888  -0.32773  -0.31653
  Beta  occ. eigenvalues --   -0.30604  -0.28976  -0.28923  -0.20850  -0.19442
  Beta  occ. eigenvalues --   -0.19055  -0.17156  -0.11518
  Beta virt. eigenvalues --   -0.00138   0.01195   0.01950   0.03207   0.03712
  Beta virt. eigenvalues --    0.03900   0.04067   0.04325   0.04780   0.06297
  Beta virt. eigenvalues --    0.06672   0.06771   0.07821   0.08208   0.08880

 Mulliken charges and spin densities:
               1          2
     1  C   -0.965418  -0.000000
     2  C    0.271589  -0.000000
     3  C    0.268813   0.000000
     4  C   -0.966759  -0.000000
     5  C    0.631326   0.000000
     6  C    0.633249  -0.000000
     7  O   -0.769921   0.000000
     8  O   -0.769843   0.000000
     9  C   -0.494947   0.000000
    10  C   -0.495169   0.000000
    11  O   -0.247409  -0.000000
    12  O   -0.247906   0.000000
    13  C   -0.021621   0.000000
    14  H    0.125965   0.000000
    15  H    0.126679   0.000000
    16  H    0.169109   0.000000
    17  H    0.168928  -0.000000
    18  H    0.128172   0.000000
    19  H    0.124833   0.000000
    20  H    0.154283  -0.000000
    21  H    0.176045   0.000000
 Sum of Mulliken charges =  -2.00000   0.00000

 Dipole moment (field-independent basis, Debye):
    X=             10.0226    Y=             -6.0261    Z=             -1.8189  Tot=             11.8353
 Quadrupole moment (field-independent basis, Debye-Ang):
   XX=            -97.6800   YY=           -158.2494   ZZ=            -84.3261
   XY=              8.4937   XZ=              4.0771   YZ=              2.7286

  Exact polarizability: 228.443  -0.079 231.567   1.163  -5.806 124.717
 Approx polarizability: 238.912  -0.722 260.009  -0.960  -6.789 136.051

                      1                      2                      3
                      A                      A                      A
 Frequencies --     90.5890               107.9714               134.1668
 Red. masses --      1.5763                 1.7240                 2.3630
 Frc consts  --      0.0076                 0.0118                 0.0251
 IR Inten    --     17.2826                17.2460                 1.9343

                      4                      5                      6
                      A                      A                      A
 Frequencies --    150.4977               171.7476               192.0291
 Red. masses --      4.0259                 1.3666                 6.7962
 Frc consts  --      0.0537                 0.0238                 0.1477
 IR Inten    --      4.8338                 2.0502                 1.2227

                      7                      8                      9
                      A                      A                      A
 Frequencies --    249.8447               277.6202               315.9284
 Red. masses --      2.7927                 6.8214                 2.9199
 Frc consts  --      0.1027                 0.3098                 0.1717
 IR Inten    --      8.0843                15.6991                 3.7376

                     10                     11                     12
                      A                      A                      A
 Frequencies --    322.7637               341.1664               350.5175
 Red. masses --      3.5656                 5.3054                 7.4752
 Frc consts  --      0.2189                 0.3638                 0.5411
 IR Inten    --      7.8275                21.1354                12.0941

                     13                     14                     15
                      A                      A                      A
 Frequencies --    394.3891               442.6564               476.8912
 Red. masses --      8.1761                 7.3251                 6.0739
 Frc consts  --      0.7493                 0.8457                 0.8139
 IR Inten    --      2.7823                 9.4684                 4.8532

                     16                     17                     18
                      A                      A                      A
 Frequencies --    545.8663               583.4236               615.5552
 Red. masses --      8.6049                 5.8754                 6.8097
 Frc consts  --      1.5107                 1.1783                 1.5202
 IR Inten    --     10.7079                 1.4202                26.9504

                     19                     20                     21
                      A                      A                      A
 Frequencies --    693.9987               725.9886               732.8386
 Red. masses --      8.9848                 4.0145                 7.7243
 Frc consts  --      2.5496                 1.2466                 2.4441
 IR Inten    --      7.6370                30.5937                11.4959

                     22                     23                     24
                      A                      A                      A
 Frequencies --    743.4899               882.4177               918.1997
 Red. masses --      8.2212                 4.2448                 7.1880
 Frc consts  --      2.6775                 1.9474                 3.5705
 IR Inten    --      1.8190                42.0140                 0.8811

                     25                     26                     27
                      A                      A                      A
 Frequencies --    967.9635               983.7233              1001.6477
 Red. masses --      4.7888                 1.7509                 4.9962
 Frc consts  --      2.6436                 0.9983                 2.9534
 IR Inten    --     17.6196                17.1427               438.7742

                     28                     29                     30
                      A                      A                      A
 Frequencies --   1027.8965              1051.4033              1061.2925
 Red. masses --      1.3892                 1.4761                 6.1148
 Frc consts  --      0.8648                 0.9614                 4.0579
 IR Inten    --      0.2098                 0.4878               309.1975

                     31                     32                     33
                      A                      A                      A
 Frequencies --   1087.0025              1143.3381              1159.9016
 Red. masses --      2.3549                 2.2997                 3.0639
 Frc consts  --      1.6394                 1.7712                 2.4286
 IR Inten    --    228.9909                14.1134               128.1496

                     34                     35                     36
                      A                      A                      A
 Frequencies --   1227.7305              1245.8510              1266.0901
 Red. masses --      7.8111                 1.1498                 4.8037
 Frc consts  --      6.9370                 1.0515                 4.5369
 IR Inten    --    402.7248                86.0318               485.0447

                     37                     38                     39
                      A                      A                      A
 Frequencies --   1349.7369              1375.6016              1388.6144
 Red. masses --      6.3026                 1.3523                 1.3580
 Frc consts  --      6.7650                 1.5077                 1.5428
 IR Inten    --    155.1700                 2.5460                25.5923

                     40                     41                     42
                      A                      A                      A
 Frequencies --   1400.2471              1418.1136              1429.9258
 Red. masses --      4.4064                 1.3269                 8.3669
 Frc consts  --      5.0903                 1.5722                10.0796
 IR Inten    --   1047.8181               101.7793                34.6783

                     43                     44                     45
                      A                      A                      A
 Frequencies --   1475.0893              1476.4772              1483.1124
 Red. masses --      1.1382                 1.0948                 1.0553
 Frc consts  --      1.4592                 1.4061                 1.3676
 IR Inten    --    195.6323                74.8444                14.1543

                     46                     47                     48
                      A                      A                      A
 Frequencies --   1496.9187              1515.6302              1535.9427
 Red. masses --      1.0477                 1.1100                 7.2846
 Frc consts  --      1.3832                 1.5023                10.1253
 IR Inten    --     16.6639                 0.2490               230.2213

                     49                     50                     51
                      A                      A                      A
 Frequencies --   1636.5262              2925.7535              2978.0575
 Red. masses --     10.5380                 1.0702                 1.0427
 Frc consts  --     16.6285                 5.3975                 5.4485
 IR Inten    --      7.0040               279.1709                29.4395

                     52                     53                     54
                      A                      A                      A
 Frequencies --   2979.4974              3003.7411              3005.8545
 Red. masses --      1.0420                 1.0988                 1.0988
 Frc consts  --      5.4499                 5.8412                 5.8493
 IR Inten    --    309.2457               164.2571                 5.2728

                     55                     56                     57
                      A                      A                      A
 Frequencies --   3098.0184              3100.9404              3109.2645
 Red. masses --      1.0926                 1.0922                 1.0945
 Frc consts  --      6.1784                 6.1876                 6.2340
 IR Inten    --     21.6891                24.6522                76.7160

 - Thermochemistry -
 -------------------
 Temperature   298.150 Kelvin.  Pressure   1.00000 Atm.
 Atom     1 has atomic number  6 and mass  12.00000

 Molecular mass:   180.04226 amu.
 Principal axes and moments of inertia in atomic units:
                           1         2         3
     Eigenvalues --  1605.415102199.759133758.95510
           X            0.99934  -0.03070   0.01931
           Y            0.02962   0.99811   0.05386
           Z           -0.02093  -0.05325   0.99836
 This molecule is an asymmetric top.
 Rotational symmetry number  1.
 Warning -- assumption of classical behavior for rotation
           may cause significant error
 Rotational temperatures (Kelvin)      0.05395     0.03937     0.02304
 Rotational constants (GHZ):           1.12416     0.82043     0.48012
 Zero-point vibrational energy     399956.2 (Joules/Mol)
                                   95.59184 (Kcal/Mol)
 Warning -- explicit consideration of  18 degrees of freedom as
           vibrations may cause significant error
 Vibrational temperatures:    130.34   155.35   193.04   216.53   247.11
          (Kelvin)            276.29   359.47   399.43   454.55   464.38
                              490.86   504.32   567.44   636.88   686.14
                              785.38   839.42   885.65   998.51  1044.54
                             1054.39  1069.72  1269.60  1321.08  1392.68
                             1415.36  1441.15  1478.91  1512.73  1526.96
                             1563.95  1645.01  1668.84  1766.43  1792.50
                             1821.62  1941.97  1979.18  1997.91  2014.64
                             2040.35  2057.34  2122.32  2124.32  2133.87
                             2153.73  2180.65  2209.88  2354.60  4209.51
                             4284.76  4286.83  4321.71  4324.75  4457.36
                             4461.56  4473.54

 Zero-point correction=                           0.152335 (Hartree/Particle)
 Thermal correction to Energy=                    0.163854
 Thermal correction to Enthalpy=                  0.164798
 Thermal correction to Gibbs Free Energy=         0.115287
 Sum of electronic and zero-point Energies=           -648.907966
 Sum of electronic and thermal Energies=              -648.896447
 Sum of electronic and thermal Enthalpies=            -648.895503
 Sum of electronic and thermal Free Energies=         -648.945014

                     E (Thermal)             CV                S
                      KCal/Mol        Cal/Mol-Kelvin    Cal/Mol-Kelvin
 Total                  102.820             43.464            104.204
 Electronic               0.000              0.000              0.000
 Translational            0.889              2.981             41.471
 Rotational               0.889              2.981             30.963
 Vibrational            101.042             37.503             31.770
 Vibration     1          0.602              1.956              3.647
 Vibration     2          0.606              1.943              3.305
 Vibration     3          0.613              1.919              2.885
 Vibration     4          0.618              1.902              2.666
 Vibration     5          0.626              1.877              2.416
 Vibration     6          0.634              1.851              2.208
 Vibration     7          0.663              1.763              1.732
 Vibration     8          0.679              1.715              1.548
 Vibration     9          0.703              1.643              1.331
 Vibration    10          0.708              1.630              1.296
 Vibration    11          0.721              1.593              1.207
 Vibration    12          0.727              1.574              1.164
 Vibration    13          0.761              1.482              0.984
 Vibration    14          0.802              1.377              0.818
 Vibration    15          0.833              1.301              0.718
 Vibration    16          0.901              1.149              0.553
 Vibration    17          0.940              1.067              0.479
 Vibration    18          0.975              0.999              0.424

 Optimization completed.
    -- Stationary point found.
 Normal termination of Gaussian 16 at Sat Feb 10 10:29:42 2024.
