 Q-Chem 5.4, Q-Chem, Inc., Pleasanton, CA (2021)
 Q-Chem 5.4.0 for Intel X86 EM64T Linux

User input:
--------------------------------------------------------------
$molecule
0 1
C                 -1.7044140000      3.0981920000      0.2159450000
C                 -2.8895730000      2.3856550000      0.0697950000
C                 -2.8551540000      1.0050700000     -0.1410130000
C                 -0.4756660000      2.4337530000      0.1405120000
C                 -0.4433050000      1.0482840000     -0.0721260000
C                 -1.6355590000      0.3376910000     -0.2087960000
C                  0.7786520000      3.2144680000      0.3308570000
C                  2.0964220000      2.5017520000      0.0896070000
C                  2.0781780000      1.1415990000     -0.0786610000
C                  0.8697430000      0.3382220000     -0.1559740000
O                  0.7394430000      4.3714200000      0.7120970000
O                  0.9184340000     -0.8769540000     -0.3256920000
N                  3.2580160000      3.2212850000      0.1937030000
C                  3.4028470000      4.5925600000     -0.3072960000
C                  4.5193360000      2.4980240000      0.2676650000
H                 -1.7104410000      4.1667450000      0.3913500000
H                 -3.8407470000      2.9028550000      0.1237750000
H                 -3.7808650000      0.4513500000     -0.2507990000
H                 -1.5825260000     -0.7324840000     -0.3670650000
H                  2.9916220000      0.5769360000     -0.2062250000
H                  2.4400170000      5.0783830000     -0.3977200000
H                  3.9045580000      4.5812100000     -1.2841860000
H                  4.0141790000      5.1713580000      0.3895350000
H                  4.4569860000      1.7010220000      1.0103580000
H                  5.2997200000      3.1959250000      0.5732050000
H                  4.8089960000      2.0574710000     -0.6972250000
$end

$rem
BASIS  =  6-311++G(d,p)
GUI  =  2
JOB_TYPE  =  SP
METHOD  =  B3LYP
SCF_CONVERGENCE  = 8
SOLVENT_METHOD = sm12
$end

$smx
solvent dimethylformamide
charges CM5
$end

--------------------------------------------------------------

             Standard Nuclear Orientation (Angstroms)
    I     Atom           X                Y                Z
 ----------------------------------------------------------------
    1      C      -1.7044140000     3.0981920000     0.2159450000
    2      C      -2.8895730000     2.3856550000     0.0697950000
    3      C      -2.8551540000     1.0050700000    -0.1410130000
    4      C      -0.4756660000     2.4337530000     0.1405120000
    5      C      -0.4433050000     1.0482840000    -0.0721260000
    6      C      -1.6355590000     0.3376910000    -0.2087960000
    7      C       0.7786520000     3.2144680000     0.3308570000
    8      C       2.0964220000     2.5017520000     0.0896070000
    9      C       2.0781780000     1.1415990000    -0.0786610000
   10      C       0.8697430000     0.3382220000    -0.1559740000
   11      O       0.7394430000     4.3714200000     0.7120970000
   12      O       0.9184340000    -0.8769540000    -0.3256920000
   13      N       3.2580160000     3.2212850000     0.1937030000
   14      C       3.4028470000     4.5925600000    -0.3072960000
   15      C       4.5193360000     2.4980240000     0.2676650000
   16      H      -1.7104410000     4.1667450000     0.3913500000
   17      H      -3.8407470000     2.9028550000     0.1237750000
   18      H      -3.7808650000     0.4513500000    -0.2507990000
   19      H      -1.5825260000    -0.7324840000    -0.3670650000
   20      H       2.9916220000     0.5769360000    -0.2062250000
   21      H       2.4400170000     5.0783830000    -0.3977200000
   22      H       3.9045580000     4.5812100000    -1.2841860000
   23      H       4.0141790000     5.1713580000     0.3895350000
   24      H       4.4569860000     1.7010220000     1.0103580000
   25      H       5.2997200000     3.1959250000     0.5732050000
   26      H       4.8089960000     2.0574710000    -0.6972250000
 ----------------------------------------------------------------

   15    -669.2680325743      5.56e-09  Convergence criterion met
 Total energy in the final basis set =     -669.2898630934

                    Orbital Energies (a.u.)
 --------------------------------------------------------------

 Alpha MOs
 -- Occupied --
-19.1373 -19.1100 -14.3600 -10.2901 -10.2644 -10.2479 -10.2064 -10.2036
-10.1993 -10.1984 -10.1973 -10.1970 -10.1951 -10.1939 -10.1813  -1.0741
 -1.0426  -0.9686  -0.8869  -0.8250  -0.7758  -0.7719  -0.7287  -0.7075
 -0.6718  -0.6420  -0.6108  -0.5850  -0.5439  -0.5327  -0.5126  -0.4921
 -0.4802  -0.4707  -0.4624  -0.4498  -0.4453  -0.4419  -0.4312  -0.4227
 -0.4142  -0.4018  -0.4007  -0.3832  -0.3795  -0.3756  -0.3665  -0.3248
 -0.2845  -0.2816  -0.2759  -0.2658  -0.2284

          Ground-State Mulliken Net Atomic Charges

     Atom                 Charge (a.u.)
  ----------------------------------------
      1 C                     0.269424
      2 C                     0.265087
      3 C                     0.313521
      4 C                     0.462233
      5 C                    -0.776506
      6 C                    -0.161522
      7 C                    -1.461116
      8 C                     0.271916
      9 C                     0.490141
     10 C                    -1.438647
     11 O                    -0.225177
     12 O                    -0.376949
     13 N                     0.089070
     14 C                    -0.283973
     15 C                     0.034429
     16 H                     0.206056
     17 H                     0.327630
     18 H                     0.318243
     19 H                     0.159869
     20 H                     0.238628
     21 H                     0.115132
     22 H                     0.221782
     23 H                     0.230685
     24 H                     0.198897
     25 H                     0.294203
     26 H                     0.216944
  ----------------------------------------
  Sum of atomic charges =     0.000000

                    Cartesian Multipole Moments
 -----------------------------------------------------------------
    Charge (ESU x 10^10)
                -0.0000
    Dipole Moment (Debye)
         X       1.4224      Y       3.2923      Z      -0.5296
       Tot       3.6253
    Quadrupole Moments (Debye-Ang)
        XX     -55.9573     XY      12.3202     YY     -87.4131
        XZ      -0.1089     YZ      -5.3138     ZZ     -91.0128

 Total job time:  454.01s(wall), 3533.53s(cpu)
        *  Thank you very much for using Q-Chem.  Have a nice day.  *
