 Q-Chem 5.4, Q-Chem, Inc., Pleasanton, CA (2021)
 Q-Chem 5.4.0 for Intel X86 EM64T Linux

User input:
--------------------------------------------------------------
$molecule
0 1
C                 -4.8442590000      1.1381150000     -1.5692540000
C                 -3.6209400000      0.5970880000     -0.8732490000
C                 -3.7428480000     -0.2514430000      0.2310480000
C                 -2.6447350000     -0.7597620000      0.9284520000
C                 -2.9117530000     -1.6668160000      2.1044380000
C                 -1.3478440000     -0.3941490000      0.4860710000
C                 -0.1229280000     -0.8854900000      1.1643750000
O                 -0.1705130000     -1.6231140000      2.1394880000
C                  1.2138880000     -0.4573780000      0.6295560000
C                  2.3396570000     -0.9410920000      1.2946560000
C                  3.6209460000     -0.5970780000      0.8732490000
C                  4.8442580000     -1.1381740000      1.5692120000
C                  3.7428510000      0.2514960000     -0.2310100000
C                  2.6447340000      0.7598020000     -0.9284260000
C                  2.9117520000      1.6669060000     -2.1043730000
C                  1.3478490000      0.3941390000     -0.4860830000
C                  0.1229330000      0.8854410000     -1.1644150000
O                  0.1705180000      1.6230210000     -2.1395610000
C                 -1.2138830000      0.4573430000     -0.6295830000
C                 -2.3396540000      0.9410660000     -1.2946810000
H                 -5.6390030000      0.3896980000     -1.6177520000
H                 -5.2442060000      2.0040760000     -1.0304990000
H                 -4.6128520000      1.4609320000     -2.5859100000
H                 -4.7367650000     -0.5333630000      0.5656950000
H                 -2.4514690000     -2.6473320000      1.9693220000
H                 -2.4882330000     -1.2648430000      3.0267120000
H                 -3.9883580000     -1.7953810000      2.2352900000
H                  2.1876370000     -1.5897290000      2.1485870000
H                  5.2436620000     -2.0046400000      1.0308610000
H                  4.6130300000     -1.4602890000      2.5861310000
H                  5.6393350000     -0.3900710000      1.6170000000
H                  4.7367650000      0.5334690000     -0.5656210000
H                  3.9883550000      1.7955550000     -2.2351600000
H                  2.4513880000      2.6473850000     -1.9692590000
H                  2.4883130000      1.2649250000     -3.0266810000
H                 -2.1876300000      1.5896870000     -2.1486220000
$end
$rem
MAX_SCF_CYCLES=200
BASIS  =  6-311++G(d,p)
GUI  =  2
JOB_TYPE  =  SP
METHOD  =  B3LYP
SOLVENT_METHOD = COSMO
$end
$solvent
dielectric 37.219
opticaldielectric 1.43
$end

--------------------------------------------------------------

             Standard Nuclear Orientation (Angstroms)
    I     Atom           X                Y                Z
 ----------------------------------------------------------------
    1      C       4.9960099989    -1.5047892234     0.0144698313
    2      C       3.7001733864    -0.7341227188    -0.0084029208
    3      C       3.6992886993     0.6638531523    -0.0093846212
    4      C       2.5294560423     1.4267900624    -0.0037693154
    5      C       2.6650199495     2.9296564153    -0.0057176115
    6      C       1.2877926215     0.7415495163     0.0004049048
    7      C      -0.0061274192     1.4679576630     0.0062044201
    8      O      -0.0662338516     2.6900577597     0.0137827258
    9      C      -1.2776852323     0.6682573977     0.0032925637
   10      C      -2.4714958724     1.3883148323     0.0084434529
   11      C      -3.7001770593     0.7341179706     0.0084225403
   12      C      -4.9960063886     1.5047937380    -0.0145304312
   13      C      -3.6992904982    -0.6638536801     0.0094615179
   14      C      -2.5294534804    -1.4267918395     0.0038286501
   15      C      -2.6650182795    -2.9296576898     0.0058403494
   16      C      -1.2877952218    -0.7415515326    -0.0004084453
   17      C       0.0061253263    -1.4679581587    -0.0062559443
   18      O       0.0662324408    -2.6900576544    -0.0138892424
   19      C       1.2776827278    -0.6682561089    -0.0033250709
   20      C       2.4714955901    -1.3883172446    -0.0084675718
   21      H       5.7593055906    -1.0194748147    -0.5986760338
   22      H       5.3895659113    -1.5689839230     1.0348108482
   23      H       4.8584743311    -2.5243350084    -0.3501666585
   24      H       4.6511478246     1.1865867598    -0.0166154566
   25      H       2.1750430583     3.3770127221    -0.8725072638
   26      H       2.1886307030     3.3775782961     0.8683304928
   27      H       3.7216733181     3.2056013486    -0.0139385348
   28      H      -2.4143352829     2.4698577731     0.0144205036
   29      H      -5.3890745348     1.5696616439    -1.0350196623
   30      H      -4.8586393902     2.5241059656     0.3508209121
   31      H      -5.7595918682     1.0190793677     0.5979301743
   32      H      -4.6511471653    -1.1865907116     0.0167563551
   33      H      -3.7216711140    -3.2056020142     0.0141675005
   34      H      -2.1749631351    -3.3769861135     0.8726004729
   35      H      -2.1887074097    -3.3776087052    -0.8682358493
   36      H       2.4143311088    -2.4698587377    -0.0144634575
 ----------------------------------------------------------------

    9    -846.2587286134      2.04e-06  Convergence criterion met
 Total energy in the final basis set =     -846.2587286134
    5    -846.2710696773      2.50e-06  Convergence criterion met
 Total energy in the final basis set =     -846.2710696773

                    Orbital Energies (a.u.)
 --------------------------------------------------------------

 Alpha MOs
 -- Occupied --
-19.1225 -19.1224 -10.2770 -10.2770 -10.2064 -10.2064 -10.2021 -10.2021
-10.2016 -10.2016 -10.2008 -10.2008 -10.1844 -10.1844 -10.1843 -10.1843
-10.1689 -10.1689 -10.1643 -10.1643  -1.0600  -1.0582  -0.8894  -0.8804
 -0.8168  -0.7975  -0.7959  -0.7773  -0.7179  -0.7141  -0.6994  -0.6964
 -0.6583  -0.6460  -0.6099  -0.5837  -0.5636  -0.5549  -0.5300  -0.5037
 -0.4840  -0.4799  -0.4642  -0.4563  -0.4539  -0.4360  -0.4338  -0.4332
 -0.4245  -0.4242  -0.4227  -0.4219  -0.4070  -0.4027  -0.3993  -0.3984
 -0.3831  -0.3785  -0.3752  -0.3642  -0.3592  -0.3588  -0.3527  -0.3497
 -0.2773  -0.2759  -0.2658  -0.2650  -0.2612  -0.2585

          Ground-State Mulliken Net Atomic Charges

     Atom                 Charge (a.u.)
  ----------------------------------------
      1 C                    -0.371594
      2 C                     0.647232
      3 C                    -0.535221
      4 C                     0.299124
      5 C                    -0.574075
      6 C                     0.242606
      7 C                    -0.860669
      8 O                    -0.273239
      9 C                     0.225977
     10 C                    -0.201558
     11 C                     0.648443
     12 C                    -0.372907
     13 C                    -0.537035
     14 C                     0.300042
     15 C                    -0.574751
     16 C                     0.242865
     17 C                    -0.861490
     18 O                    -0.273256
     19 C                     0.225185
     20 C                    -0.201277
     21 H                     0.167941
     22 H                     0.200796
     23 H                     0.174938
     24 H                     0.152809
     25 H                     0.180743
     26 H                     0.181919
     27 H                     0.174356
     28 H                     0.169469
     29 H                     0.200926
     30 H                     0.174750
     31 H                     0.168060
     32 H                     0.152804
     33 H                     0.174354
     34 H                     0.181025
     35 H                     0.181623
     36 H                     0.169084
  ----------------------------------------
  Sum of atomic charges =    -0.000003

                    Cartesian Multipole Moments
 -----------------------------------------------------------------
    Charge (ESU x 10^10)
                -0.0000
    Dipole Moment (Debye)
         X      -0.0003      Y       0.0003      Z       0.0013
       Tot       0.0013
    Quadrupole Moments (Debye-Ang)
        XX     -78.0615     XY       0.3137     YY    -128.1186
        XZ       0.5372     YZ      -0.3171     ZZ    -119.5976

 Total job time:  120.02s(wall), 918.62s(cpu)
        *  Thank you very much for using Q-Chem.  Have a nice day.  *
