 Q-Chem 5.4, Q-Chem, Inc., Pleasanton, CA (2021)
 Q-Chem 5.4.0 for Intel X86 EM64T Linux

User input:
--------------------------------------------------------------
$molecule
0 1
C                 -0.3365480000     -2.0504070000      0.9207560000
C                 -0.2303360000     -0.9456840000     -0.1679430000
C                 -0.5423870000     -1.5588010000     -1.5621150000
C                 -1.2730230000      0.1352760000      0.1324330000
C                 -2.6325420000     -0.2124130000      0.1767370000
C                 -3.6155930000      0.7309710000      0.4448630000
C                 -3.2678910000      2.0641490000      0.6792500000
C                 -1.9338990000      2.4285140000      0.6403070000
C                 -0.9360980000      1.4771670000      0.3695410000
C                  0.4736550000      1.9449750000      0.3451770000
O                  0.7589220000      3.1163740000      0.5530770000
C                  1.5231510000      0.9335020000      0.0582900000
C                  2.8587290000      1.3689730000      0.0337570000
C                  3.8880520000      0.4821850000     -0.2268510000
C                  3.5840470000     -0.8605780000     -0.4671800000
C                  2.2653690000     -1.2950900000     -0.4438220000
C                  1.2054420000     -0.4125630000     -0.1814930000
H                  0.3698660000     -2.8597050000      0.7268570000
H                 -1.3390650000     -2.4816620000      0.9436630000
H                 -0.1202180000     -1.6393460000      1.9094490000
H                 -1.5489820000     -1.9803030000     -1.5874160000
H                 -0.4724580000     -0.7975690000     -2.3424490000
H                  0.1599560000     -2.3588220000     -1.8034780000
H                 -2.9343910000     -1.2375310000     -0.0008900000
H                 -4.6563470000      0.4269740000      0.4713520000
H                 -4.0335810000      2.8021780000      0.8886700000
H                 -1.6213560000      3.4504120000      0.8161940000
H                  3.0504400000      2.4175330000      0.2252120000
H                  4.9166470000      0.8235070000     -0.2445930000
H                  4.3779630000     -1.5701590000     -0.6732840000
H                  2.0624760000     -2.3420570000     -0.6340690000
$end
$rem
MAX_SCF_CYCLES=200
BASIS  =  6-311++G(d,p)
GUI  =  2
JOB_TYPE  =  SP
METHOD  =  B3LYP
SOLVENT_METHOD = COSMO
$end
$solvent
dielectric 37.219
opticaldielectric 1.43
$end

--------------------------------------------------------------

             Standard Nuclear Orientation (Angstroms)
    I     Atom           X                Y                Z
 ----------------------------------------------------------------
    1      C       0.0001483083     2.2654876413    -1.2693255599
    2      C       0.0000148968     1.3680064868     0.0001180064
    3      C       0.0000702518     2.2647470658     1.2701023287
    4      C      -1.2788319182     0.5251261692    -0.0000737011
    5      C      -2.5272153636     1.1675287627    -0.0003520239
    6      C      -3.7148414470     0.4479466130    -0.0004403931
    7      C      -3.6922763459    -0.9494396016    -0.0001088703
    8      C      -2.4728600952    -1.6027672110     0.0002212163
    9      C      -1.2689107179    -0.8785517256     0.0001554961
   10      C      -0.0000287115    -1.6510670322     0.0000825189
   11      O      -0.0000571229    -2.8744947118     0.0001033027
   12      C       1.2688746203    -0.8785982916    -0.0000351740
   13      C       2.4728262086    -1.6028261608    -0.0001785049
   14      C       3.6922445806    -0.9495007033    -0.0002533455
   15      C       3.7148063715     0.4478827449    -0.0001713304
   16      C       2.5271703591     1.1674511104    -0.0000642411
   17      C       1.2787970327     0.5250496077    -0.0000139837
   18      H       0.8818665091     2.9085827160    -1.2934617111
   19      H      -0.8817565575     2.9082872839    -1.2937871214
   20      H       0.0003836126     1.6534397420    -2.1741354716
   21      H      -0.8819595233     2.9073522848     1.2949936694
   22      H       0.0005199739     1.6522019780     2.1745765891
   23      H       0.8816809945     2.9079753978     1.2944990299
   24      H      -2.5783087725     2.2496195849    -0.0003518484
   25      H      -4.6615018288     0.9772091033    -0.0007041102
   26      H      -4.6180722759    -1.5131120359    -0.0001184011
   27      H      -2.4105003795    -2.6839730689     0.0004327092
   28      H       2.4104721539    -2.6840283466    -0.0002363366
   29      H       4.6180527316    -1.5131516770    -0.0003411947
   30      H       4.6614531055     0.9771715412    -0.0001940276
   31      H       2.5781990569     2.2495303372     0.0000271720
 ----------------------------------------------------------------

    9    -693.5558534402      2.28e-06  Convergence criterion met
 Total energy in the final basis set =     -693.5558534402
    5    -693.5687499440      4.19e-06  Convergence criterion met
 Total energy in the final basis set =     -693.5687499440

                    Orbital Energies (a.u.)
 --------------------------------------------------------------

 Alpha MOs
 -- Occupied --
-19.1168 -10.2695 -10.2110 -10.2024 -10.2024 -10.1918 -10.1918 -10.1877
-10.1877 -10.1848 -10.1848 -10.1829 -10.1829 -10.1820 -10.1820 -10.1660
-10.1660  -1.0534  -0.8914  -0.8694  -0.8250  -0.7854  -0.7642  -0.7570
 -0.7384  -0.6943  -0.6619  -0.6449  -0.6283  -0.6055  -0.5749  -0.5488
 -0.5434  -0.4992  -0.4756  -0.4732  -0.4706  -0.4526  -0.4466  -0.4458
 -0.4358  -0.4284  -0.4263  -0.4158  -0.4059  -0.3937  -0.3822  -0.3755
 -0.3734  -0.3678  -0.3623  -0.3494  -0.3397  -0.3278  -0.2730  -0.2697
 -0.2673  -0.2645  -0.2594

          Ground-State Mulliken Net Atomic Charges

     Atom                 Charge (a.u.)
  ----------------------------------------
      1 C                    -0.815885
      2 C                     0.240281
      3 C                    -0.815354
      4 C                     0.273492
      5 C                    -0.103399
      6 C                    -0.442811
      7 C                    -0.433130
      8 C                     0.168428
      9 C                     0.300762
     10 C                    -0.459353
     11 O                    -0.352011
     12 C                     0.300648
     13 C                     0.167644
     14 C                    -0.432235
     15 C                    -0.443324
     16 C                    -0.104397
     17 C                     0.274102
     18 H                     0.165347
     19 H                     0.165246
     20 H                     0.187009
     21 H                     0.165312
     22 H                     0.186962
     23 H                     0.165342
     24 H                     0.174306
     25 H                     0.220635
     26 H                     0.210590
     27 H                     0.215261
     28 H                     0.215199
     29 H                     0.210595
     30 H                     0.220577
     31 H                     0.174161
  ----------------------------------------
  Sum of atomic charges =     0.000000

                    Cartesian Multipole Moments
 -----------------------------------------------------------------
    Charge (ESU x 10^10)
                -0.0000
    Dipole Moment (Debye)
         X       0.0001      Y       6.0542      Z      -0.0010
       Tot       6.0542
    Quadrupole Moments (Debye-Ang)
        XX     -79.2686     XY      -0.0011     YY    -103.8739
        XZ      -0.0015     YZ       0.0012     ZZ    -104.7224

 Total job time:  73.50s(wall), 547.56s(cpu)
        *  Thank you very much for using Q-Chem.  Have a nice day.  *
