 Gaussian 16, Revision A.03,
 Gaussian 16:  ES64L-G16RevA.03 25-Dec-2016

 --------------------------------------
 #P UB3LYP/6-311++G(d,p) nosym opt freq
 --------------------------------------

 -------
 Radical
 -------
 Symbolic Z-matrix:
 Charge = -1 Multiplicity = 2

 SCF Done:  E(UB3LYP) =  -878.761979451     A.U. after   23 cycles
 SCF Done:  E(UB3LYP) =  -878.797006656     A.U. after   18 cycles
 SCF Done:  E(UB3LYP) =  -878.803836341     A.U. after   19 cycles
 SCF Done:  E(UB3LYP) =  -878.822794944     A.U. after   17 cycles
 SCF Done:  E(UB3LYP) =  -878.823958260     A.U. after   17 cycles
 SCF Done:  E(UB3LYP) =  -878.824411865     A.U. after   17 cycles
 SCF Done:  E(UB3LYP) =  -878.824818088     A.U. after   16 cycles
 SCF Done:  E(UB3LYP) =  -878.824918091     A.U. after   16 cycles
 SCF Done:  E(UB3LYP) =  -878.824935604     A.U. after   15 cycles
 SCF Done:  E(UB3LYP) =  -878.824955963     A.U. after   13 cycles
 SCF Done:  E(UB3LYP) =  -878.824973799     A.U. after   13 cycles
 SCF Done:  E(UB3LYP) =  -878.824987986     A.U. after   14 cycles
 SCF Done:  E(UB3LYP) =  -878.824995022     A.U. after   14 cycles
 SCF Done:  E(UB3LYP) =  -878.824997703     A.U. after   14 cycles
 SCF Done:  E(UB3LYP) =  -878.824998263     A.U. after   11 cycles
 Optimization completed.
    -- Stationary point found.
 Normal termination of Gaussian 16 at Thu Dec 21 07:55:51 2023.

 ----------------------------------------------------------------------
 #P Geom=AllCheck Guess=TCheck SCRF=Check GenChk UB3LYP/6-311++G(d,p) F
 req
 ----------------------------------------------------------------------

 Structure from the checkpoint file:  "179-rad.chk"
 -------
 Radical
 -------
 Charge = -1 Multiplicity = 2

                          Input orientation:
 ---------------------------------------------------------------------
 Center     Atomic      Atomic             Coordinates (Angstroms)
 Number     Number       Type             X           Y           Z
 ---------------------------------------------------------------------
      1          6           0       -3.428394   -2.738347   -0.356974
      2          8           0       -2.138801   -2.198388   -0.200202
      3          6           0       -1.990823   -0.834375   -0.201611
      4          6           0       -3.078367    0.016041   -0.353625
      5          6           0       -2.917829    1.409722   -0.354169
      6          6           0       -1.663942    1.970879   -0.202300
      7          8           0       -1.542336    3.316385   -0.207265
      8          6           0       -0.517391    1.125725   -0.042830
      9          6           0        0.776622    1.759247    0.112803
     10          8           0        0.904477    3.037445    0.109755
     11          6           0        1.937353    0.909616    0.273654
     12          6           0        3.219688    1.486132    0.428257
     13          6           0        4.337889    0.692929    0.582666
     14          6           0        4.209382   -0.712999    0.587607
     15          6           0        2.963172   -1.291067    0.437759
     16          6           0        1.806022   -0.501608    0.278441
     17          6           0        0.502322   -1.176800    0.122937
     18          8           0        0.452775   -2.423783    0.136519
     19          6           0       -0.673427   -0.305866   -0.040986
     20          1           0       -3.300190   -3.821239   -0.324478
     21          1           0       -4.107364   -2.433247    0.451627
     22          1           0       -3.881026   -2.459563   -1.318915
     23          1           0       -4.074714   -0.386787   -0.475020
     24          1           0       -3.772404    2.066158   -0.473525
     25          1           0       -0.550190    3.482583   -0.082983
     26          1           0        3.288237    2.567369    0.420628
     27          1           0        5.316706    1.148603    0.700419
     28          1           0        5.089191   -1.337877    0.709078
     29          1           0        2.833362   -2.366888    0.437642
 ---------------------------------------------------------------------

 SCF Done:  E(UB3LYP) =  -878.824998263     A.U. after    2 cycles

 Alpha  occ. eigenvalues --  -19.03513 -18.99836 -18.96176 -18.94615 -10.12398
 Alpha  occ. eigenvalues --  -10.11475 -10.10748 -10.10521 -10.10416 -10.06262
 Alpha  occ. eigenvalues --  -10.06154 -10.05941 -10.05745 -10.05715 -10.05597
 Alpha  occ. eigenvalues --  -10.05435 -10.05423 -10.05310 -10.04896  -0.95409
 Alpha  occ. eigenvalues --   -0.92408  -0.87688  -0.87468  -0.74340  -0.72903
 Alpha  occ. eigenvalues --   -0.66940  -0.64173  -0.63429  -0.62388  -0.58595
 Alpha  occ. eigenvalues --   -0.55180  -0.51960  -0.50969  -0.46967  -0.45115
 Alpha  occ. eigenvalues --   -0.42649  -0.41968  -0.39988  -0.37691  -0.36581
 Alpha  occ. eigenvalues --   -0.36017  -0.34787  -0.34290  -0.32742  -0.31059
 Alpha  occ. eigenvalues --   -0.30791  -0.30391  -0.29767  -0.28774  -0.27833
 Alpha  occ. eigenvalues --   -0.27210  -0.27207  -0.26239  -0.24031  -0.23609
 Alpha  occ. eigenvalues --   -0.23598  -0.22753  -0.22128  -0.21940  -0.18144
 Alpha  occ. eigenvalues --   -0.14879  -0.13930  -0.13289  -0.12862  -0.10442
 Alpha  occ. eigenvalues --   -0.09216  -0.01889
 Alpha virt. eigenvalues --    0.07124   0.07159   0.08127   0.09212   0.09481
 Alpha virt. eigenvalues --    0.10092   0.11041   0.11150   0.11927   0.12656
 Alpha virt. eigenvalues --    0.12772   0.13287   0.14571   0.15245   0.15430

  Beta  occ. eigenvalues --  -19.03511 -18.99800 -18.95637 -18.94056 -10.12397
  Beta  occ. eigenvalues --  -10.11485 -10.10723 -10.10353 -10.10269 -10.06250
  Beta  occ. eigenvalues --  -10.06071 -10.05836 -10.05712 -10.05641 -10.05570
  Beta  occ. eigenvalues --  -10.05462 -10.05390 -10.05192 -10.04805  -0.95395
  Beta  occ. eigenvalues --   -0.92228  -0.86789  -0.86554  -0.74105  -0.72748
  Beta  occ. eigenvalues --   -0.66531  -0.64031  -0.63268  -0.62213  -0.58420
  Beta  occ. eigenvalues --   -0.54491  -0.51792  -0.50724  -0.46897  -0.44958
  Beta  occ. eigenvalues --   -0.42475  -0.41812  -0.39897  -0.37544  -0.36542
  Beta  occ. eigenvalues --   -0.35839  -0.34615  -0.34147  -0.32661  -0.30998
  Beta  occ. eigenvalues --   -0.30260  -0.29890  -0.29581  -0.28607  -0.27341
  Beta  occ. eigenvalues --   -0.27074  -0.26593  -0.25256  -0.23923  -0.23522
  Beta  occ. eigenvalues --   -0.22168  -0.22056  -0.21759  -0.21721  -0.17653
  Beta  occ. eigenvalues --   -0.13357  -0.12751  -0.12704  -0.12427  -0.09931
  Beta  occ. eigenvalues --   -0.08324
  Beta virt. eigenvalues --    0.03783   0.07157   0.08007   0.08120   0.09478
  Beta virt. eigenvalues --    0.10086   0.10251   0.11086   0.11155   0.11930
  Beta virt. eigenvalues --    0.12774   0.13056   0.13294   0.14563   0.15245

 Mulliken charges and spin densities:
               1          2
     1  C   -0.281079  -0.002023
     2  O   -0.090539   0.000827
     3  C   -0.352344   0.005769
     4  C   -0.238874   0.085124
     5  C   -0.136625   0.068341
     6  C   -0.322658   0.037985
     7  O   -0.380528   0.012055
     8  C    0.847954  -0.013174
     9  C   -0.389943   0.142469
    10  O   -0.418175   0.196628
    11  C    0.184903  -0.011258
    12  C    0.075189   0.049701
    13  C   -0.492416   0.006708
    14  C   -0.482703   0.069970
    15  C    0.097926  -0.004594
    16  C    0.060084   0.075941
    17  C   -0.365263   0.014804
    18  O   -0.345790   0.212686
    19  C    0.399864   0.072385
    20  H    0.172078  -0.000283
    21  H    0.120450   0.001615
    22  H    0.120370   0.001612
    23  H    0.146853  -0.005678
    24  H    0.148243  -0.005588
    25  H    0.360812  -0.004074
    26  H    0.159787  -0.001962
    27  H    0.122676  -0.001160
    28  H    0.126180  -0.005169
    29  H    0.153566   0.000345
 Sum of Mulliken charges =  -1.00000   1.00000

 Dipole moment (field-independent basis, Debye):
    X=             -2.1191    Y=             -3.0089    Z=             -0.4209  Tot=              3.7042
 Quadrupole moment (field-independent basis, Debye-Ang):
   XX=           -122.1930   YY=           -148.7135   ZZ=           -117.0538
   XY=              6.5887   XZ=             -0.8602   YZ=              1.2131

  Exact polarizability: 346.926   3.240 245.718  30.738  -1.721 109.681
 Approx polarizability: 516.672  -3.592 453.724  44.548  -4.829 173.856

                      1                      2                      3
                      A                      A                      A
 Frequencies --     33.1251                60.2006                74.4773
 Red. masses --      5.4874                 5.0267                 4.5011
 Frc consts  --      0.0035                 0.0107                 0.0147
 IR Inten    --      6.1599                 0.2879                 0.6428

                      4                      5                      6
                      A                      A                      A
 Frequencies --    119.6124               136.8580               173.6727
 Red. masses --      4.6664                 5.8057                 7.5115
 Frc consts  --      0.0393                 0.0641                 0.1335
 IR Inten    --      0.0679                 0.2976                 1.3868

                      7                      8                      9
                      A                      A                      A
 Frequencies --    173.9082               253.1129               259.3252
 Red. masses --      4.4091                 5.6834                 4.8111
 Frc consts  --      0.0786                 0.2145                 0.1906
 IR Inten    --      4.0672                 0.3734                 1.1230

                     10                     11                     12
                      A                      A                      A
 Frequencies --    266.0690               323.9451               347.5568
 Red. masses --      1.1462                 4.6757                 6.4622
 Frc consts  --      0.0478                 0.2891                 0.4599
 IR Inten    --      0.3036                 3.5582                 0.0491

                     13                     14                     15
                      A                      A                      A
 Frequencies --    367.4169               379.6758               412.6695
 Red. masses --     11.4419                 5.2922                 6.5285
 Frc consts  --      0.9100                 0.4495                 0.6550
 IR Inten    --      0.0812                 0.1281                 0.1097

                     16                     17                     18
                      A                      A                      A
 Frequencies --    423.1850               434.5686               441.2770
 Red. masses --      7.3145                 3.4114                11.5070
 Frc consts  --      0.7718                 0.3796                 1.3202
 IR Inten    --     12.9456                 0.8142                14.4358

                     19                     20                     21
                      A                      A                      A
 Frequencies --    463.8395               497.4088               523.9044
 Red. masses --      9.0780                 4.5231                 7.5735
 Frc consts  --      1.1507                 0.6594                 1.2248
 IR Inten    --      2.0453                 0.0008                 8.2393

                     22                     23                     24
                      A                      A                      A
 Frequencies --    548.4545               592.1788               621.6251
 Red. masses --      6.7977                 3.2308                 5.1847
 Frc consts  --      1.2047                 0.6675                 1.1804
 IR Inten    --      0.2547                23.7543                 3.5967

                     25                     26                     27
                      A                      A                      A
 Frequencies --    639.4074               665.6411               711.6718
 Red. masses --      4.8359                 6.4746                 2.3566
 Frc consts  --      1.1649                 1.6902                 0.7032
 IR Inten    --      0.1481                 7.5878                17.0876

                     28                     29                     30
                      A                      A                      A
 Frequencies --    715.4318               735.0867               751.4852
 Red. masses --      6.1060                 5.2698                 7.0469
 Frc consts  --      1.8414                 1.6777                 2.3447
 IR Inten    --     20.0790                 0.8378                25.6930

                     31                     32                     33
                      A                      A                      A
 Frequencies --    774.2365               789.3241               806.3171
 Red. masses --      1.7822                 2.1710                 3.7100
 Frc consts  --      0.6294                 0.7969                 1.4211
 IR Inten    --     56.0786                28.7081                 4.9225

                     34                     35                     36
                      A                      A                      A
 Frequencies --    861.5705               862.7557               868.2530
 Red. masses --      7.2507                 1.3597                 1.4592
 Frc consts  --      3.1711                 0.5963                 0.6481
 IR Inten    --     29.8022                 2.4151                 0.0052

                     37                     38                     39
                      A                      A                      A
 Frequencies --    897.0571               952.1233               965.6881
 Red. masses --      8.3222                 6.0403                 1.0546
 Frc consts  --      3.9457                 3.2262                 0.5795
 IR Inten    --     29.6429                17.6828                72.7627

                     40                     41                     42
                      A                      A                      A
 Frequencies --    979.2096               985.2287              1031.3457
 Red. masses --      1.3050                 1.3039                 2.9430
 Frc consts  --      0.7373                 0.7457                 1.8444
 IR Inten    --      0.0436                 1.2054                35.8698

                     43                     44                     45
                      A                      A                      A
 Frequencies --   1053.3890              1109.4854              1111.6805
 Red. masses --      2.8023                 2.1927                 3.6786
 Frc consts  --      1.8321                 1.5902                 2.6785
 IR Inten    --     14.5706                 7.6494               180.0073

                     46                     47                     48
                      A                      A                      A
 Frequencies --   1146.0511              1162.2110              1170.7093
 Red. masses --      1.4135                 1.2815                 1.5517
 Frc consts  --      1.0938                 1.0199                 1.2530
 IR Inten    --     20.1167                 0.7815                18.5374

                     49                     50                     51
                      A                      A                      A
 Frequencies --   1193.7277              1203.5566              1229.3362
 Red. masses --      2.1804                 1.4926                 3.0484
 Frc consts  --      1.8306                 1.2739                 2.7143
 IR Inten    --      0.3524                16.5225                 9.6483

                     52                     53                     54
                      A                      A                      A
 Frequencies --   1246.4431              1265.0767              1291.5276
 Red. masses --      1.9046                 3.9483                 3.7901
 Frc consts  --      1.7434                 3.7230                 3.7248
 IR Inten    --      4.5815               188.9702                40.4644

                     55                     56                     57
                      A                      A                      A
 Frequencies --   1317.7592              1337.2695              1364.9787
 Red. masses --      3.6234                 4.0908                 9.0403
 Frc consts  --      3.7071                 4.3101                 9.9240
 IR Inten    --    101.8367                13.9943                 3.5558

                     58                     59                     60
                      A                      A                      A
 Frequencies --   1377.6637              1393.1886              1465.4021
 Red. masses --      6.0214                 3.2828                 1.3304
 Frc consts  --      6.7334                 3.7541                 1.6833
 IR Inten    --     43.4737               297.9147                97.5174

                     61                     62                     63
                      A                      A                      A
 Frequencies --   1478.0835              1479.3982              1484.8963
 Red. masses --      2.9195                 2.8080                 1.0482
 Frc consts  --      3.7580                 3.6209                 1.3617
 IR Inten    --     25.9481                17.7643                 5.2723

                     64                     65                     66
                      A                      A                      A
 Frequencies --   1495.8163              1507.3526              1551.2297
 Red. masses --      1.9951                 1.2581                 4.9187
 Frc consts  --      2.6301                 1.6842                 6.9736
 IR Inten    --    249.0975                12.5837               558.6194

                     67                     68                     69
                      A                      A                      A
 Frequencies --   1557.2169              1573.8470              1613.6493
 Red. masses --      3.4219                 4.9851                 5.1262
 Frc consts  --      4.8889                 7.2753                 7.8643
 IR Inten    --     30.8159               192.8866                58.2178

                     70                     71                     72
                      A                      A                      A
 Frequencies --   1631.1667              1656.4547              2839.2261
 Red. masses --      4.9100                 2.8266                 1.0758
 Frc consts  --      7.6971                 4.5696                 5.1097
 IR Inten    --     18.5054                21.9347               423.2940

                     73                     74                     75
                      A                      A                      A
 Frequencies --   2963.8700              3007.0144              3099.4264
 Red. masses --      1.0366                 1.1040                 1.0949
 Frc consts  --      5.3653                 5.8814                 6.1972
 IR Inten    --    137.3328                71.7593                41.2532

                     76                     77                     78
                      A                      A                      A
 Frequencies --   3135.3313              3154.5230              3169.4414
 Red. masses --      1.0849                 1.0915                 1.0880
 Frc consts  --      6.2834                 6.3995                 6.4394
 IR Inten    --     18.3184                53.3778                25.3555

                     79                     80                     81
                      A                      A                      A
 Frequencies --   3186.6215              3189.6626              3199.0084
 Red. masses --      1.0913                 1.0925                 1.0904
 Frc consts  --      6.5292                 6.5488                 6.5745
 IR Inten    --     11.4314                25.7740                21.7544

 - Thermochemistry -
 -------------------
 Temperature   298.150 Kelvin.  Pressure   1.00000 Atm.
 Atom     1 has atomic number  6 and mass  12.00000

 Molecular mass:   254.05791 amu.
 Principal axes and moments of inertia in atomic units:
                           1         2         3
     Eigenvalues --  2997.491445447.547628433.56921
           X            0.97917  -0.15872  -0.12665
           Y            0.16189   0.98669   0.01507
           Z            0.12257  -0.03526   0.99183
 This molecule is an asymmetric top.
 Rotational symmetry number  1.
 Warning -- assumption of classical behavior for rotation
           may cause significant error
 Rotational temperatures (Kelvin)      0.02890     0.01590     0.01027
 Rotational constants (GHZ):           0.60208     0.33129     0.21399
 Zero-point vibrational energy     558252.9 (Joules/Mol)
                                  133.42564 (Kcal/Mol)
 Warning -- explicit consideration of  23 degrees of freedom as
           vibrations may cause significant error
 Vibrational temperatures:     47.66    86.62   107.16   172.10   196.91
          (Kelvin)            249.88   250.22   364.17   373.11   382.81
                              466.08   500.06   528.63   546.27   593.74
                              608.87   625.25   634.90   667.36   715.66
                              753.78   789.10   852.01   894.38   919.96
                              957.71  1023.94  1029.35  1057.63  1081.22
                             1113.95  1135.66  1160.11  1239.61  1241.31
                             1249.22  1290.67  1369.89  1389.41  1408.86
                             1417.52  1483.88  1515.59  1596.30  1599.46
                             1648.91  1672.16  1684.39  1717.51  1731.65
                             1768.74  1793.35  1820.16  1858.22  1895.96
                             1924.03  1963.90  1982.15  2004.49  2108.39
                             2126.63  2128.52  2136.43  2152.15  2168.74
                             2231.87  2240.49  2264.41  2321.68  2346.89
                             2383.27  4085.01  4264.35  4326.42  4459.38
                             4511.04  4538.66  4560.12  4584.84  4589.21
                             4602.66

 Zero-point correction=                           0.212627 (Hartree/Particle)
 Thermal correction to Energy=                    0.227344
 Thermal correction to Enthalpy=                  0.228288
 Thermal correction to Gibbs Free Energy=         0.169885
 Sum of electronic and zero-point Energies=           -878.612371
 Sum of electronic and thermal Energies=              -878.597654
 Sum of electronic and thermal Enthalpies=            -878.596710
 Sum of electronic and thermal Free Energies=         -878.655113

                     E (Thermal)             CV                S
                      KCal/Mol        Cal/Mol-Kelvin    Cal/Mol-Kelvin
 Total                  142.661             58.743            122.921
 Electronic               0.000              0.000              1.377
 Translational            0.889              2.981             42.497
 Rotational               0.889              2.981             33.287
 Vibrational            140.883             52.782             45.759
 Vibration     1          0.594              1.983              5.633
 Vibration     2          0.597              1.973              4.451
 Vibration     3          0.599              1.966              4.031
 Vibration     4          0.609              1.933              3.107
 Vibration     5          0.614              1.917              2.847
 Vibration     6          0.627              1.875              2.395
 Vibration     7          0.627              1.875              2.393
 Vibration     8          0.664              1.758              1.709
 Vibration     9          0.668              1.747              1.666
 Vibration    10          0.672              1.735              1.622
 Vibration    11          0.708              1.628              1.290
 Vibration    12          0.725              1.580              1.177
 Vibration    13          0.740              1.539              1.091
 Vibration    14          0.750              1.513              1.040
 Vibration    15          0.776              1.443              0.917
 Vibration    16          0.785              1.420              0.881
 Vibration    17          0.795              1.395              0.844
 Vibration    18          0.801              1.380              0.823
 Vibration    19          0.821              1.330              0.755
 Vibration    20          0.853              1.256              0.665
 Vibration    21          0.879              1.197              0.601
 Vibration    22          0.904              1.143              0.547
 Vibration    23          0.950              1.048              0.463

                           ! Non-Optimized Parameters !
 Normal termination of Gaussian 16 at Thu Dec 21 09:06:14 2023.
