 Q-Chem 5.4, Q-Chem, Inc., Pleasanton, CA (2021)
 Q-Chem 5.4.0 for Intel X86 EM64T Linux

User input:
--------------------------------------------------------------
$molecule
0 1
O                  2.5771110000      2.5232570000     -0.2079950000
C                  2.4608900000      1.2095770000      0.0174560000
C                  3.6349230000      0.4787910000      0.2615810000
C                  3.5702760000     -0.8827620000      0.5008650000
C                  2.3429290000     -1.5550980000      0.5045720000
C                  1.1719050000     -0.8500230000      0.2652700000
C                 -0.1263700000     -1.5891110000      0.2738510000
O                 -0.1729930000     -2.7893890000      0.4870560000
C                 -1.3679170000     -0.8032680000      0.0136720000
C                 -2.6024080000     -1.4584020000      0.0136570000
C                 -3.7714340000     -0.7455220000     -0.2265470000
C                 -3.7176040000      0.6298110000     -0.4691890000
C                 -2.4948700000      1.2904630000     -0.4713600000
C                 -1.3142220000      0.5802850000     -0.2304940000
C                 -0.0174350000      1.3041050000     -0.2370640000
O                  0.0142180000      2.5242490000     -0.4540680000
C                  1.2095400000      0.5444270000      0.0175140000
H                  1.6663920000      2.8755090000     -0.3583320000
H                  4.5783200000      1.0110010000      0.2560040000
H                  4.4846610000     -1.4344980000      0.6878980000
H                  2.2831260000     -2.6193660000      0.6907030000
H                 -2.6208410000     -2.5243330000      0.2038600000
H                 -4.7265650000     -1.2582580000     -0.2255210000
H                 -4.6306350000      1.1833650000     -0.6562190000
H                 -2.4309990000      2.3551890000     -0.6571730000
$end
$rem
MAX_SCF_CYCLES=200
BASIS  =  6-311++G(d,p)
GUI  =  2
JOB_TYPE  =  SP
METHOD  =  B3LYP
SOLVENT_METHOD = PCM
$end
$pcm
theory = CPCM
$end
$solvent
dielectric 37.219
opticaldielectric 1.43
$end

--------------------------------------------------------------

             Standard Nuclear Orientation (Angstroms)
    I     Atom           X                Y                Z
 ----------------------------------------------------------------
    1      O       2.5771110000     2.5232570000    -0.2079950000
    2      C       2.4608900000     1.2095770000     0.0174560000
    3      C       3.6349230000     0.4787910000     0.2615810000
    4      C       3.5702760000    -0.8827620000     0.5008650000
    5      C       2.3429290000    -1.5550980000     0.5045720000
    6      C       1.1719050000    -0.8500230000     0.2652700000
    7      C      -0.1263700000    -1.5891110000     0.2738510000
    8      O      -0.1729930000    -2.7893890000     0.4870560000
    9      C      -1.3679170000    -0.8032680000     0.0136720000
   10      C      -2.6024080000    -1.4584020000     0.0136570000
   11      C      -3.7714340000    -0.7455220000    -0.2265470000
   12      C      -3.7176040000     0.6298110000    -0.4691890000
   13      C      -2.4948700000     1.2904630000    -0.4713600000
   14      C      -1.3142220000     0.5802850000    -0.2304940000
   15      C      -0.0174350000     1.3041050000    -0.2370640000
   16      O       0.0142180000     2.5242490000    -0.4540680000
   17      C       1.2095400000     0.5444270000     0.0175140000
   18      H       1.6663920000     2.8755090000    -0.3583320000
   19      H       4.5783200000     1.0110010000     0.2560040000
   20      H       4.4846610000    -1.4344980000     0.6878980000
   21      H       2.2831260000    -2.6193660000     0.6907030000
   22      H      -2.6208410000    -2.5243330000     0.2038600000
   23      H      -4.7265650000    -1.2582580000    -0.2255210000
   24      H      -4.6306350000     1.1833650000    -0.6562190000
   25      H      -2.4309990000     2.3551890000    -0.6571730000
 ----------------------------------------------------------------

    9    -764.2257720646      2.00e-06  Convergence criterion met
 Total energy in the final basis set =     -764.2257720646

                    Orbital Energies (a.u.)
 --------------------------------------------------------------

 Alpha MOs
 -- Occupied --
-19.1650 -19.1415 -19.1328 -10.2908 -10.2852 -10.2685 -10.2119 -10.2108
-10.2095 -10.2094 -10.2017 -10.1985 -10.1982 -10.1977 -10.1974 -10.1948
-10.1936  -1.0942  -1.0681  -1.0640  -0.8954  -0.8806  -0.8153  -0.7807
 -0.7740  -0.7706  -0.6956  -0.6699  -0.6565  -0.6205  -0.6001  -0.5653
 -0.5608  -0.5405  -0.5097  -0.4962  -0.4871  -0.4774  -0.4655  -0.4647
 -0.4523  -0.4507  -0.4453  -0.4316  -0.4181  -0.4143  -0.3954  -0.3861
 -0.3813  -0.3778  -0.3685  -0.3582  -0.2966  -0.2938  -0.2799  -0.2795
 -0.2783  -0.2522

          Ground-State Mulliken Net Atomic Charges

     Atom                 Charge (a.u.)
  ----------------------------------------
      1 O                    -0.314989
      2 C                    -0.112513
      3 C                    -0.165571
      4 C                    -0.359213
      5 C                    -0.039552
      6 C                     0.474297
      7 C                    -0.422530
      8 O                    -0.290374
      9 C                    -0.051375
     10 C                     0.125043
     11 C                    -0.414758
     12 C                    -0.424413
     13 C                     0.161006
     14 C                     0.186309
     15 C                    -0.338605
     16 O                    -0.330184
     17 C                     0.458667
     18 H                     0.353325
     19 H                     0.232146
     20 H                     0.236579
     21 H                     0.189089
     22 H                     0.195460
     23 H                     0.225462
     24 H                     0.223905
     25 H                     0.202790
  ----------------------------------------
  Sum of atomic charges =     0.000000

                    Cartesian Multipole Moments
 -----------------------------------------------------------------
    Charge (ESU x 10^10)
                 0.0000
    Dipole Moment (Debye)
         X      -1.6899      Y      -0.3391      Z      -0.1013
       Tot       1.7265
    Quadrupole Moments (Debye-Ang)
        XX     -69.8748     XY      -6.8810     YY    -111.0227
        XZ       4.0972     YZ       1.3660     ZZ     -99.6961

 Total job time:  50.25s(wall), 329.87s(cpu)
        *  Thank you very much for using Q-Chem.  Have a nice day.  *
