 Q-Chem 5.4, Q-Chem, Inc., Pleasanton, CA (2021)
 Q-Chem 5.4.0 for Intel X86 EM64T Linux

User input:
--------------------------------------------------------------
$molecule
-1 2
C                  6.8973820000     -1.6411380000     -0.2542620000
C                  7.4565760000     -0.6827710000     -1.0754740000
C                  6.6420210000      0.3225810000     -1.6407480000
C                  5.2883920000      0.3442170000     -1.3704980000
C                  4.6933610000     -0.6251160000     -0.5336990000
C                  5.5153660000     -1.6396560000      0.0367640000
C                  4.9713140000     -2.6794310000      0.9144020000
C                  3.5317240000     -2.6110390000      1.1685930000
C                  2.7084270000     -1.5961630000      0.5981940000
C                  3.2518670000     -0.5587380000     -0.2776470000
C                  2.9443270000     -3.5862760000      2.0081190000
C                  1.5945310000     -3.5473360000      2.2649750000
C                  0.7600010000     -2.5522900000      1.7115540000
C                  1.3280010000     -1.5982890000      0.8916290000
O                  5.6941400000     -3.5736440000      1.4175140000
O                  2.5263380000      0.3345370000     -0.7794970000
H                  7.4984060000     -2.4243750000      0.1931900000
H                  4.6389450000      1.1037910000     -1.7903060000
H                  3.5965230000     -4.3428830000      2.4251170000
H                  0.7217540000     -0.8171690000      0.4468730000
I                  0.7174170000     -5.0197540000      3.5304570000
H                  8.5215160000     -0.7009850000     -1.2872490000
H                  7.0809370000      1.0770020000     -2.2868600000
H                 -0.3012680000     -2.5390850000      1.9263180000
$end
$rem
MAX_SCF_CYCLES=200
BASIS  =  6-311++G(d,p)
GUI  =  2
JOB_TYPE  =  SP
METHOD  =  B3LYP
SOLVENT_METHOD = PCM
$end
$pcm
theory = CPCM
$end
$solvent
dielectric 37.219
opticaldielectric 1.43
$end

--------------------------------------------------------------

             Standard Nuclear Orientation (Angstroms)
    I     Atom           X                Y                Z
 ----------------------------------------------------------------
    1      C       6.8973820000    -1.6411380000    -0.2542620000
    2      C       7.4565760000    -0.6827710000    -1.0754740000
    3      C       6.6420210000     0.3225810000    -1.6407480000
    4      C       5.2883920000     0.3442170000    -1.3704980000
    5      C       4.6933610000    -0.6251160000    -0.5336990000
    6      C       5.5153660000    -1.6396560000     0.0367640000
    7      C       4.9713140000    -2.6794310000     0.9144020000
    8      C       3.5317240000    -2.6110390000     1.1685930000
    9      C       2.7084270000    -1.5961630000     0.5981940000
   10      C       3.2518670000    -0.5587380000    -0.2776470000
   11      C       2.9443270000    -3.5862760000     2.0081190000
   12      C       1.5945310000    -3.5473360000     2.2649750000
   13      C       0.7600010000    -2.5522900000     1.7115540000
   14      C       1.3280010000    -1.5982890000     0.8916290000
   15      O       5.6941400000    -3.5736440000     1.4175140000
   16      O       2.5263380000     0.3345370000    -0.7794970000
   17      H       7.4984060000    -2.4243750000     0.1931900000
   18      H       4.6389450000     1.1037910000    -1.7903060000
   19      H       3.5965230000    -4.3428830000     2.4251170000
   20      H       0.7217540000    -0.8171690000     0.4468730000
   21      I       0.7174170000    -5.0197540000     3.5304570000
   22      H       8.5215160000    -0.7009850000    -1.2872490000
   23      H       7.0809370000     1.0770020000    -2.2868600000
   24      H      -0.3012680000    -2.5390850000     1.9263180000
 ----------------------------------------------------------------

    8   -7608.0149189304      6.94e-06  Convergence criterion met
 Total energy in the final basis set =    -7608.0149189304

                    Orbital Energies (a.u.)
 --------------------------------------------------------------

 Alpha MOs
 -- Occupied --
********-176.2971-165.7007-165.6988-165.6988 -35.7935 -31.2863 -31.2809
-31.2808 -22.9369 -22.9356 -22.9356 -22.9318 -22.9318 -19.0816 -19.0810
-10.2299 -10.2298 -10.2228 -10.1839 -10.1827 -10.1816 -10.1791 -10.1786
-10.1765 -10.1759 -10.1740 -10.1736 -10.1716 -10.1715  -6.3429  -4.7542
 -4.7410  -4.7409  -2.0201  -2.0161  -2.0159  -2.0046  -2.0044  -1.0097
 -1.0072  -0.8712  -0.8568  -0.7935  -0.7636  -0.7527  -0.7469  -0.6784
 -0.6593  -0.6337  -0.6075  -0.5921  -0.5608  -0.5367  -0.5197  -0.4780
 -0.4690  -0.4612  -0.4443  -0.4328  -0.4283  -0.4251  -0.4190  -0.4135
 -0.4049  -0.3865  -0.3784  -0.3707  -0.3533  -0.3494  -0.3417  -0.3351
 -0.2952  -0.2702  -0.2693  -0.2604  -0.2588  -0.2527  -0.2428  -0.2423
 -0.1467

 Beta MOs
 -- Occupied --
********-176.2971-165.7007-165.6988-165.6988 -35.7935 -31.2863 -31.2809
-31.2808 -22.9369 -22.9356 -22.9356 -22.9318 -22.9318 -19.0763 -19.0759
-10.2280 -10.2280 -10.2222 -10.1833 -10.1826 -10.1807 -10.1790 -10.1778
-10.1758 -10.1752 -10.1736 -10.1731 -10.1715 -10.1714  -6.3429  -4.7542
 -4.7410  -4.7409  -2.0201  -2.0160  -2.0159  -2.0046  -2.0044  -1.0005
 -0.9978  -0.8688  -0.8554  -0.7896  -0.7615  -0.7508  -0.7451  -0.6730
 -0.6561  -0.6318  -0.6055  -0.5914  -0.5583  -0.5346  -0.5178  -0.4750
 -0.4679  -0.4599  -0.4433  -0.4321  -0.4247  -0.4154  -0.4135  -0.4117
 -0.4023  -0.3746  -0.3697  -0.3632  -0.3524  -0.3408  -0.3391  -0.3339
 -0.2881  -0.2692  -0.2597  -0.2512  -0.2493  -0.2480  -0.2380  -0.2375

          Ground-State Mulliken Net Atomic Charges

     Atom                 Charge (a.u.)    Spin (a.u.)
  --------------------------------------------------------
      1 C                     0.074262       0.031409
      2 C                    -0.483143       0.031545
      3 C                    -0.471416       0.036964
      4 C                     0.068068       0.026867
      5 C                     0.192941       0.028462
      6 C                     0.244898       0.024526
      7 C                    -0.330005       0.104379
      8 C                     0.218437       0.059613
      9 C                     0.126295       0.045142
     10 C                    -0.387003       0.099698
     11 C                     0.121344       0.024862
     12 C                    -0.075213       0.033849
     13 C                    -0.554220       0.049402
     14 C                    -0.040496       0.021049
     15 O                    -0.473092       0.200245
     16 O                    -0.473090       0.195876
     17 H                     0.170450      -0.001768
     18 H                     0.170929      -0.001365
     19 H                     0.156929      -0.001333
     20 H                     0.179166      -0.000821
     21 I                    -0.033407       0.000923
     22 H                     0.200550      -0.002639
     23 H                     0.200981      -0.003033
     24 H                     0.195832      -0.003852
  --------------------------------------------------------
  Sum of atomic charges =    -1.000000

                    Cartesian Multipole Moments
 -----------------------------------------------------------------
    Charge (ESU x 10^10)
                -4.8032
    Dipole Moment (Debye)
         X     -18.2030      Y       9.7790      Z      -3.3212
       Tot      20.9286
    Quadrupole Moments (Debye-Ang)
        XX    -201.5930     XY      46.8862     YY    -165.5102
        XZ     -18.7953     YZ      17.7122     ZZ    -136.8243

 Total job time:  154.16s(wall), 328.74s(cpu)
        *  Thank you very much for using Q-Chem.  Have a nice day.  *
