 Gaussian 16, Revision A.03,
 Gaussian 16:  ES64L-G16RevA.03 25-Dec-2016

 ----------------------------------------------------------------------
 #P UB3LYP/6-311++G(d,p) nosym opt freq SCRF=(PCM,Solvent=n,n-DiMethylF
 ormamide)
 ----------------------------------------------------------------------

 -------
 Reduced
 -------
 Symbolic Z-matrix:
 Charge = -2 Multiplicity = 1

 SCF Done:  E(UB3LYP) =  -612.938680206     A.U. after   18 cycles
 SCF Done:  E(UB3LYP) =  -612.939779766     A.U. after   14 cycles
 SCF Done:  E(UB3LYP) =  -612.940145974     A.U. after   14 cycles
 SCF Done:  E(UB3LYP) =  -612.940639324     A.U. after   14 cycles
 SCF Done:  E(UB3LYP) =  -612.940911672     A.U. after   14 cycles
 SCF Done:  E(UB3LYP) =  -612.941071306     A.U. after   15 cycles
 SCF Done:  E(UB3LYP) =  -612.941206856     A.U. after   15 cycles
 SCF Done:  E(UB3LYP) =  -612.941179961     A.U. after   15 cycles
 SCF Done:  E(UB3LYP) =  -612.941262949     A.U. after   14 cycles
 SCF Done:  E(UB3LYP) =  -612.941266278     A.U. after   11 cycles
 SCF Done:  E(UB3LYP) =  -612.941271282     A.U. after   13 cycles
 SCF Done:  E(UB3LYP) =  -612.941271535     A.U. after   11 cycles
 Optimization completed.
    -- Stationary point found.
 Normal termination of Gaussian 16 at Sat Feb 10 12:20:09 2024.

 ----------------------------------------------------------------------
 #P Geom=AllCheck Guess=TCheck SCRF=Check GenChk UB3LYP/6-311++G(d,p) F
 req
 ----------------------------------------------------------------------

 Structure from the checkpoint file:  "062-an.chk"
 -------
 Reduced
 -------
 Charge = -2 Multiplicity = 1

                          Input orientation:
 ---------------------------------------------------------------------
 Center     Atomic      Atomic             Coordinates (Angstroms)
 Number     Number       Type             X           Y           Z
 ---------------------------------------------------------------------
      1          6           0       -1.507870   -2.587269    1.055851
      2          6           0       -2.240676   -2.187967   -0.121260
      3          6           0       -1.901639   -0.991716   -0.802908
      4          6           0       -0.870249   -0.102756   -0.416316
      5          6           0       -0.158747   -0.516507    0.748834
      6          6           0       -0.464857   -1.688324    1.434438
      7          8           0       -1.731706   -3.687262    1.730654
      8          8           0       -0.593400    1.014398   -1.059895
      9          6           0       -3.346340   -3.016918   -0.656224
     10          6           0       -4.220027   -3.733697    0.189754
     11          6           0       -3.594000   -3.107452   -2.043093
     12          6           0       -4.653967   -3.855092   -2.554138
     13          6           0       -5.282411   -4.477464   -0.319685
     14          6           0       -5.510553   -4.547306   -1.696473
     15          1           0       -2.491265   -0.704601   -1.671351
     16          1           0        0.646780    0.122184    1.109348
     17          1           0        0.113521   -1.957688    2.317249
     18          1           0       -4.041801   -3.700643    1.255565
     19          1           0       -2.933621   -2.594212   -2.732969
     20          1           0       -4.804834   -3.904415   -3.628066
     21          1           0       -5.939287   -5.006741    0.364075
     22          1           0       -6.333972   -5.132294   -2.091668
 ---------------------------------------------------------------------

 SCF Done:  E(UB3LYP) =  -612.941271535     A.U. after    1 cycles

 Alpha  occ. eigenvalues --  -19.01107 -19.00909 -10.16964 -10.16614 -10.16372
 Alpha  occ. eigenvalues --  -10.16306 -10.16174 -10.16004 -10.15694 -10.15251
 Alpha  occ. eigenvalues --  -10.13320 -10.12385 -10.12201 -10.11795  -0.92003
 Alpha  occ. eigenvalues --   -0.91128  -0.84292  -0.78153  -0.74398  -0.73207
 Alpha  occ. eigenvalues --   -0.68716  -0.64506  -0.59579  -0.59033  -0.55081
 Alpha  occ. eigenvalues --   -0.52837  -0.49042  -0.44454  -0.44349  -0.42491
 Alpha  occ. eigenvalues --   -0.41229  -0.40778  -0.40417  -0.38035  -0.36187
 Alpha  occ. eigenvalues --   -0.34871  -0.34578  -0.34123  -0.32886  -0.31508
 Alpha  occ. eigenvalues --   -0.31236  -0.30343  -0.25661  -0.24484  -0.21899
 Alpha  occ. eigenvalues --   -0.19948  -0.18997  -0.18857  -0.11799
 Alpha virt. eigenvalues --   -0.01457  -0.00255   0.00215   0.01080   0.01618
 Alpha virt. eigenvalues --    0.02646   0.02831   0.03353   0.04000   0.04632
 Alpha virt. eigenvalues --    0.05108   0.05735   0.06357   0.06790   0.07590

  Beta  occ. eigenvalues --  -19.01107 -19.00909 -10.16964 -10.16614 -10.16372
  Beta  occ. eigenvalues --  -10.16306 -10.16174 -10.16004 -10.15694 -10.15251
  Beta  occ. eigenvalues --  -10.13320 -10.12385 -10.12201 -10.11795  -0.92003
  Beta  occ. eigenvalues --   -0.91128  -0.84292  -0.78153  -0.74398  -0.73207
  Beta  occ. eigenvalues --   -0.68716  -0.64506  -0.59579  -0.59033  -0.55081
  Beta  occ. eigenvalues --   -0.52837  -0.49042  -0.44454  -0.44349  -0.42491
  Beta  occ. eigenvalues --   -0.41229  -0.40778  -0.40417  -0.38035  -0.36187
  Beta  occ. eigenvalues --   -0.34871  -0.34578  -0.34123  -0.32886  -0.31508
  Beta  occ. eigenvalues --   -0.31236  -0.30343  -0.25661  -0.24484  -0.21899
  Beta  occ. eigenvalues --   -0.19948  -0.18997  -0.18857  -0.11799
  Beta virt. eigenvalues --   -0.01457  -0.00255   0.00215   0.01080   0.01618
  Beta virt. eigenvalues --    0.02646   0.02831   0.03353   0.04000   0.04632
  Beta virt. eigenvalues --    0.05108   0.05735   0.06357   0.06790   0.07590

 Mulliken charges and spin densities:
               1          2
     1  C   -1.042442  -0.000000
     2  C    1.324785   0.000000
     3  C   -0.653490  -0.000000
     4  C   -0.417538   0.000000
     5  C   -0.087978  -0.000000
     6  C   -0.027788   0.000000
     7  O   -0.701807   0.000000
     8  O   -0.773041  -0.000000
     9  C    1.046298   0.000000
    10  C   -0.409197   0.000000
    11  C   -0.545502  -0.000000
    12  C   -0.298193  -0.000000
    13  C   -0.167554  -0.000000
    14  C   -0.488175   0.000000
    15  H    0.111035  -0.000000
    16  H    0.136005   0.000000
    17  H    0.134825  -0.000000
    18  H    0.173015   0.000000
    19  H    0.166837  -0.000000
    20  H    0.177933   0.000000
    21  H    0.181453  -0.000000
    22  H    0.160520   0.000000
 Sum of Mulliken charges =  -2.00000  -0.00000

 Dipole moment (field-independent basis, Debye):
    X=             13.1866    Y=             13.6746    Z=             -1.5290  Tot=             19.0583
 Quadrupole moment (field-independent basis, Debye-Ang):
   XX=           -118.2254   YY=           -160.0390   ZZ=           -104.5881
   XY=            -31.5871   XZ=              4.9359   YZ=             25.2901

  Exact polarizability: 281.115  96.660 259.988  64.801 -12.672 263.301
 Approx polarizability: 297.104  97.063 279.702  64.738 -24.064 300.886

                      1                      2                      3
                      A                      A                      A
 Frequencies --     68.3849                84.0429               112.8893
 Red. masses --      4.4691                 4.4469                 5.8412
 Frc consts  --      0.0123                 0.0185                 0.0439
 IR Inten    --      2.3567                 4.0723                 6.1712

                      4                      5                      6
                      A                      A                      A
 Frequencies --    150.8486               253.7785               275.7016
 Red. masses --      8.6315                 5.0243                 8.3405
 Frc consts  --      0.1157                 0.1907                 0.3735
 IR Inten    --     17.4360                 1.0097                18.4904

                      7                      8                      9
                      A                      A                      A
 Frequencies --    317.8255               363.6263               400.5564
 Red. masses --      5.9887                 5.8611                 8.8300
 Frc consts  --      0.3564                 0.4566                 0.8347
 IR Inten    --     10.0082                 0.7756                 3.8949

                     10                     11                     12
                      A                      A                      A
 Frequencies --    419.5269               455.4459               482.4229
 Red. masses --      2.9533                 3.7314                11.5703
 Frc consts  --      0.3063                 0.4560                 1.5865
 IR Inten    --      3.4023                 6.5659                 6.7903

                     13                     14                     15
                      A                      A                      A
 Frequencies --    519.9421               562.8752               614.2163
 Red. masses --      2.6585                 4.5758                 2.6553
 Frc consts  --      0.4234                 0.8542                 0.5902
 IR Inten    --      4.5488                 4.9688                34.4613

                     16                     17                     18
                      A                      A                      A
 Frequencies --    631.6805               645.3489               705.4992
 Red. masses --      5.9787                 6.4224                 1.7608
 Frc consts  --      1.4056                 1.5759                 0.5164
 IR Inten    --      4.4480                18.6776                81.2023

                     19                     20                     21
                      A                      A                      A
 Frequencies --    717.4984               731.5985               773.5700
 Red. masses --      5.4007                 2.8789                 2.0079
 Frc consts  --      1.6381                 0.9079                 0.7079
 IR Inten    --     15.0323                17.7902                69.0936

                     22                     23                     24
                      A                      A                      A
 Frequencies --    807.2060               817.8666               849.7748
 Red. masses --      5.3173                 2.1068                 1.6340
 Frc consts  --      2.0413                 0.8303                 0.6952
 IR Inten    --    185.2363                63.8830                48.2936

                     25                     26                     27
                      A                      A                      A
 Frequencies --    850.0744               897.4258               913.6342
 Red. masses --      1.3026                 4.9618                 1.3712
 Frc consts  --      0.5546                 2.3544                 0.6744
 IR Inten    --      6.7343                19.1280                 4.5337

                     28                     29                     30
                      A                      A                      A
 Frequencies --    919.3384               983.4950               990.9648
 Red. masses --      1.5123                 1.3612                 1.2911
 Frc consts  --      0.7531                 0.7757                 0.7470
 IR Inten    --      8.4365                 0.6564                 3.8709

                     31                     32                     33
                      A                      A                      A
 Frequencies --   1006.4081              1017.2931              1047.2788
 Red. masses --      5.0307                 3.2017                 2.0316
 Frc consts  --      3.0021                 1.9522                 1.3129
 IR Inten    --     38.0289                33.4463                15.3285

                     34                     35                     36
                      A                      A                      A
 Frequencies --   1088.9345              1106.6988              1167.3778
 Red. masses --      1.6248                 1.4729                 1.1906
 Frc consts  --      1.1351                 1.0629                 0.9560
 IR Inten    --     29.4814                 5.2555                79.7022

                     37                     38                     39
                      A                      A                      A
 Frequencies --   1174.6953              1194.6213              1231.4811
 Red. masses --      2.2732                 1.2535                 2.1545
 Frc consts  --      1.8482                 1.0540                 1.9251
 IR Inten    --    436.8693                27.1819               493.6378

                     40                     41                     42
                      A                      A                      A
 Frequencies --   1238.5968              1296.1504              1306.1769
 Red. masses --      2.5732                 2.4181                 4.4147
 Frc consts  --      2.3259                 2.3935                 4.4377
 IR Inten    --    179.6479               196.0896               160.9384

                     43                     44                     45
                      A                      A                      A
 Frequencies --   1311.5352              1346.1467              1392.9525
 Red. masses --      7.5069                 1.9297                 3.5822
 Frc consts  --      7.6080                 2.0603                 4.0951
 IR Inten    --    271.7304                43.5775               444.5316

                     46                     47                     48
                      A                      A                      A
 Frequencies --   1446.6830              1469.5539              1495.4631
 Red. masses --      2.6003                 2.3437                 4.8713
 Frc consts  --      3.2065                 2.9821                 6.4187
 IR Inten    --    593.9733               194.4841               151.3889

                     49                     50                     51
                      A                      A                      A
 Frequencies --   1513.3954              1592.3122              1606.0151
 Red. masses --      2.1937                 5.0836                 6.2851
 Frc consts  --      2.9603                 7.5942                 9.5513
 IR Inten    --    162.5668                12.0813               116.2439

                     52                     53                     54
                      A                      A                      A
 Frequencies --   1622.8960              3095.1564              3112.9200
 Red. masses --      5.6028                 1.0843                 1.0880
 Frc consts  --      8.6943                 6.1201                 6.2119
 IR Inten    --    124.4343                74.0731               129.1468

                     55                     56                     57
                      A                      A                      A
 Frequencies --   3120.1493              3145.9837              3152.4251
 Red. masses --      1.0918                 1.0850                 1.0888
 Frc consts  --      6.2623                 6.3271                 6.3749
 IR Inten    --     94.3599                13.7284                29.2437

                     58                     59                     60
                      A                      A                      A
 Frequencies --   3170.1959              3178.0820              3205.3766
 Red. masses --      1.0914                 1.0958                 1.0921
 Frc consts  --      6.4626                 6.5212                 6.6108
 IR Inten    --     55.4498                41.0810                10.2915

 - Thermochemistry -
 -------------------
 Temperature   298.150 Kelvin.  Pressure   1.00000 Atm.
 Atom     1 has atomic number  6 and mass  12.00000

 Molecular mass:   184.05243 amu.
 Principal axes and moments of inertia in atomic units:
                           1         2         3
     Eigenvalues --  1270.295233992.231485094.26613
           X            0.72790   0.16008   0.66673
           Y            0.64060  -0.50551  -0.57800
           Z            0.24451   0.84784  -0.47051
 This molecule is an asymmetric top.
 Rotational symmetry number  1.
 Warning -- assumption of classical behavior for rotation
           may cause significant error
 Rotational temperatures (Kelvin)      0.06818     0.02170     0.01700
 Rotational constants (GHZ):           1.42073     0.45206     0.35427
 Zero-point vibrational energy     425691.2 (Joules/Mol)
                                  101.74264 (Kcal/Mol)
 Warning -- explicit consideration of  15 degrees of freedom as
           vibrations may cause significant error
 Vibrational temperatures:     98.39   120.92   162.42   217.04   365.13
          (Kelvin)            396.67   457.28   523.18   576.31   603.61
                              655.29   694.10   748.08   809.85   883.72
                              908.85   928.51  1015.06  1032.32  1052.61
                             1112.99  1161.39  1176.73  1222.64  1223.07
                             1291.20  1314.52  1322.72  1415.03  1425.78
                             1448.00  1463.66  1506.80  1566.73  1592.29
                             1679.60  1690.12  1718.79  1771.83  1782.06
                             1864.87  1879.30  1887.01  1936.80  2004.15
                             2081.45  2114.36  2151.64  2177.44  2290.98
                             2310.70  2334.99  4453.24  4478.80  4489.20
                             4526.37  4535.64  4561.20  4572.55  4611.82

 Zero-point correction=                           0.162137 (Hartree/Particle)
 Thermal correction to Energy=                    0.172715
 Thermal correction to Enthalpy=                  0.173659
 Thermal correction to Gibbs Free Energy=         0.125386
 Sum of electronic and zero-point Energies=           -612.779134
 Sum of electronic and thermal Energies=              -612.768557
 Sum of electronic and thermal Enthalpies=            -612.767613
 Sum of electronic and thermal Free Energies=         -612.815886

                     E (Thermal)             CV                S
                      KCal/Mol        Cal/Mol-Kelvin    Cal/Mol-Kelvin
 Total                  108.380             42.670            101.599
 Electronic               0.000              0.000              0.000
 Translational            0.889              2.981             41.536
 Rotational               0.889              2.981             31.624
 Vibrational            106.603             36.708             28.438
 Vibration     1          0.598              1.969              4.199
 Vibration     2          0.601              1.960              3.794
 Vibration     3          0.607              1.939              3.219
 Vibration     4          0.618              1.902              2.661
 Vibration     5          0.665              1.756              1.704
 Vibration     6          0.677              1.718              1.560
 Vibration     7          0.704              1.640              1.321
 Vibration     8          0.737              1.547              1.107
 Vibration     9          0.766              1.469              0.961
 Vibration    10          0.782              1.428              0.894
 Vibration    11          0.814              1.349              0.779
 Vibration    12          0.839              1.289              0.704
 Vibration    13          0.875              1.206              0.610
 Vibration    14          0.919              1.112              0.518
 Vibration    15          0.974              1.002              0.426

 Optimization completed.
    -- Stationary point found.
 Normal termination of Gaussian 16 at Sat Feb 10 12:48:18 2024.
