 Q-Chem 5.4, Q-Chem, Inc., Pleasanton, CA (2021)
 Q-Chem 5.4.0 for Intel X86 EM64T Linux

User input:
--------------------------------------------------------------
$molecule
0 1
N                  3.1040460000     -1.3456670000      1.2244260000
C                  2.6486970000     -0.5878700000      0.1825730000
C                  3.5885400000     -0.1213650000     -0.7633190000
C                  3.2119960000      0.6753830000     -1.8148360000
C                  1.8755640000      1.0685820000     -1.9924700000
O                  1.5477910000      1.8652040000     -3.0449860000
C                  0.9038550000      0.6257650000     -1.0800710000
C                 -0.5103050000      1.0263380000     -1.2387910000
O                 -0.8629440000      1.7895840000     -2.1552800000
C                 -1.5070560000      0.5105760000     -0.2948500000
C                 -2.8493330000      0.8964520000     -0.4626490000
O                 -3.2699120000      1.7114530000     -1.4389410000
C                 -3.8219910000      0.4107930000      0.4362690000
C                 -3.4706440000     -0.4300610000      1.4575910000
C                 -2.1277560000     -0.8458200000      1.6610370000
N                 -1.8646870000     -1.7092120000      2.6842280000
C                 -1.1338120000     -0.3617230000      0.7730720000
C                  0.2695630000     -0.7286570000      0.9520880000
O                  0.6093420000     -1.4785880000      1.8981250000
C                  1.2854980000     -0.2178540000      0.0126070000
H                  4.0381870000     -1.7160790000      1.1810460000
H                  2.4105880000     -1.7696610000      1.8274320000
H                  4.6306320000     -0.3999470000     -0.6460200000
H                  3.9606530000      1.0156690000     -2.5250340000
H                  2.3474170000      2.0567830000     -3.5475680000
H                 -2.4568380000      1.9489060000     -1.9622460000
H                 -4.8499430000      0.7208440000      0.2915630000
H                 -4.2332520000     -0.7992860000      2.1361190000
H                 -0.8946170000     -1.9194090000      2.8807790000
H                 -2.5792800000     -1.8911350000      3.3681050000
$end

$rem
BASIS  =  6-311++G(d,p)
GUI  =  2
JOB_TYPE  =  SP
METHOD  =  B3LYP
SCF_CONVERGENCE  = 8
SOLVENT_METHOD = sm12
$end

$smx
solvent dimethylformamide
charges CM5
$end

--------------------------------------------------------------

             Standard Nuclear Orientation (Angstroms)
    I     Atom           X                Y                Z
 ----------------------------------------------------------------
    1      N       3.1040460000    -1.3456670000     1.2244260000
    2      C       2.6486970000    -0.5878700000     0.1825730000
    3      C       3.5885400000    -0.1213650000    -0.7633190000
    4      C       3.2119960000     0.6753830000    -1.8148360000
    5      C       1.8755640000     1.0685820000    -1.9924700000
    6      O       1.5477910000     1.8652040000    -3.0449860000
    7      C       0.9038550000     0.6257650000    -1.0800710000
    8      C      -0.5103050000     1.0263380000    -1.2387910000
    9      O      -0.8629440000     1.7895840000    -2.1552800000
   10      C      -1.5070560000     0.5105760000    -0.2948500000
   11      C      -2.8493330000     0.8964520000    -0.4626490000
   12      O      -3.2699120000     1.7114530000    -1.4389410000
   13      C      -3.8219910000     0.4107930000     0.4362690000
   14      C      -3.4706440000    -0.4300610000     1.4575910000
   15      C      -2.1277560000    -0.8458200000     1.6610370000
   16      N      -1.8646870000    -1.7092120000     2.6842280000
   17      C      -1.1338120000    -0.3617230000     0.7730720000
   18      C       0.2695630000    -0.7286570000     0.9520880000
   19      O       0.6093420000    -1.4785880000     1.8981250000
   20      C       1.2854980000    -0.2178540000     0.0126070000
   21      H       4.0381870000    -1.7160790000     1.1810460000
   22      H       2.4105880000    -1.7696610000     1.8274320000
   23      H       4.6306320000    -0.3999470000    -0.6460200000
   24      H       3.9606530000     1.0156690000    -2.5250340000
   25      H       2.3474170000     2.0567830000    -3.5475680000
   26      H      -2.4568380000     1.9489060000    -1.9622460000
   27      H      -4.8499430000     0.7208440000     0.2915630000
   28      H      -4.2332520000    -0.7992860000     2.1361190000
   29      H      -0.8946170000    -1.9194090000     2.8807790000
   30      H      -2.5792800000    -1.8911350000     3.3681050000
 ----------------------------------------------------------------

   15    -950.2087840967      5.29e-09  Convergence criterion met
 Total energy in the final basis set =     -950.2441623240

                    Orbital Energies (a.u.)
 --------------------------------------------------------------

 Alpha MOs
 -- Occupied --
-19.1641 -19.1486 -19.1179 -19.1117 -14.3266 -14.3236 -10.2736 -10.2672
-10.2559 -10.2527 -10.2400 -10.2389 -10.2025 -10.1991 -10.1975 -10.1967
-10.1959 -10.1956 -10.1947 -10.1930  -1.0818  -1.0764  -1.0447  -1.0417
 -0.9380  -0.9328  -0.8699  -0.8539  -0.8081  -0.7716  -0.7537  -0.7409
 -0.6864  -0.6673  -0.6619  -0.6206  -0.6008  -0.5850  -0.5658  -0.5525
 -0.5386  -0.5253  -0.5211  -0.5018  -0.4816  -0.4760  -0.4725  -0.4605
 -0.4593  -0.4470  -0.4360  -0.4300  -0.4253  -0.4191  -0.4176  -0.3983
 -0.3928  -0.3902  -0.3848  -0.3762  -0.3703  -0.3653  -0.3092  -0.3008
 -0.2822  -0.2752  -0.2743  -0.2638  -0.2190  -0.2002

          Ground-State Mulliken Net Atomic Charges

     Atom                 Charge (a.u.)
  ----------------------------------------
      1 N                    -0.304137
      2 C                    -0.166899
      3 C                     1.613526
      4 C                     1.273005
      5 C                    -0.118331
      6 O                    -0.228994
      7 C                     0.079230
      8 C                    -1.800475
      9 O                    -0.339900
     10 C                    -0.102424
     11 C                    -0.925367
     12 O                    -0.388129
     13 C                     0.187465
     14 C                     1.263622
     15 C                    -0.380198
     16 N                    -0.261637
     17 C                    -0.741387
     18 C                    -1.363230
     19 O                    -0.321876
     20 C                    -0.335909
     21 H                     0.403939
     22 H                     0.289907
     23 H                     0.340776
     24 H                     0.342188
     25 H                     0.339600
     26 H                     0.320610
     27 H                     0.246657
     28 H                     0.363842
     29 H                     0.306593
     30 H                     0.407931
  ----------------------------------------
  Sum of atomic charges =     0.000000

                    Cartesian Multipole Moments
 -----------------------------------------------------------------
    Charge (ESU x 10^10)
                 0.0000
    Dipole Moment (Debye)
         X       4.9041      Y      -2.8642      Z       2.3483
       Tot       6.1457
    Quadrupole Moments (Debye-Ang)
        XX     -82.5431     XY       7.1641     YY    -118.6489
        XZ     -23.3670     YZ      -4.2165     ZZ    -106.8583

 Total job time:  787.46s(wall), 6160.66s(cpu)
        *  Thank you very much for using Q-Chem.  Have a nice day.  *
