 Gaussian 16, Revision A.03,
 Gaussian 16:  ES64L-G16RevA.03 25-Dec-2016

 --------------------------------------
 #P UB3LYP/6-311++G(d,p) nosym opt freq
 --------------------------------------

 --------
 Oxidized
 --------
 Symbolic Z-matrix:
 Charge =  0 Multiplicity = 1

 SCF Done:  E(UB3LYP) =  -950.212592313     A.U. after   16 cycles
 Optimization completed.
    -- Stationary point found.
 Normal termination of Gaussian 16 at Sun Jan  7 05:05:26 2024.

 ----------------------------------------------------------------------
 #P Geom=AllCheck Guess=TCheck SCRF=Check GenChk UB3LYP/6-311++G(d,p) F
 req
 ----------------------------------------------------------------------

 Structure from the checkpoint file:  "198.chk"
 --------
 Oxidized
 --------
 Charge =  0 Multiplicity = 1

                          Input orientation:
 ---------------------------------------------------------------------
 Center     Atomic      Atomic             Coordinates (Angstroms)
 Number     Number       Type             X           Y           Z
 ---------------------------------------------------------------------
      1          7           0        3.104046   -1.345667    1.224426
      2          6           0        2.648697   -0.587870    0.182573
      3          6           0        3.588540   -0.121365   -0.763319
      4          6           0        3.211996    0.675383   -1.814836
      5          6           0        1.875564    1.068582   -1.992470
      6          8           0        1.547791    1.865204   -3.044986
      7          6           0        0.903855    0.625765   -1.080071
      8          6           0       -0.510305    1.026338   -1.238791
      9          8           0       -0.862944    1.789584   -2.155280
     10          6           0       -1.507056    0.510576   -0.294850
     11          6           0       -2.849333    0.896452   -0.462649
     12          8           0       -3.269912    1.711453   -1.438941
     13          6           0       -3.821991    0.410793    0.436269
     14          6           0       -3.470644   -0.430061    1.457591
     15          6           0       -2.127756   -0.845820    1.661037
     16          7           0       -1.864687   -1.709212    2.684228
     17          6           0       -1.133812   -0.361723    0.773072
     18          6           0        0.269563   -0.728657    0.952088
     19          8           0        0.609342   -1.478588    1.898125
     20          6           0        1.285498   -0.217854    0.012607
     21          1           0        4.038187   -1.716079    1.181046
     22          1           0        2.410588   -1.769661    1.827432
     23          1           0        4.630632   -0.399947   -0.646020
     24          1           0        3.960653    1.015669   -2.525034
     25          1           0        2.347417    2.056783   -3.547568
     26          1           0       -2.456838    1.948906   -1.962246
     27          1           0       -4.849943    0.720844    0.291563
     28          1           0       -4.233252   -0.799286    2.136119
     29          1           0       -0.894617   -1.919409    2.880779
     30          1           0       -2.579280   -1.891135    3.368105
 ---------------------------------------------------------------------

 SCF Done:  E(UB3LYP) =  -950.212592313     A.U. after    1 cycles

 Alpha  occ. eigenvalues --  -19.16510 -19.13914 -19.11197 -19.11106 -14.32963
 Alpha  occ. eigenvalues --  -14.32872 -10.26799 -10.26636 -10.25623 -10.24702
 Alpha  occ. eigenvalues --  -10.24129 -10.23867 -10.20245 -10.20214 -10.20054
 Alpha  occ. eigenvalues --  -10.19943 -10.19490 -10.19312 -10.19206 -10.19054
 Alpha  occ. eigenvalues --   -1.08195  -1.06933  -1.04338  -1.03446  -0.94131
 Alpha  occ. eigenvalues --   -0.93652  -0.87012  -0.85361  -0.80782  -0.77156
 Alpha  occ. eigenvalues --   -0.75388  -0.74028  -0.68524  -0.66840  -0.66139
 Alpha  occ. eigenvalues --   -0.62030  -0.59953  -0.58652  -0.56814  -0.55367
 Alpha  occ. eigenvalues --   -0.53960  -0.52437  -0.52266  -0.50208  -0.48633
 Alpha  occ. eigenvalues --   -0.47703  -0.47271  -0.46024  -0.45553  -0.44373
 Alpha  occ. eigenvalues --   -0.43554  -0.42785  -0.42453  -0.41721  -0.41523
 Alpha  occ. eigenvalues --   -0.40217  -0.38975  -0.38759  -0.38336  -0.37718
 Alpha  occ. eigenvalues --   -0.36569  -0.36451  -0.30956  -0.29989  -0.28197
 Alpha  occ. eigenvalues --   -0.27261  -0.27219  -0.25885  -0.21825  -0.19995
 Alpha virt. eigenvalues --   -0.10472  -0.04736  -0.03565  -0.01934  -0.01058
 Alpha virt. eigenvalues --   -0.00720   0.00630   0.01019   0.01421   0.02354
 Alpha virt. eigenvalues --    0.03561   0.03608   0.03879   0.04502   0.05405

  Beta  occ. eigenvalues --  -19.16510 -19.13914 -19.11197 -19.11106 -14.32963
  Beta  occ. eigenvalues --  -14.32872 -10.26799 -10.26636 -10.25623 -10.24702
  Beta  occ. eigenvalues --  -10.24129 -10.23867 -10.20245 -10.20214 -10.20054
  Beta  occ. eigenvalues --  -10.19943 -10.19490 -10.19312 -10.19206 -10.19054
  Beta  occ. eigenvalues --   -1.08195  -1.06933  -1.04338  -1.03446  -0.94131
  Beta  occ. eigenvalues --   -0.93652  -0.87012  -0.85361  -0.80782  -0.77156
  Beta  occ. eigenvalues --   -0.75388  -0.74028  -0.68524  -0.66840  -0.66139
  Beta  occ. eigenvalues --   -0.62030  -0.59953  -0.58652  -0.56814  -0.55367
  Beta  occ. eigenvalues --   -0.53960  -0.52437  -0.52266  -0.50208  -0.48633
  Beta  occ. eigenvalues --   -0.47703  -0.47271  -0.46024  -0.45553  -0.44373
  Beta  occ. eigenvalues --   -0.43554  -0.42785  -0.42453  -0.41721  -0.41523
  Beta  occ. eigenvalues --   -0.40217  -0.38975  -0.38759  -0.38336  -0.37718
  Beta  occ. eigenvalues --   -0.36569  -0.36451  -0.30956  -0.29989  -0.28197
  Beta  occ. eigenvalues --   -0.27261  -0.27219  -0.25885  -0.21825  -0.19995
  Beta virt. eigenvalues --   -0.10472  -0.04736  -0.03565  -0.01934  -0.01058
  Beta virt. eigenvalues --   -0.00720   0.00630   0.01019   0.01421   0.02354
  Beta virt. eigenvalues --    0.03561   0.03608   0.03879   0.04502   0.05405

 Mulliken charges and spin densities:
               1          2
     1  N   -0.382027  -0.000000
     2  C    0.022485   0.000000
     3  C   -0.088151  -0.000000
     4  C   -0.313477   0.000000
     5  C   -0.137035   0.000000
     6  O   -0.184691   0.000000
     7  C    0.440100  -0.000000
     8  C   -0.575209   0.000000
     9  O   -0.281523  -0.000000
    10  C    0.588336  -0.000000
    11  C   -0.167639  -0.000000
    12  O   -0.327456   0.000000
    13  C   -0.230587   0.000000
    14  C   -0.135038   0.000000
    15  C    0.035282   0.000000
    16  N   -0.389996  -0.000000
    17  C    0.205843  -0.000000
    18  C   -0.494408   0.000000
    19  O   -0.341005  -0.000000
    20  C    0.337448  -0.000000
    21  H    0.249979   0.000000
    22  H    0.322881   0.000000
    23  H    0.154111  -0.000000
    24  H    0.131567  -0.000000
    25  H    0.264148  -0.000000
    26  H    0.367794  -0.000000
    27  H    0.194533  -0.000000
    28  H    0.153824  -0.000000
    29  H    0.325652  -0.000000
    30  H    0.254259  -0.000000
 Sum of Mulliken charges =  -0.00000  -0.00000

 Dipole moment (field-independent basis, Debye):
    X=              3.5678    Y=             -2.1934    Z=              1.8124  Tot=              4.5634
 Quadrupole moment (field-independent basis, Debye-Ang):
   XX=            -89.2514   YY=           -118.5970   ZZ=           -108.5744
   XY=              5.8988   XZ=            -19.7499   YZ=             -3.4829

  Exact polarizability: 333.031 -11.461 147.011 -45.142 -69.901 201.476
 Approx polarizability: 565.181 -26.931 258.851 -66.511-139.386 359.733

                      1                      2                      3
                      A                      A                      A
 Frequencies --     31.6747                49.8053               101.8757
 Red. masses --      6.7877                 7.2857                 9.4339
 Frc consts  --      0.0040                 0.0106                 0.0577
 IR Inten    --      5.9958                 1.1073                 0.5601

                      4                      5                      6
                      A                      A                      A
 Frequencies --    123.5865               143.6258               175.0405
 Red. masses --      7.0331                 6.7127                 5.2195
 Frc consts  --      0.0633                 0.0816                 0.0942
 IR Inten    --      2.9182                 1.7973                19.7495

                      7                      8                      9
                      A                      A                      A
 Frequencies --    205.1738               230.5676               268.6496
 Red. masses --      6.0443                 2.0915                 1.1986
 Frc consts  --      0.1499                 0.0655                 0.0510
 IR Inten    --      2.1507                21.9901               157.3088

                     10                     11                     12
                      A                      A                      A
 Frequencies --    278.4894               292.6804               303.8133
 Red. masses --      1.4719                 1.9325                 3.3512
 Frc consts  --      0.0673                 0.0975                 0.1822
 IR Inten    --     58.8602               182.5231                25.0128

                     13                     14                     15
                      A                      A                      A
 Frequencies --    316.2876               352.2519               356.5805
 Red. masses --      3.4874                 5.5432                 5.3845
 Frc consts  --      0.2055                 0.4052                 0.4034
 IR Inten    --     37.8368                 3.2477                 0.9854

                     16                     17                     18
                      A                      A                      A
 Frequencies --    385.5182               421.7026               429.0217
 Red. masses --      4.0466                 7.3238                 6.7597
 Frc consts  --      0.3543                 0.7674                 0.7330
 IR Inten    --      9.1968                 0.4481                 0.7645

                     19                     20                     21
                      A                      A                      A
 Frequencies --    433.1510               457.1342               468.9750
 Red. masses --      6.6422                 7.3822                 7.9628
 Frc consts  --      0.7342                 0.9089                 1.0318
 IR Inten    --      0.4241                 3.9547                26.9270

                     22                     23                     24
                      A                      A                      A
 Frequencies --    471.0538               485.7379               494.6614
 Red. masses --      6.0884                 6.5648                 5.8230
 Frc consts  --      0.7960                 0.9126                 0.8395
 IR Inten    --      1.4986                 8.9131                 1.3047

                     25                     26                     27
                      A                      A                      A
 Frequencies --    496.0662               543.8391               556.9679
 Red. masses --      4.6296                 6.5562                 3.4150
 Frc consts  --      0.6712                 1.1425                 0.6242
 IR Inten    --     14.9062                 1.1344                31.3257

                     28                     29                     30
                      A                      A                      A
 Frequencies --    588.9678               603.5382               646.6202
 Red. masses --      1.8380                 3.6921                 1.3228
 Frc consts  --      0.3757                 0.7924                 0.3259
 IR Inten    --      5.2110                 0.6560                25.4116

                     31                     32                     33
                      A                      A                      A
 Frequencies --    647.3559               675.9945               723.6619
 Red. masses --      1.2480                 5.1234                 6.3615
 Frc consts  --      0.3081                 1.3794                 1.9628
 IR Inten    --     35.1028                 5.1837                 1.8837

                     34                     35                     36
                      A                      A                      A
 Frequencies --    726.6451               756.1592               787.6179
 Red. masses --      7.3162                 7.0052                 4.3863
 Frc consts  --      2.2761                 2.3599                 1.6032
 IR Inten    --      0.0292                12.0112                 1.8168

                     37                     38                     39
                      A                      A                      A
 Frequencies --    793.1993               822.0046               832.5873
 Red. masses --      9.9285                 1.8011                 8.4863
 Frc consts  --      3.6804                 0.7170                 3.4660
 IR Inten    --      0.2408                21.6141                49.9052

                     40                     41                     42
                      A                      A                      A
 Frequencies --    839.7699               861.8243               866.5671
 Red. masses --      1.7394                 1.0970                 7.7748
 Frc consts  --      0.7227                 0.4800                 3.4399
 IR Inten    --     83.8335                50.5310                 4.3570

                     43                     44                     45
                      A                      A                      A
 Frequencies --    930.7197               961.3599               965.2995
 Red. masses --      1.3036                 5.2241                 1.3049
 Frc consts  --      0.6653                 2.8447                 0.7164
 IR Inten    --      0.0035                16.4213                 0.0988

                     46                     47                     48
                      A                      A                      A
 Frequencies --    981.7436               996.3246              1059.3740
 Red. masses --      4.4400                 5.0851                 1.7163
 Frc consts  --      2.5213                 2.9741                 1.1349
 IR Inten    --     29.5899                47.0840                69.7127

                     49                     50                     51
                      A                      A                      A
 Frequencies --   1104.4827              1167.4159              1183.5172
 Red. masses --      1.8056                 1.3002                 2.0202
 Frc consts  --      1.2977                 1.0440                 1.6672
 IR Inten    --      8.5480                43.0397                15.1275

                     52                     53                     54
                      A                      A                      A
 Frequencies --   1198.3452              1215.3235              1265.8347
 Red. masses --      1.2062                 1.9997                 3.2393
 Frc consts  --      1.0206                 1.7402                 3.0581
 IR Inten    --      0.8119               419.8000               887.6918

                     55                     56                     57
                      A                      A                      A
 Frequencies --   1279.0086              1299.8924              1308.0119
 Red. masses --      4.9447                 2.3050                 4.8366
 Frc consts  --      4.7658                 2.2948                 4.8754
 IR Inten    --     66.0551               102.0033                25.8847

                     58                     59                     60
                      A                      A                      A
 Frequencies --   1329.6895              1355.6139              1387.6149
 Red. masses --      2.6477                 2.5621                 5.7535
 Frc consts  --      2.7582                 2.7741                 6.5271
 IR Inten    --     88.0045               175.5393                32.5082

                     61                     62                     63
                      A                      A                      A
 Frequencies --   1399.8415              1425.5122              1454.7973
 Red. masses --      5.1936                 5.6088                 4.2167
 Frc consts  --      5.9962                 6.7152                 5.2580
 IR Inten    --     16.2074                56.2790                46.9947

                     64                     65                     66
                      A                      A                      A
 Frequencies --   1470.9309              1477.2050              1495.7355
 Red. masses --      3.3283                 2.9552                 2.3408
 Frc consts  --      4.2428                 3.7995                 3.0855
 IR Inten    --     21.4365                44.9976                69.6527

                     67                     68                     69
                      A                      A                      A
 Frequencies --   1558.0834              1582.5982              1593.1486
 Red. masses --      3.7077                 1.6089                 3.6727
 Frc consts  --      5.3032                 2.3742                 5.4923
 IR Inten    --    473.7082                24.9340               163.7313

                     70                     71                     72
                      A                      A                      A
 Frequencies --   1615.6734              1629.3396              1641.2431
 Red. masses --      2.8378                 1.8836                 5.5382
 Frc consts  --      4.3645                 2.9463                 8.7896
 IR Inten    --     74.4261               184.2935               307.8898

                     73                     74                     75
                      A                      A                      A
 Frequencies --   1650.4061              1687.6069              3145.1827
 Red. masses --      4.9790                 7.9250                 1.0878
 Frc consts  --      7.9905                13.2983                 6.3401
 IR Inten    --    263.2452                 1.4290                14.7900

                     76                     77                     78
                      A                      A                      A
 Frequencies --   3158.7939              3168.7991              3180.5538
 Red. masses --      1.0887                 1.0942                 1.0696
 Frc consts  --      6.4006                 6.4732                 6.3750
 IR Inten    --     23.7099                17.4589               141.9828

                     79                     80                     81
                      A                      A                      A
 Frequencies --   3194.8396              3511.2804              3520.1330
 Red. masses --      1.0935                 1.0519                 1.0516
 Frc consts  --      6.5762                 7.6410                 7.6774
 IR Inten    --     12.4444                25.1768                77.5737

                     82                     83                     84
                      A                      A                      A
 Frequencies --   3692.9912              3697.3015              3814.0356
 Red. masses --      1.0976                 1.0984                 1.0660
 Frc consts  --      8.8197                 8.8469                 9.1364
 IR Inten    --     90.2017                56.4760                88.0165

 - Thermochemistry -
 -------------------
 Temperature   298.150 Kelvin.  Pressure   1.00000 Atm.
 Atom     1 has atomic number  7 and mass  14.00307

 Molecular mass:   270.06406 amu.
 Principal axes and moments of inertia in atomic units:
                           1         2         3
     Eigenvalues --  3424.902345570.639998992.43718
           X            0.95064   0.27222   0.14895
           Y            0.04641  -0.59933   0.79915
           Z           -0.30682   0.75279   0.58238
 This molecule is an asymmetric top.
 Rotational symmetry number  1.
 Warning -- assumption of classical behavior for rotation
           may cause significant error
 Rotational temperatures (Kelvin)      0.02529     0.01555     0.00963
 Rotational constants (GHZ):           0.52695     0.32397     0.20070
 Zero-point vibrational energy     579004.8 (Joules/Mol)
                                  138.38548 (Kcal/Mol)
 Warning -- explicit consideration of  29 degrees of freedom as
           vibrations may cause significant error
 Vibrational temperatures:     45.57    71.66   146.58   177.81   206.65
          (Kelvin)            251.84   295.20   331.74   386.53   400.68
                              421.10   437.12   455.07   506.81   513.04
                              554.67   606.74   617.27   623.21   657.71
                              674.75   677.74   698.87   711.71   713.73
                              782.46   801.35   847.39   868.36   930.34
                              931.40   972.61  1041.19  1045.48  1087.94
                             1133.21  1141.24  1182.68  1197.91  1208.24
                             1239.97  1246.80  1339.10  1383.18  1388.85
                             1412.51  1433.49  1524.20  1589.10  1679.65
                             1702.82  1724.15  1748.58  1821.25  1840.21
                             1870.26  1881.94  1913.13  1950.43  1996.47
                             2014.06  2050.99  2093.13  2116.34  2125.37
                             2152.03  2241.73  2277.01  2292.19  2324.59
                             2344.26  2361.38  2374.57  2428.09  4525.22
                             4544.80  4559.20  4576.11  4596.66  5051.95
                             5064.69  5313.39  5319.59  5487.55

 Zero-point correction=                           0.220531 (Hartree/Particle)
 Thermal correction to Energy=                    0.236657
 Thermal correction to Enthalpy=                  0.237601
 Thermal correction to Gibbs Free Energy=         0.177654
 Sum of electronic and zero-point Energies=           -949.992061
 Sum of electronic and thermal Energies=              -949.975936
 Sum of electronic and thermal Enthalpies=            -949.974991
 Sum of electronic and thermal Free Energies=         -950.034938

                     E (Thermal)             CV                S
                      KCal/Mol        Cal/Mol-Kelvin    Cal/Mol-Kelvin
 Total                  148.504             65.342            126.168
 Electronic               0.000              0.000              0.000
 Translational            0.889              2.981             42.679
 Rotational               0.889              2.981             33.506
 Vibrational            146.727             59.381             49.983
 Vibration     1          0.594              1.983              5.722
 Vibration     2          0.595              1.978              4.825
 Vibration     3          0.604              1.948              3.418
 Vibration     4          0.610              1.929              3.044
 Vibration     5          0.616              1.910              2.755
 Vibration     6          0.627              1.873              2.381
 Vibration     7          0.640              1.833              2.086
 Vibration     8          0.652              1.794              1.875
 Vibration     9          0.673              1.731              1.605
 Vibration    10          0.679              1.713              1.543
 Vibration    11          0.688              1.687              1.458
 Vibration    12          0.695              1.666              1.396
 Vibration    13          0.703              1.643              1.329
 Vibration    14          0.729              1.571              1.156
 Vibration    15          0.732              1.562              1.137
 Vibration    16          0.754              1.501              1.017
 Vibration    17          0.784              1.423              0.886
 Vibration    18          0.790              1.407              0.862
 Vibration    19          0.794              1.398              0.848
 Vibration    20          0.815              1.345              0.774
 Vibration    21          0.826              1.319              0.740
 Vibration    22          0.828              1.314              0.735
 Vibration    23          0.842              1.282              0.695
 Vibration    24          0.850              1.262              0.672
 Vibration    25          0.852              1.259              0.668
 Vibration    26          0.899              1.153              0.557
 Vibration    27          0.912              1.124              0.530
 Vibration    28          0.946              1.055              0.469
 Vibration    29          0.962              1.024              0.444

                           ! Non-Optimized Parameters !
 Normal termination of Gaussian 16 at Sun Jan  7 06:36:08 2024.
