 Gaussian 16, Revision A.03,
 Gaussian 16:  ES64L-G16RevA.03 25-Dec-2016

 --------------------------------------
 #P UB3LYP/6-311++G(d,p) nosym opt freq
 --------------------------------------

 -------
 Radical
 -------
 Symbolic Z-matrix:
 Charge = -1 Multiplicity = 2

 SCF Done:  E(UB3LYP) =  -532.108099650     A.U. after   21 cycles
 SCF Done:  E(UB3LYP) =  -532.136078552     A.U. after   17 cycles
 SCF Done:  E(UB3LYP) =  -532.149749933     A.U. after   18 cycles
 SCF Done:  E(UB3LYP) =  -532.158428618     A.U. after   17 cycles
 SCF Done:  E(UB3LYP) =  -532.164096489     A.U. after   17 cycles
 SCF Done:  E(UB3LYP) =  -532.166041509     A.U. after   17 cycles
 SCF Done:  E(UB3LYP) =  -532.166355368     A.U. after   15 cycles
 SCF Done:  E(UB3LYP) =  -532.166481622     A.U. after   14 cycles
 SCF Done:  E(UB3LYP) =  -532.166514412     A.U. after   14 cycles
 SCF Done:  E(UB3LYP) =  -532.166519984     A.U. after   13 cycles
 SCF Done:  E(UB3LYP) =  -532.166521165     A.U. after   12 cycles
 SCF Done:  E(UB3LYP) =  -532.166521329     A.U. after   10 cycles
 Optimization completed.
    -- Stationary point found.
 Normal termination of Gaussian 16 at Wed Dec 20 01:46:16 2023.

 ----------------------------------------------------------------------
 #P Geom=AllCheck Guess=TCheck SCRF=Check GenChk UB3LYP/6-311++G(d,p) F
 req
 ----------------------------------------------------------------------

 Structure from the checkpoint file:  "111-rad.chk"
 -------
 Radical
 -------
 Charge = -1 Multiplicity = 2

                          Input orientation:
 ---------------------------------------------------------------------
 Center     Atomic      Atomic             Coordinates (Angstroms)
 Number     Number       Type             X           Y           Z
 ---------------------------------------------------------------------
      1          8           0       -2.702660   -0.185832    0.447360
      2          6           0       -1.366986   -0.028118    0.234265
      3          6           0       -0.743052    1.193407    0.274382
      4          6           0        0.663833    1.280726    0.040317
      5          8           0        1.360477    2.347955    0.048956
      6          6           0        1.367017    0.028046   -0.234301
      7          6           0        0.743128   -1.193444   -0.274302
      8          6           0       -0.663843   -1.280716   -0.040441
      9          8           0       -1.360387   -2.348055   -0.049349
     10          8           0        2.702677    0.185968   -0.447302
     11          1           0       -2.805879   -1.159337    0.347202
     12          1           0       -1.298963    2.101028    0.481467
     13          1           0        1.298910   -2.101126   -0.481442
     14          1           0        2.805728    1.159499   -0.346812
 ---------------------------------------------------------------------

 SCF Done:  E(UB3LYP) =  -532.166521329     A.U. after    1 cycles

 Alpha  occ. eigenvalues --  -19.01136 -19.01133 -18.94599 -18.94598 -10.09010
 Alpha  occ. eigenvalues --  -10.09008 -10.08697 -10.08696 -10.02272 -10.02271
 Alpha  occ. eigenvalues --   -0.93132  -0.92955  -0.85614  -0.85598  -0.68521
 Alpha  occ. eigenvalues --   -0.60298  -0.54347  -0.47107  -0.45857  -0.41334
 Alpha  occ. eigenvalues --   -0.36118  -0.34717  -0.31529  -0.30529  -0.30181
 Alpha  occ. eigenvalues --   -0.27371  -0.27081  -0.26045  -0.23922  -0.22488
 Alpha  occ. eigenvalues --   -0.21311  -0.21097  -0.13016  -0.12293  -0.11549
 Alpha  occ. eigenvalues --   -0.09013  -0.02103
 Alpha virt. eigenvalues --    0.11019   0.11681   0.12347   0.13094   0.13714
 Alpha virt. eigenvalues --    0.16932   0.17128   0.17699   0.18819   0.18855
 Alpha virt. eigenvalues --    0.19588   0.20426   0.21658   0.22959   0.23031

  Beta  occ. eigenvalues --  -19.01033 -19.01031 -18.93981 -18.93980 -10.08764
  Beta  occ. eigenvalues --  -10.08762 -10.08498 -10.08497 -10.02323 -10.02322
  Beta  occ. eigenvalues --   -0.92814  -0.92651  -0.84577  -0.84539  -0.67954
  Beta  occ. eigenvalues --   -0.60132  -0.53206  -0.46732  -0.45512  -0.41104
  Beta  occ. eigenvalues --   -0.35684  -0.34513  -0.31409  -0.30390  -0.28690
  Beta  occ. eigenvalues --   -0.26780  -0.25702  -0.25629  -0.23699  -0.20822
  Beta  occ. eigenvalues --   -0.20255  -0.19610  -0.11718  -0.10949  -0.10432
  Beta  occ. eigenvalues --   -0.08333
  Beta virt. eigenvalues --    0.05148   0.11042   0.11692   0.12375   0.13113
  Beta virt. eigenvalues --    0.14993   0.16976   0.17780   0.18887   0.18903
  Beta virt. eigenvalues --    0.19603   0.19900   0.20561   0.21795   0.22972

 Mulliken charges and spin densities:
               1          2
     1  O   -0.270901   0.031408
     2  C   -0.187521   0.190734
     3  C    0.340867  -0.066314
     4  C   -0.323982   0.127569
     5  O   -0.479338   0.221258
     6  C   -0.187569   0.190634
     7  C    0.340912  -0.066347
     8  C   -0.323913   0.127553
     9  O   -0.479354   0.221333
    10  O   -0.270929   0.031393
    11  H    0.257121  -0.003320
    12  H    0.163732  -0.001292
    13  H    0.163736  -0.001290
    14  H    0.257138  -0.003319
 Sum of Mulliken charges =  -1.00000   1.00000

 Dipole moment (field-independent basis, Debye):
    X=             -0.0006    Y=              0.0003    Z=              0.0012  Tot=              0.0014
 Quadrupole moment (field-independent basis, Debye-Ang):
   XX=            -77.2081   YY=            -83.7990   ZZ=            -61.7334
   XY=             -8.6732   XZ=              1.7111   YZ=             -1.2321

  Exact polarizability: 121.517  25.339 126.399  -8.911   4.581  54.640
 Approx polarizability: 192.622  59.158 214.769 -12.926   6.487  79.927

                      1                      2                      3
                      A                      A                      A
 Frequencies --    127.3850               183.5714               256.5104
 Red. masses --     14.2297                 7.8833                 6.9058
 Frc consts  --      0.1360                 0.1565                 0.2677
 IR Inten    --      2.9117                 0.9139                 0.0000

                      4                      5                      6
                      A                      A                      A
 Frequencies --    327.2507               333.6659               399.4673
 Red. masses --      6.1636                 5.3529                12.9779
 Frc consts  --      0.3889                 0.3511                 1.2202
 IR Inten    --      0.0044                37.5989                 9.5884

                      7                      8                      9
                      A                      A                      A
 Frequencies --    418.0474               424.2580               426.3998
 Red. masses --     10.2435                 2.8677                 9.4598
 Frc consts  --      1.0547                 0.3041                 1.0134
 IR Inten    --      0.0000                 2.2086                 0.0003

                     10                     11                     12
                      A                      A                      A
 Frequencies --    503.4109               678.8192               690.9838
 Red. masses --     11.0348                 4.1042                 5.6346
 Frc consts  --      1.6476                 1.1143                 1.5851
 IR Inten    --      0.0000                 0.0000                 0.0000

                     13                     14                     15
                      A                      A                      A
 Frequencies --    714.2234               728.5453               736.6496
 Red. masses --      6.0883                 7.9596                 8.9746
 Frc consts  --      1.8298                 2.4892                 2.8694
 IR Inten    --     19.0442                 0.0000                31.5884

                     16                     17                     18
                      A                      A                      A
 Frequencies --    739.3235               743.1638               792.4616
 Red. masses --      1.0870                 1.1547                 1.2902
 Frc consts  --      0.3501                 0.3757                 0.4774
 IR Inten    --      0.3270               146.6049                 0.0000

                     19                     20                     21
                      A                      A                      A
 Frequencies --    830.7495               859.7297              1184.5851
 Red. masses --      1.4630                 2.5498                 2.3399
 Frc consts  --      0.5949                 1.1104                 1.9346
 IR Inten    --     74.5876                53.4007                 0.0011

                     22                     23                     24
                      A                      A                      A
 Frequencies --   1188.7284              1199.7565              1216.4247
 Red. masses --      4.4210                 2.1873                 2.1799
 Frc consts  --      3.6807                 1.8550                 1.9005
 IR Inten    --    230.8922                 0.0022                96.7784

                     25                     26                     27
                      A                      A                      A
 Frequencies --   1228.6100              1318.0045              1440.5347
 Red. masses --      3.4568                 1.8437                 1.8258
 Frc consts  --      3.0743                 1.8871                 2.2323
 IR Inten    --    155.9154                 0.0001               583.1425

                     28                     29                     30
                      A                      A                      A
 Frequencies --   1463.8701              1521.0115              1562.8253
 Red. masses --      5.9746                 9.3915                 3.6826
 Frc consts  --      7.5433                12.8011                 5.2994
 IR Inten    --      0.0001               502.5955                 0.0002

                     31                     32                     33
                      A                      A                      A
 Frequencies --   1583.7722              1658.7703              3172.4954
 Red. masses --      3.7657                 6.1028                 1.0902
 Frc consts  --      5.5652                 9.8936                 6.4647
 IR Inten    --    281.6286                 0.0001                32.9534

                     34                     35                     36
                      A                      A                      A
 Frequencies --   3174.5676              3460.8978              3462.4989
 Red. masses --      1.0904                 1.0634                 1.0634
 Frc consts  --      6.4746                 7.5044                 7.5115
 IR Inten    --      0.0041                 9.9795               207.2145

 - Thermochemistry -
 -------------------
 Temperature   298.150 Kelvin.  Pressure   1.00000 Atm.
 Atom     1 has atomic number  8 and mass  15.99491

 Molecular mass:   140.01096 amu.
 Principal axes and moments of inertia in atomic units:
                           1         2         3
     Eigenvalues --   698.639861636.176692334.81654
           X            0.85259  -0.49413   0.17009
           Y            0.51554   0.84856  -0.11901
           Z           -0.08552   0.18916   0.97822
 This molecule is an asymmetric top.
 Rotational symmetry number  1.
 Warning -- assumption of classical behavior for rotation
           may cause significant error
 Rotational temperatures (Kelvin)      0.12398     0.05294     0.03710
 Rotational constants (GHZ):           2.58322     1.10302     0.77297
 Zero-point vibrational energy     243750.9 (Joules/Mol)
                                   58.25787 (Kcal/Mol)
 Warning -- explicit consideration of  10 degrees of freedom as
           vibrations may cause significant error
 Vibrational temperatures:    183.28   264.12   369.06   470.84   480.07
          (Kelvin)            574.74   601.48   610.41   613.49   724.30
                              976.67   994.17  1027.61  1048.21  1059.87
                             1063.72  1069.25  1140.18  1195.26  1236.96
                             1704.35  1710.32  1726.18  1750.16  1767.70
                             1896.31  2072.61  2106.18  2188.40  2248.56
                             2278.70  2386.60  4564.51  4567.49  4979.46
                             4981.76

 Zero-point correction=                           0.092840 (Hartree/Particle)
 Thermal correction to Energy=                    0.100654
 Thermal correction to Enthalpy=                  0.101599
 Thermal correction to Gibbs Free Energy=         0.059758
 Sum of electronic and zero-point Energies=           -532.073682
 Sum of electronic and thermal Energies=              -532.065867
 Sum of electronic and thermal Enthalpies=            -532.064923
 Sum of electronic and thermal Free Energies=         -532.106763

                     E (Thermal)             CV                S
                      KCal/Mol        Cal/Mol-Kelvin    Cal/Mol-Kelvin
 Total                   63.162             30.646             88.060
 Electronic               0.000              0.000              1.377
 Translational            0.889              2.981             40.721
 Rotational               0.889              2.981             29.369
 Vibrational             61.384             24.685             16.593
 Vibration     1          0.611              1.926              2.985
 Vibration     2          0.631              1.862              2.292
 Vibration     3          0.666              1.752              1.685
 Vibration     4          0.711              1.621              1.274
 Vibration     5          0.715              1.608              1.242
 Vibration     6          0.766              1.471              0.965
 Vibration     7          0.781              1.431              0.899
 Vibration     8          0.786              1.417              0.878
 Vibration     9          0.788              1.413              0.870
 Vibration    10          0.859              1.242              0.650

 Optimization completed.
    -- Stationary point found.
 Normal termination of Gaussian 16 at Wed Dec 20 01:55:11 2023.
