 Gaussian 16, Revision A.03,
 Gaussian 16:  ES64L-G16RevA.03 25-Dec-2016

 ----------------------------------------------------------------------
 #P UB3LYP/6-311++G(d,p) nosym opt freq SCRF=(PCM,Solvent=n,n-DiMethylF
 ormamide)
 ----------------------------------------------------------------------

 -------
 Reduced
 -------
 Symbolic Z-matrix:
 Charge = -2 Multiplicity = 1

 SCF Done:  E(UB3LYP) =  -918.272112667     A.U. after   17 cycles
 SCF Done:  E(UB3LYP) =  -918.274390984     A.U. after   14 cycles
 SCF Done:  E(UB3LYP) =  -918.274685130     A.U. after   14 cycles
 SCF Done:  E(UB3LYP) =  -918.274909990     A.U. after   14 cycles
 SCF Done:  E(UB3LYP) =  -918.274962612     A.U. after   13 cycles
 SCF Done:  E(UB3LYP) =  -918.274962803     A.U. after   12 cycles
 SCF Done:  E(UB3LYP) =  -918.274975540     A.U. after   11 cycles
 SCF Done:  E(UB3LYP) =  -918.274977266     A.U. after   11 cycles
 SCF Done:  E(UB3LYP) =  -918.274977694     A.U. after   10 cycles
 SCF Done:  E(UB3LYP) =  -918.274977881     A.U. after    9 cycles
 Optimization completed.
    -- Stationary point found.
 Normal termination of Gaussian 16 at Sat Feb 10 18:27:18 2024.

 ----------------------------------------------------------------------
 #P Geom=AllCheck Guess=TCheck SCRF=Check GenChk UB3LYP/6-311++G(d,p) F
 req
 ----------------------------------------------------------------------

 Structure from the checkpoint file:  "139-an.chk"
 -------
 Reduced
 -------
 Charge = -2 Multiplicity = 1

                          Input orientation:
 ---------------------------------------------------------------------
 Center     Atomic      Atomic             Coordinates (Angstroms)
 Number     Number       Type             X           Y           Z
 ---------------------------------------------------------------------
      1          6           0       -3.241570    2.993797    0.102693
      2          8           0       -1.911270    2.516869   -0.012771
      3          6           0       -1.707710    1.154404   -0.080745
      4          6           0       -2.766133    0.283018   -0.056301
      5          6           0       -2.546760   -1.123026   -0.076615
      6          6           0       -1.275117   -1.634329   -0.023462
      7          8           0       -1.060603   -2.995533   -0.071429
      8          6           0       -2.184768   -3.853528   -0.172428
      9          6           0       -0.107037   -0.770941    0.043205
     10          6           0        1.215240   -1.304005    0.258778
     11          8           0        1.487312   -2.545217    0.528522
     12          6           0        2.300903   -0.349228    0.171484
     13          6           0        3.637882   -0.795185    0.364591
     14          6           0        4.717799    0.056085    0.276596
     15          6           0        4.505145    1.429107   -0.014761
     16          6           0        3.221667    1.891265   -0.208021
     17          6           0        2.086365    1.038954   -0.119063
     18          6           0        0.764880    1.597602   -0.310354
     19          8           0        0.646730    2.849195   -0.634292
     20          6           0       -0.333471    0.683812   -0.122585
     21          1           0       -3.165103    4.079848    0.158183
     22          1           0       -3.733072    2.620391    1.009197
     23          1           0       -3.851404    2.722291   -0.767142
     24          1           0       -3.785582    0.639262   -0.017859
     25          1           0       -3.409207   -1.771944   -0.128518
     26          1           0       -2.851938   -3.757360    0.692394
     27          1           0       -1.783972   -4.866934   -0.202350
     28          1           0       -2.761815   -3.667958   -1.086356
     29          1           0        3.779796   -1.846866    0.583806
     30          1           0        5.725802   -0.318608    0.427861
     31          1           0        5.349466    2.108745   -0.082407
     32          1           0        3.037543    2.936012   -0.429852
 ---------------------------------------------------------------------

 SCF Done:  E(UB3LYP) =  -918.274977881     A.U. after    1 cycles

 Alpha  occ. eigenvalues --  -19.12750 -19.12749 -19.00920 -19.00866 -10.20572
 Alpha  occ. eigenvalues --  -10.20567 -10.20486 -10.20461 -10.17306 -10.17294
 Alpha  occ. eigenvalues --  -10.14852 -10.14807 -10.14417 -10.14407 -10.14252
 Alpha  occ. eigenvalues --  -10.14194 -10.13875 -10.13830 -10.13462 -10.13421
 Alpha  occ. eigenvalues --   -1.04168  -1.04096  -0.92608  -0.92197  -0.82405
 Alpha  occ. eigenvalues --   -0.81464  -0.75095  -0.73634  -0.71998  -0.71386
 Alpha  occ. eigenvalues --   -0.68895  -0.66135  -0.63708  -0.60121  -0.58920
 Alpha  occ. eigenvalues --   -0.55270  -0.53261  -0.51550  -0.50394  -0.48678
 Alpha  occ. eigenvalues --   -0.46946  -0.45262  -0.45001  -0.44803  -0.43416
 Alpha  occ. eigenvalues --   -0.42729  -0.41694  -0.39878  -0.39675  -0.38651
 Alpha  occ. eigenvalues --   -0.38123  -0.37161  -0.37010  -0.35140  -0.34889
 Alpha  occ. eigenvalues --   -0.34181  -0.33443  -0.32366  -0.31724  -0.30698
 Alpha  occ. eigenvalues --   -0.30565  -0.30486  -0.29877  -0.27069  -0.22625
 Alpha  occ. eigenvalues --   -0.21789  -0.21328  -0.18975  -0.18477  -0.18217
 Alpha  occ. eigenvalues --   -0.10247
 Alpha virt. eigenvalues --   -0.01782  -0.00173   0.00238   0.00549   0.00833
 Alpha virt. eigenvalues --    0.02121   0.02230   0.03059   0.03151   0.03612
 Alpha virt. eigenvalues --    0.03958   0.04337   0.04778   0.05334   0.05576

  Beta  occ. eigenvalues --  -19.12750 -19.12749 -19.00920 -19.00866 -10.20572
  Beta  occ. eigenvalues --  -10.20567 -10.20486 -10.20461 -10.17306 -10.17294
  Beta  occ. eigenvalues --  -10.14852 -10.14807 -10.14417 -10.14407 -10.14252
  Beta  occ. eigenvalues --  -10.14194 -10.13875 -10.13830 -10.13462 -10.13421
  Beta  occ. eigenvalues --   -1.04168  -1.04096  -0.92608  -0.92197  -0.82405
  Beta  occ. eigenvalues --   -0.81464  -0.75095  -0.73634  -0.71998  -0.71386
  Beta  occ. eigenvalues --   -0.68895  -0.66135  -0.63708  -0.60121  -0.58920
  Beta  occ. eigenvalues --   -0.55270  -0.53261  -0.51550  -0.50394  -0.48678
  Beta  occ. eigenvalues --   -0.46946  -0.45262  -0.45001  -0.44803  -0.43416
  Beta  occ. eigenvalues --   -0.42729  -0.41694  -0.39878  -0.39675  -0.38651
  Beta  occ. eigenvalues --   -0.38123  -0.37161  -0.37010  -0.35140  -0.34889
  Beta  occ. eigenvalues --   -0.34181  -0.33443  -0.32366  -0.31724  -0.30698
  Beta  occ. eigenvalues --   -0.30565  -0.30486  -0.29877  -0.27069  -0.22625
  Beta  occ. eigenvalues --   -0.21789  -0.21328  -0.18975  -0.18477  -0.18217
  Beta  occ. eigenvalues --   -0.10247
  Beta virt. eigenvalues --   -0.01782  -0.00173   0.00238   0.00549   0.00833
  Beta virt. eigenvalues --    0.02121   0.02230   0.03059   0.03151   0.03612
  Beta virt. eigenvalues --    0.03958   0.04337   0.04778   0.05334   0.05576

 Mulliken charges and spin densities:
               1          2
     1  C   -0.283349   0.000000
     2  O   -0.156797   0.000000
     3  C   -0.266832  -0.000000
     4  C   -0.464631  -0.000000
     5  C   -0.353725   0.000000
     6  C   -0.134889  -0.000000
     7  O   -0.157165   0.000000
     8  C   -0.277543   0.000000
     9  C    0.248245  -0.000000
    10  C   -0.127647   0.000000
    11  O   -0.674331  -0.000000
    12  C    0.201055   0.000000
    13  C    0.085750  -0.000000
    14  C   -0.574252  -0.000000
    15  C   -0.553959  -0.000000
    16  C    0.074152   0.000000
    17  C    0.186318   0.000000
    18  C   -0.180340   0.000000
    19  O   -0.673110  -0.000000
    20  C    0.182878  -0.000000
    21  H    0.189188   0.000000
    22  H    0.139880  -0.000000
    23  H    0.147509  -0.000000
    24  H    0.172154   0.000000
    25  H    0.173811   0.000000
    26  H    0.145726  -0.000000
    27  H    0.190438   0.000000
    28  H    0.138133   0.000000
    29  H    0.146371   0.000000
    30  H    0.155368  -0.000000
    31  H    0.153775  -0.000000
    32  H    0.147820   0.000000
 Sum of Mulliken charges =  -2.00000   0.00000

 Dipole moment (field-independent basis, Debye):
    X=            -11.9995    Y=             -1.7517    Z=              0.3736  Tot=             12.1324
 Quadrupole moment (field-independent basis, Debye-Ang):
   XX=           -141.5324   YY=           -174.4336   ZZ=           -131.8347
   XY=              5.3860   XZ=             -1.7097   YZ=             11.7946

  Exact polarizability: 591.555  28.289 425.306  15.398 -30.750 194.134
 Approx polarizability: 644.197  26.783 488.487  18.022 -40.949 215.245

                      1                      2                      3
                      A                      A                      A
 Frequencies --     57.6827                58.0365                71.8621
 Red. masses --      4.0948                 3.9363                 4.1793
 Frc consts  --      0.0080                 0.0078                 0.0127
 IR Inten    --      1.6463                28.9491                 3.5952

                      4                      5                      6
                      A                      A                      A
 Frequencies --    110.8089               116.4803               149.0316
 Red. masses --      4.2839                 4.7442                 4.9334
 Frc consts  --      0.0310                 0.0379                 0.0646
 IR Inten    --      0.4283                 3.6257                 0.3737

                      7                      8                      9
                      A                      A                      A
 Frequencies --    177.2676               179.2910               200.6200
 Red. masses --      6.5810                 5.5572                 3.5664
 Frc consts  --      0.1218                 0.1053                 0.0846
 IR Inten    --      8.9964                18.1456                 5.0959

                     10                     11                     12
                      A                      A                      A
 Frequencies --    257.7475               260.6174               285.8959
 Red. masses --      5.1419                 1.1258                 1.1310
 Frc consts  --      0.2013                 0.0451                 0.0545
 IR Inten    --      4.6663                 0.4434                 0.5885

                     13                     14                     15
                      A                      A                      A
 Frequencies --    306.3567               325.8486               341.7087
 Red. masses --      5.5218                 4.8254                 5.1148
 Frc consts  --      0.3053                 0.3019                 0.3519
 IR Inten    --      0.0648                 0.1958                11.4859

                     16                     17                     18
                      A                      A                      A
 Frequencies --    361.2399               370.2908               381.3981
 Red. masses --      5.6405                 8.7725                 7.1155
 Frc consts  --      0.4337                 0.7087                 0.6098
 IR Inten    --      0.7070                 0.6727                 0.5389

                     19                     20                     21
                      A                      A                      A
 Frequencies --    402.1666               406.6751               450.6341
 Red. masses --      8.7572                 5.3953                 3.3126
 Frc consts  --      0.8345                 0.5257                 0.3963
 IR Inten    --     15.4597                 0.4557                 4.2948

                     22                     23                     24
                      A                      A                      A
 Frequencies --    490.7793               499.0796               510.6327
 Red. masses --     11.1184                 4.1345                 6.5814
 Frc consts  --      1.5778                 0.6067                 1.0111
 IR Inten    --      0.9759                 6.3341                 5.3560

                     25                     26                     27
                      A                      A                      A
 Frequencies --    573.7379               611.5881               620.3793
 Red. masses --      5.4895                 3.4113                 4.4114
 Frc consts  --      1.0647                 0.7518                 1.0003
 IR Inten    --      0.4149                48.2446                64.8843

                     28                     29                     30
                      A                      A                      A
 Frequencies --    633.5633               661.9593               715.3931
 Red. masses --      4.1286                 6.1739                 2.0260
 Frc consts  --      0.9764                 1.5939                 0.6109
 IR Inten    --      0.7700                 2.6030                31.1382

                     31                     32                     33
                      A                      A                      A
 Frequencies --    719.0267               738.4557               739.7887
 Red. masses --      5.7483                 4.7541                 5.3740
 Frc consts  --      1.7510                 1.5274                 1.7328
 IR Inten    --     10.2354                31.0123                98.7274

                     34                     35                     36
                      A                      A                      A
 Frequencies --    762.0468               783.0216               803.2993
 Red. masses --      1.6654                 2.4693                 2.5518
 Frc consts  --      0.5698                 0.8920                 0.9702
 IR Inten    --    192.7542                 0.9933                 6.9694

                     37                     38                     39
                      A                      A                      A
 Frequencies --    820.9318               841.6072               860.7329
 Red. masses --      2.0792                 6.6531                 1.6541
 Frc consts  --      0.8256                 2.7765                 0.7220
 IR Inten    --     10.2246                21.6636                 0.5424

                     40                     41                     42
                      A                      A                      A
 Frequencies --    865.3572               934.0984               980.9079
 Red. masses --      8.2407                 6.0188                 1.3416
 Frc consts  --      3.6358                 3.0942                 0.7605
 IR Inten    --    167.9209                32.9515                 3.9493

                     43                     44                     45
                      A                      A                      A
 Frequencies --    987.2196               987.3116              1023.4247
 Red. masses --      2.8028                 1.6899                 2.0384
 Frc consts  --      1.6094                 0.9706                 1.2579
 IR Inten    --     97.2359                37.3410                77.3609

                     46                     47                     48
                      A                      A                      A
 Frequencies --   1067.2268              1098.5253              1101.0315
 Red. masses --      9.2173                 3.7455                 2.3600
 Frc consts  --      6.1854                 2.6631                 1.6856
 IR Inten    --    768.5529               989.2179                87.2965

                     49                     50                     51
                      A                      A                      A
 Frequencies --   1117.9657              1161.6237              1162.1961
 Red. masses --      2.0056                 1.2821                 1.2815
 Frc consts  --      1.4769                 1.0193                 1.0198
 IR Inten    --     81.4339                 1.1363                 2.7094

                     52                     53                     54
                      A                      A                      A
 Frequencies --   1163.7269              1179.9366              1194.0907
 Red. masses --      1.6360                 1.8468                 1.8179
 Frc consts  --      1.3054                 1.5149                 1.5272
 IR Inten    --      7.8211               125.5113               242.1033

                     55                     56                     57
                      A                      A                      A
 Frequencies --   1200.0693              1202.8506              1233.1238
 Red. masses --      1.4653                 2.4134                 3.2557
 Frc consts  --      1.2434                 2.0573                 2.9168
 IR Inten    --     31.0737                 0.5145               331.0948

                     58                     59                     60
                      A                      A                      A
 Frequencies --   1236.7682              1238.7833              1255.5790
 Red. masses --      2.6503                 2.7368                 6.9807
 Frc consts  --      2.3885                 2.4745                 6.4839
 IR Inten    --    204.1258               140.4866                50.9737

                     61                     62                     63
                      A                      A                      A
 Frequencies --   1335.0879              1351.2254              1365.8956
 Red. masses --      3.5525                 8.9587                 2.2737
 Frc consts  --      3.7308                 9.6372                 2.4993
 IR Inten    --   2326.4242               305.7279               628.9733

                     64                     65                     66
                      A                      A                      A
 Frequencies --   1397.5438              1437.8799              1442.0185
 Red. masses --      3.5435                 6.6095                 3.0577
 Frc consts  --      4.0777                 8.0513                 3.7462
 IR Inten    --     93.1679                 9.2778               622.8112

                     67                     68                     69
                      A                      A                      A
 Frequencies --   1466.6230              1473.3799              1476.6282
 Red. masses --      1.2567                 1.2676                 2.3754
 Frc consts  --      1.5926                 1.6212                 3.0517
 IR Inten    --     26.8097                61.9117                50.0024

                     70                     71                     72
                      A                      A                      A
 Frequencies --   1478.1594              1478.8299              1481.0170
 Red. masses --      1.0534                 1.0610                 4.0970
 Frc consts  --      1.3560                 1.3671                 5.2946
 IR Inten    --     10.6411                 9.9143                38.2619

                     73                     74                     75
                      A                      A                      A
 Frequencies --   1499.0394              1499.8520              1548.2063
 Red. masses --      1.0599                 1.0636                 5.6601
 Frc consts  --      1.4033                 1.4097                 7.9935
 IR Inten    --     44.7258                 4.1204               247.3113

                     76                     77                     78
                      A                      A                      A
 Frequencies --   1591.7973              1601.2592              1606.9152
 Red. masses --      7.5044                 4.6527                 5.2992
 Frc consts  --     11.2032                 7.0288                 8.0621
 IR Inten    --      0.7241               302.6552                10.1350

                     79                     80                     81
                      A                      A                      A
 Frequencies --   2987.0072              2988.2145              3038.5674
 Red. masses --      1.0345                 1.0347                 1.1050
 Frc consts  --      5.4381                 5.4436                 6.0109
 IR Inten    --     91.4264               185.3002                59.0123

                     82                     83                     84
                      A                      A                      A
 Frequencies --   3038.7118              3109.9548              3110.3050
 Red. masses --      1.1049                 1.0982                 1.0981
 Frc consts  --      6.0113                 6.2582                 6.2589
 IR Inten    --    113.1391                58.4039                34.2449

                     85                     86                     87
                      A                      A                      A
 Frequencies --   3137.7314              3154.5121              3181.7790
 Red. masses --      1.0850                 1.0909                 1.0900
 Frc consts  --      6.2941                 6.3960                 6.5016
 IR Inten    --     30.3475                54.8656                31.5954

                     88                     89                     90
                      A                      A                      A
 Frequencies --   3185.1719              3198.7713              3213.7790
 Red. masses --      1.0912                 1.0860                 1.0916
 Frc consts  --      6.5224                 6.5471                 6.6429
 IR Inten    --     70.3675                45.7211                15.1464

 - Thermochemistry -
 -------------------
 Temperature   298.150 Kelvin.  Pressure   1.00000 Atm.
 Atom     1 has atomic number  6 and mass  12.00000

 Molecular mass:   268.07356 amu.
 Principal axes and moments of inertia in atomic units:
                           1         2         3
     Eigenvalues --  3890.677885863.271949632.83759
           X            0.98633  -0.16181  -0.03102
           Y            0.16333   0.98502   0.05529
           Z            0.02161  -0.05960   0.99799
 This molecule is an asymmetric top.
 Rotational symmetry number  1.
 Warning -- assumption of classical behavior for rotation
           may cause significant error
 Rotational temperatures (Kelvin)      0.02226     0.01477     0.00899
 Rotational constants (GHZ):           0.46386     0.30780     0.18735
 Zero-point vibrational energy     627593.0 (Joules/Mol)
                                  149.99834 (Kcal/Mol)
 Warning -- explicit consideration of  27 degrees of freedom as
           vibrations may cause significant error
 Vibrational temperatures:     82.99    83.50   103.39   159.43   167.59
          (Kelvin)            214.42   255.05   257.96   288.65   370.84
                              374.97   411.34   440.78   468.82   491.64
                              519.74   532.77   548.75   578.63   585.11
                              648.36   706.12   718.06   734.69   825.48
                              879.94   892.59   911.56   952.41  1029.29
                             1034.52  1062.47  1064.39  1096.42  1126.59
                             1155.77  1181.14  1210.88  1238.40  1245.06
                             1343.96  1411.31  1420.39  1420.52  1472.48
                             1535.50  1580.53  1584.14  1608.50  1671.32
                             1672.14  1674.34  1697.67  1718.03  1726.63
                             1730.63  1774.19  1779.43  1782.33  1806.50
                             1920.89  1944.11  1965.22  2010.75  2068.79
                             2074.74  2110.14  2119.87  2124.54  2126.74
                             2127.71  2130.85  2156.78  2157.95  2227.52
                             2290.24  2303.85  2311.99  4297.64  4299.37
                             4371.82  4372.03  4474.53  4475.04  4514.50
                             4538.64  4577.87  4582.75  4602.32  4623.91

 Zero-point correction=                           0.239038 (Hartree/Particle)
 Thermal correction to Energy=                    0.255489
 Thermal correction to Enthalpy=                  0.256433
 Thermal correction to Gibbs Free Energy=         0.195575
 Sum of electronic and zero-point Energies=           -918.035940
 Sum of electronic and thermal Energies=              -918.019489
 Sum of electronic and thermal Enthalpies=            -918.018545
 Sum of electronic and thermal Free Energies=         -918.079403

                     E (Thermal)             CV                S
                      KCal/Mol        Cal/Mol-Kelvin    Cal/Mol-Kelvin
 Total                  160.321             65.230            128.086
 Electronic               0.000              0.000              0.000
 Translational            0.889              2.981             42.657
 Rotational               0.889              2.981             33.752
 Vibrational            158.544             59.268             51.677
 Vibration     1          0.596              1.974              4.535
 Vibration     2          0.596              1.974              4.523
 Vibration     3          0.598              1.967              4.102
 Vibration     4          0.607              1.941              3.255
 Vibration     5          0.608              1.936              3.158
 Vibration     6          0.618              1.904              2.685
 Vibration     7          0.628              1.870              2.357
 Vibration     8          0.629              1.868              2.336
 Vibration     9          0.638              1.839              2.127
 Vibration    10          0.667              1.750              1.677
 Vibration    11          0.669              1.745              1.658
 Vibration    12          0.684              1.700              1.498
 Vibration    13          0.697              1.662              1.382
 Vibration    14          0.710              1.624              1.281
 Vibration    15          0.721              1.592              1.204
 Vibration    16          0.735              1.552              1.117
 Vibration    17          0.742              1.533              1.079
 Vibration    18          0.751              1.510              1.034
 Vibration    19          0.768              1.465              0.955
 Vibration    20          0.771              1.456              0.938
 Vibration    21          0.809              1.359              0.794
 Vibration    22          0.847              1.270              0.682
 Vibration    23          0.855              1.252              0.660
 Vibration    24          0.866              1.226              0.632
 Vibration    25          0.930              1.088              0.497
 Vibration    26          0.971              1.007              0.430
 Vibration    27          0.980              0.989              0.416

                           ! Non-Optimized Parameters !
 Normal termination of Gaussian 16 at Sat Feb 10 19:23:31 2024.
