 Q-Chem 5.4, Q-Chem, Inc., Pleasanton, CA (2021)
 Q-Chem 5.4.0 for Intel X86 EM64T Linux

User input:
--------------------------------------------------------------
$molecule
0 1
C                 -0.9183340000      2.5712000000      0.1820710000
C                  0.4901600000      2.7985180000     -0.2734610000
C                  1.2020240000      1.7942110000     -0.8239560000
C                  0.5843490000      0.4434620000     -0.9926900000
C                 -0.8208240000      0.2064580000     -0.5006750000
C                 -1.5192500000      1.2201980000      0.0777050000
O                 -1.5781710000      3.5029670000      0.6248900000
O                  1.2018610000     -0.4688470000     -1.5069770000
O                 -2.8311390000      1.0710940000      0.4248080000
O                 -1.2045460000     -1.0501870000     -0.7407780000
C                 -3.1925520000      1.3225340000      1.7944570000
C                 -2.3987450000     -1.6195650000     -0.1846340000
C                  2.6187630000      1.9424560000     -1.3076790000
C                  1.0334390000      4.1964050000     -0.0695270000
C                  1.6907130000      4.3529080000      1.2840630000
C                  2.9076300000      4.8377990000      1.5628160000
C                  3.8965090000      5.3416490000      0.5421310000
C                  3.3840120000      4.9380180000      2.9919090000
H                 -3.0196110000      2.3640870000      2.0600610000
H                 -2.6298590000      0.6601370000      2.4619850000
H                 -4.2546390000      1.0909940000      1.8639600000
H                 -2.3635830000     -2.6670740000     -0.4794340000
H                 -3.2905870000     -1.1396970000     -0.5833780000
H                 -2.3929560000     -1.5434240000      0.9050260000
H                  3.2279440000      2.4752690000     -0.5754580000
H                  2.6527560000      2.5089000000     -2.2449580000
H                  3.0574940000      0.9645200000     -1.4985290000
H                  0.1915680000      4.8923680000     -0.1312000000
H                  1.7236910000      4.4410610000     -0.8765960000
H                  1.0668700000      4.0447940000      2.1202920000
H                  3.5550510000      5.2322660000     -0.4869460000
H                  4.8534750000      4.8161410000      0.6402760000
H                  4.1082180000      6.4040340000      0.7105680000
H                  2.6354670000      4.5707650000      3.6964440000
H                  3.6195820000      5.9761600000      3.2542340000
H                  4.3049390000      4.3613690000      3.1388380000
$end
$rem
MAX_SCF_CYCLES=200
BASIS  =  6-311++G(d,p)
GUI  =  2
JOB_TYPE  =  SP
METHOD  =  B3LYP
SOLVENT_METHOD = COSMO
$end
$solvent
dielectric 37.219
opticaldielectric 1.43
$end

--------------------------------------------------------------

             Standard Nuclear Orientation (Angstroms)
    I     Atom           X                Y                Z
 ----------------------------------------------------------------
    1      C       0.4989747332    -0.9542026134    -0.6888939175
    2      C      -0.5623017018     0.1025520741    -0.6891824251
    3      C      -0.2656103006     1.3706795661    -0.3395332779
    4      C       1.1328609813     1.7341487437     0.0434610564
    5      C       2.1921493764     0.6620231744     0.0783276007
    6      C       1.8746414245    -0.6190845328    -0.2502189451
    7      O       0.2351891335    -2.0891352951    -1.0657337256
    8      O       1.4252116055     2.8763270958     0.3402431725
    9      O       2.8331815312    -1.5867160541    -0.3432530604
   10      O       3.3744728697     1.1712437740     0.4344935983
   11      C       2.6709154389    -2.7674885487     0.4624924607
   12      C       4.5059700588     0.3537731297     0.7677421000
   13      C      -1.2728100455     2.4878808490    -0.3166448027
   14      C      -1.9477271604    -0.3520140527    -1.0951321115
   15      C      -2.7524439638    -0.8336259410     0.0919605738
   16      C      -3.9874644104    -0.4677211871     0.4587680292
   17      C      -4.8487234846     0.5335283472    -0.2687459194
   18      C      -4.6400556345    -1.0823047248     1.6735528785
   19      H       1.7805906860    -3.3216437119     0.1700533803
   20      H       2.6209375226    -2.4976432320     1.5234696242
   21      H       3.5609384374    -3.3690744610     0.2824266771
   22      H       5.2602642450     1.0600035169     1.1108126934
   23      H       4.8653422777    -0.1991341638    -0.0981663023
   24      H       4.2581110395    -0.3405482759     1.5737654075
   25      H      -2.1962919403     2.1715036530     0.1714386292
   26      H      -1.5255094126     2.8050073169    -1.3345249952
   27      H      -0.8667716110     3.3524670715     0.2057447899
   28      H      -1.8323245957    -1.1821028034    -1.7983744247
   29      H      -2.4580113208     0.4559052836    -1.6190988798
   30      H      -2.2495793553    -1.5866822307     0.6948093743
   31      H      -4.3540663201     0.9950287790    -1.1230815206
   32      H      -5.1691978026     1.3320101265     0.4104433649
   33      H      -5.7635463330     0.0527887394    -0.6345904184
   34      H      -3.9860002679    -1.8057153564     2.1639125267
   35      H      -5.5711606632    -1.5932543920     1.4014861478
   36      H      -4.9084175736    -0.3115377259     2.4057542460
 ----------------------------------------------------------------

    9    -845.3933197524      5.96e-06  Convergence criterion met
 Total energy in the final basis set =     -845.3933197524
    5    -845.4106233691      3.07e-06  Convergence criterion met
 Total energy in the final basis set =     -845.4106233691

                    Orbital Energies (a.u.)
 --------------------------------------------------------------

 Alpha MOs
 -- Occupied --
-19.1800 -19.1595 -19.1418 -19.1349 -10.2888 -10.2831 -10.2676 -10.2514
-10.2239 -10.2170 -10.2112 -10.2101 -10.1812 -10.1807 -10.1707 -10.1673
-10.1619 -10.1600  -1.1050  -1.0818  -1.0693  -1.0557  -0.8649  -0.8221
 -0.8036  -0.7573  -0.7444  -0.7193  -0.6928  -0.6881  -0.6670  -0.6464
 -0.5966  -0.5918  -0.5566  -0.5334  -0.5214  -0.5157  -0.4961  -0.4786
 -0.4707  -0.4657  -0.4632  -0.4552  -0.4460  -0.4434  -0.4369  -0.4334
 -0.4168  -0.4152  -0.4102  -0.4094  -0.3888  -0.3836  -0.3814  -0.3723
 -0.3718  -0.3622  -0.3586  -0.3563  -0.3385  -0.3177  -0.2895  -0.2874
 -0.2751  -0.2462  -0.2408

          Ground-State Mulliken Net Atomic Charges

     Atom                 Charge (a.u.)
  ----------------------------------------
      1 C                    -0.719744
      2 C                     1.189830
      3 C                     0.459278
      4 C                    -0.807106
      5 C                     0.070528
      6 C                    -0.222379
      7 O                    -0.304331
      8 O                    -0.299729
      9 O                    -0.228009
     10 O                    -0.211280
     11 C                    -0.320517
     12 C                    -0.308189
     13 C                    -0.648388
     14 C                     0.617645
     15 C                    -0.748164
     16 C                     0.485447
     17 C                    -0.677234
     18 C                    -0.632451
     19 H                     0.170206
     20 H                     0.157652
     21 H                     0.184001
     22 H                     0.207553
     23 H                     0.203981
     24 H                     0.192550
     25 H                     0.187116
     26 H                     0.225085
     27 H                     0.189528
     28 H                     0.232354
     29 H                     0.202979
     30 H                     0.217146
     31 H                     0.127916
     32 H                     0.164726
     33 H                     0.164326
     34 H                     0.160509
     35 H                     0.156069
     36 H                     0.161096
  ----------------------------------------
  Sum of atomic charges =     0.000000

                    Cartesian Multipole Moments
 -----------------------------------------------------------------
    Charge (ESU x 10^10)
                -0.0000
    Dipole Moment (Debye)
         X      -1.0297      Y      -1.6729      Z       1.8321
       Tot       2.6862
    Quadrupole Moments (Debye-Ang)
        XX     -86.7069     XY     -14.5203     YY    -121.2977
        XZ       5.7912     YZ     -10.4329     ZZ    -107.0836

 Total job time:  91.74s(wall), 534.15s(cpu)
        *  Thank you very much for using Q-Chem.  Have a nice day.  *
