 Q-Chem 5.4, Q-Chem, Inc., Pleasanton, CA (2021)
 Q-Chem 5.4.0 for Intel X86 EM64T Linux

User input:
--------------------------------------------------------------
$molecule
-1 2
C                 -1.4090370000      0.2450410000     -0.1991740000
C                 -0.9546180000     -1.0432780000     -0.3424880000
C                  0.4234470000     -1.3918150000     -0.0218640000
C                  1.3243140000     -0.3091630000      0.3517780000
C                  0.9122000000      1.0004070000      0.3061610000
C                 -0.4871750000      1.3382280000      0.0806760000
O                 -0.8885340000      2.5410660000      0.1261250000
O                  0.8245620000     -2.5947630000     -0.0664710000
C                  1.8787580000      2.1539730000      0.4654580000
C                  2.7140070000     -0.6997520000      0.8061610000
C                  3.6649480000      0.4665930000      0.9804000000
C                  3.2715690000      1.7463580000      0.9000450000
C                 -2.8773110000      0.5964420000     -0.3033800000
C                 -3.7564630000     -0.5335990000     -0.7983990000
C                 -3.3057860000     -1.7846770000     -0.9737270000
C                 -1.8421980000     -2.1570640000     -0.8543850000
H                  1.4617610000      2.8468940000      1.2097340000
C                  1.9644190000      2.9555190000     -0.8642290000
H                  3.1326350000     -1.3928050000      0.0629320000
C                  2.6267430000     -1.5005560000      2.1360920000
C                  5.0966590000      0.0817760000      1.3058100000
C                  4.2139580000      2.8997040000      1.1919170000
C                 -5.2078200000     -0.1583740000     -1.0356890000
C                 -4.2273180000     -2.9274600000     -1.3591030000
C                 -1.3200860000     -2.6542170000     -2.2320640000
H                  2.3835160000      2.3238480000     -1.6541680000
H                  2.6016170000      3.8398950000     -0.7585030000
H                  0.9667690000      3.2831820000     -1.1547580000
H                  2.2221910000     -0.8635010000      2.9292870000
H                  3.6118280000     -1.8587600000      2.4533180000
H                  1.9752630000     -2.3628270000      1.9977170000
H                  5.3356830000     -0.8936380000      0.8706660000
H                  5.2721700000     -0.0033540000      2.3860630000
H                  5.8179320000      0.8022520000      0.9136000000
H                  4.9497540000      2.6487010000      1.9591780000
H                  3.6512770000      3.7687710000      1.5469950000
H                  4.7666200000      3.2245850000      0.3008480000
H                 -5.2858380000      0.8965560000     -1.3167260000
H                 -5.8269000000     -0.2924080000     -0.1391630000
H                 -5.6612900000     -0.7463800000     -1.8367650000
H                 -5.2292870000     -2.8100650000     -0.9403110000
H                 -3.8266130000     -3.8779270000     -0.9930300000
H                 -4.3359350000     -3.0291410000     -2.4466900000
C                 -3.3981550000      1.0927650000      1.0750640000
H                 -2.9748920000      1.4501820000     -0.9886230000
H                 -1.7464370000     -3.0107790000     -0.1688370000
H                 -1.3948340000     -1.8501780000     -2.9713850000
H                 -1.9002570000     -3.5089930000     -2.5955450000
H                 -0.2790630000     -2.9609630000     -2.1358970000
H                 -3.3372080000      0.2836110000      1.8100680000
H                 -4.4406660000      1.4226980000      1.0143280000
H                 -2.7906520000      1.9325120000      1.4110200000
$end
$rem
MAX_SCF_CYCLES=200
BASIS  =  6-311++G(d,p)
GUI  =  2
JOB_TYPE  =  SP
METHOD  =  B3LYP
SOLVENT_METHOD = PCM
$end
$pcm
theory = CPCM
$end
$solvent
dielectric 37.219
opticaldielectric 1.43
$end

--------------------------------------------------------------

             Standard Nuclear Orientation (Angstroms)
    I     Atom           X                Y                Z
 ----------------------------------------------------------------
    1      C      -1.4090370000     0.2450410000    -0.1991740000
    2      C      -0.9546180000    -1.0432780000    -0.3424880000
    3      C       0.4234470000    -1.3918150000    -0.0218640000
    4      C       1.3243140000    -0.3091630000     0.3517780000
    5      C       0.9122000000     1.0004070000     0.3061610000
    6      C      -0.4871750000     1.3382280000     0.0806760000
    7      O      -0.8885340000     2.5410660000     0.1261250000
    8      O       0.8245620000    -2.5947630000    -0.0664710000
    9      C       1.8787580000     2.1539730000     0.4654580000
   10      C       2.7140070000    -0.6997520000     0.8061610000
   11      C       3.6649480000     0.4665930000     0.9804000000
   12      C       3.2715690000     1.7463580000     0.9000450000
   13      C      -2.8773110000     0.5964420000    -0.3033800000
   14      C      -3.7564630000    -0.5335990000    -0.7983990000
   15      C      -3.3057860000    -1.7846770000    -0.9737270000
   16      C      -1.8421980000    -2.1570640000    -0.8543850000
   17      H       1.4617610000     2.8468940000     1.2097340000
   18      C       1.9644190000     2.9555190000    -0.8642290000
   19      H       3.1326350000    -1.3928050000     0.0629320000
   20      C       2.6267430000    -1.5005560000     2.1360920000
   21      C       5.0966590000     0.0817760000     1.3058100000
   22      C       4.2139580000     2.8997040000     1.1919170000
   23      C      -5.2078200000    -0.1583740000    -1.0356890000
   24      C      -4.2273180000    -2.9274600000    -1.3591030000
   25      C      -1.3200860000    -2.6542170000    -2.2320640000
   26      H       2.3835160000     2.3238480000    -1.6541680000
   27      H       2.6016170000     3.8398950000    -0.7585030000
   28      H       0.9667690000     3.2831820000    -1.1547580000
   29      H       2.2221910000    -0.8635010000     2.9292870000
   30      H       3.6118280000    -1.8587600000     2.4533180000
   31      H       1.9752630000    -2.3628270000     1.9977170000
   32      H       5.3356830000    -0.8936380000     0.8706660000
   33      H       5.2721700000    -0.0033540000     2.3860630000
   34      H       5.8179320000     0.8022520000     0.9136000000
   35      H       4.9497540000     2.6487010000     1.9591780000
   36      H       3.6512770000     3.7687710000     1.5469950000
   37      H       4.7666200000     3.2245850000     0.3008480000
   38      H      -5.2858380000     0.8965560000    -1.3167260000
   39      H      -5.8269000000    -0.2924080000    -0.1391630000
   40      H      -5.6612900000    -0.7463800000    -1.8367650000
   41      H      -5.2292870000    -2.8100650000    -0.9403110000
   42      H      -3.8266130000    -3.8779270000    -0.9930300000
   43      H      -4.3359350000    -3.0291410000    -2.4466900000
   44      C      -3.3981550000     1.0927650000     1.0750640000
   45      H      -2.9748920000     1.4501820000    -0.9886230000
   46      H      -1.7464370000    -3.0107790000    -0.1688370000
   47      H      -1.3948340000    -1.8501780000    -2.9713850000
   48      H      -1.9002570000    -3.5089930000    -2.5955450000
   49      H      -0.2790630000    -2.9609630000    -2.1358970000
   50      H      -3.3372080000     0.2836110000     1.8100680000
   51      H      -4.4406660000     1.4226980000     1.0143280000
   52      H      -2.7906520000     1.9325120000     1.4110200000
 ----------------------------------------------------------------

    7   -1006.0438948106      8.88e-06  Convergence criterion met
 Total energy in the final basis set =    -1006.0438948106

                    Orbital Energies (a.u.)
 --------------------------------------------------------------

 Alpha MOs
 -- Occupied --
-19.0664 -19.0663 -10.2086 -10.2086 -10.1659 -10.1659 -10.1658 -10.1658
-10.1584 -10.1584 -10.1576 -10.1576 -10.1571 -10.1571 -10.1565 -10.1564
-10.1523 -10.1523 -10.1523 -10.1523 -10.1453 -10.1453 -10.1453 -10.1453
 -0.9908  -0.9880  -0.8473  -0.8394  -0.7946  -0.7772  -0.7756  -0.7615
 -0.7197  -0.7006  -0.6992  -0.6930  -0.6632  -0.6617  -0.6504  -0.6336
 -0.6040  -0.5924  -0.5710  -0.5612  -0.5353  -0.4953  -0.4877  -0.4730
 -0.4584  -0.4508  -0.4469  -0.4432  -0.4349  -0.4190  -0.4162  -0.4141
 -0.4033  -0.4017  -0.4005  -0.3999  -0.3964  -0.3928  -0.3918  -0.3859
 -0.3825  -0.3816  -0.3784  -0.3722  -0.3637  -0.3634  -0.3615  -0.3538
 -0.3512  -0.3419  -0.3417  -0.3403  -0.3362  -0.3318  -0.3179  -0.3117
 -0.3090  -0.2983  -0.2636  -0.2355  -0.2328  -0.2236  -0.2153  -0.2138
 -0.1499

 Beta MOs
 -- Occupied --
-19.0604 -19.0604 -10.2067 -10.2066 -10.1659 -10.1659 -10.1659 -10.1659
-10.1584 -10.1584 -10.1576 -10.1576 -10.1561 -10.1560 -10.1554 -10.1554
-10.1523 -10.1523 -10.1523 -10.1523 -10.1453 -10.1453 -10.1453 -10.1453
 -0.9801  -0.9770  -0.8448  -0.8389  -0.7912  -0.7768  -0.7746  -0.7604
 -0.7188  -0.6994  -0.6990  -0.6922  -0.6612  -0.6562  -0.6499  -0.6324
 -0.6013  -0.5915  -0.5708  -0.5591  -0.5317  -0.4940  -0.4865  -0.4717
 -0.4570  -0.4500  -0.4461  -0.4411  -0.4319  -0.4165  -0.4159  -0.4132
 -0.3999  -0.3996  -0.3980  -0.3961  -0.3937  -0.3927  -0.3898  -0.3816
 -0.3815  -0.3814  -0.3766  -0.3712  -0.3634  -0.3611  -0.3589  -0.3531
 -0.3443  -0.3412  -0.3396  -0.3389  -0.3276  -0.3260  -0.3124  -0.3106
 -0.3086  -0.2964  -0.2370  -0.2301  -0.2282  -0.2210  -0.2119  -0.2112

          Ground-State Mulliken Net Atomic Charges

     Atom                 Charge (a.u.)    Spin (a.u.)
  --------------------------------------------------------
      1 C                     0.319834       0.058840
      2 C                     0.310091       0.058840
      3 C                    -0.532128       0.121763
      4 C                     0.312901       0.058956
      5 C                     0.313203       0.059061
      6 C                    -0.532043       0.121717
      7 O                    -0.461269       0.233554
      8 O                    -0.461066       0.233441
      9 C                     0.058218      -0.005396
     10 C                     0.058515      -0.005426
     11 C                     0.160916       0.005389
     12 C                     0.165985       0.005148
     13 C                     0.055348      -0.005414
     14 C                     0.163135       0.005339
     15 C                     0.163679       0.005198
     16 C                     0.055532      -0.005387
     17 H                     0.206144       0.002618
     18 C                    -0.830156       0.011098
     19 H                     0.205558       0.002649
     20 C                    -0.827984       0.011027
     21 C                    -0.679494       0.000415
     22 C                    -0.680410       0.000506
     23 C                    -0.679972       0.000456
     24 C                    -0.679824       0.000408
     25 C                    -0.827218       0.011238
     26 H                     0.150346      -0.000488
     27 H                     0.153389       0.002058
     28 H                     0.185096      -0.002076
     29 H                     0.149935      -0.000457
     30 H                     0.153310       0.002020
     31 H                     0.185903      -0.002073
     32 H                     0.167303      -0.000247
     33 H                     0.195055       0.000159
     34 H                     0.164278      -0.000009
     35 H                     0.164304      -0.000008
     36 H                     0.167336      -0.000232
     37 H                     0.194586       0.000159
     38 H                     0.167312      -0.000254
     39 H                     0.194997       0.000159
     40 H                     0.164466      -0.000008
     41 H                     0.164175      -0.000014
     42 H                     0.167297      -0.000244
     43 H                     0.194726       0.000164
     44 C                    -0.827472       0.011080
     45 H                     0.204534       0.002697
     46 H                     0.205228       0.002610
     47 H                     0.149615      -0.000526
     48 H                     0.153482       0.002058
     49 H                     0.184930      -0.002072
     50 H                     0.149380      -0.000500
     51 H                     0.153140       0.002092
     52 H                     0.185844      -0.002084
  --------------------------------------------------------
  Sum of atomic charges =    -1.000009

                    Cartesian Multipole Moments
 -----------------------------------------------------------------
    Charge (ESU x 10^10)
                -4.8032
    Dipole Moment (Debye)
         X       0.1532      Y       0.1298      Z      -0.1487
       Tot       0.2499
    Quadrupole Moments (Debye-Ang)
        XX    -151.0142     XY      12.0220     YY    -183.2915
        XZ       2.2370     YZ      -0.4869     ZZ    -154.4608

 Total job time:  204.26s(wall), 1233.51s(cpu)
        *  Thank you very much for using Q-Chem.  Have a nice day.  *
