 Gaussian 16, Revision A.03,
 Gaussian 16:  ES64L-G16RevA.03 25-Dec-2016

 ----------------------------------------------------------------
 #P UB3LYP/6-311++G(d,p) SCRF=(PCM,Solvent=n,n-DiMethylFormamide)
 ----------------------------------------------------------------

 -------
 Reduced
 -------
 Symbolic Z-matrix:
 Charge = -2 Multiplicity = 1

                         Standard orientation:
 ---------------------------------------------------------------------
 Center     Atomic      Atomic             Coordinates (Angstroms)
 Number     Number       Type             X           Y           Z
 ---------------------------------------------------------------------
      1          6           0       -3.667421    0.437242   -0.000131
      2          6           0       -2.162722    0.374817    0.000019
      3          6           0       -1.393269    1.563025   -0.000039
      4          6           0       -0.010985    1.552233    0.000030
      5          8           0        0.698860    2.740746   -0.000126
      6          6           0        0.677408    0.302269    0.000091
      7          6           0        2.141889    0.270106    0.000093
      8          8           0        2.830948    1.380775    0.000220
      9          6           0        2.753691   -1.000861   -0.000164
     10          6           0        1.988643   -2.186927   -0.000154
     11          6           0        0.606385   -2.156837   -0.000050
     12          6           0       -0.083337   -0.914342    0.000041
     13          6           0       -1.552337   -0.908488    0.000090
     14          8           0       -2.241775   -2.000453    0.000169
     15          1           0       -4.021589    1.477217   -0.004223
     16          1           0       -4.096223   -0.073399    0.875996
     17          1           0       -4.095725   -0.080608   -0.872129
     18          1           0       -1.895691    2.531086   -0.000210
     19          1           0        1.662840    2.426591   -0.000076
     20          1           0        3.841623   -1.034578   -0.000114
     21          1           0        2.506372   -3.148329   -0.000291
     22          1           0        0.006461   -3.059954   -0.000025
 ---------------------------------------------------------------------

 SCF Done:  E(UB3LYP) =  -650.111952382     A.U. after   16 cycles

 The electronic state is 1-A.
 Alpha  occ. eigenvalues --  -19.09336 -19.04506 -19.01835 -10.19437 -10.18325
 Alpha  occ. eigenvalues --  -10.17182 -10.14460 -10.14129 -10.14010 -10.13727
 Alpha  occ. eigenvalues --  -10.13099 -10.12878 -10.12665 -10.12538  -1.00589
 Alpha  occ. eigenvalues --   -0.95126  -0.93306  -0.81289  -0.77636  -0.72334
 Alpha  occ. eigenvalues --   -0.69678  -0.67378  -0.63241  -0.58335  -0.55985
 Alpha  occ. eigenvalues --   -0.52728  -0.48673  -0.46499  -0.44924  -0.43658
 Alpha  occ. eigenvalues --   -0.41192  -0.39712  -0.39120  -0.38128  -0.37781
 Alpha  occ. eigenvalues --   -0.36711  -0.35747  -0.34893  -0.33751  -0.33712
 Alpha  occ. eigenvalues --   -0.32603  -0.31614  -0.30559  -0.27960  -0.24795
 Alpha  occ. eigenvalues --   -0.22092  -0.21172  -0.19361  -0.17859  -0.12475
 Alpha virt. eigenvalues --    0.00149   0.00978   0.01050   0.01673   0.01686
 Alpha virt. eigenvalues --    0.02940   0.03193   0.04191   0.05156   0.05484
 Alpha virt. eigenvalues --    0.06041   0.06047   0.06786   0.08127   0.08665

  Beta  occ. eigenvalues --  -19.09336 -19.04506 -19.01835 -10.19437 -10.18325
  Beta  occ. eigenvalues --  -10.17182 -10.14460 -10.14129 -10.14010 -10.13727
  Beta  occ. eigenvalues --  -10.13099 -10.12878 -10.12665 -10.12538  -1.00589
  Beta  occ. eigenvalues --   -0.95126  -0.93306  -0.81289  -0.77636  -0.72334
  Beta  occ. eigenvalues --   -0.69678  -0.67378  -0.63241  -0.58335  -0.55985
  Beta  occ. eigenvalues --   -0.52728  -0.48673  -0.46499  -0.44924  -0.43658
  Beta  occ. eigenvalues --   -0.41192  -0.39712  -0.39120  -0.38128  -0.37781
  Beta  occ. eigenvalues --   -0.36711  -0.35747  -0.34893  -0.33751  -0.33712
  Beta  occ. eigenvalues --   -0.32603  -0.31614  -0.30559  -0.27960  -0.24795
  Beta  occ. eigenvalues --   -0.22092  -0.21172  -0.19361  -0.17859  -0.12475
  Beta virt. eigenvalues --    0.00149   0.00978   0.01050   0.01673   0.01686
  Beta virt. eigenvalues --    0.02940   0.03193   0.04191   0.05156   0.05484
  Beta virt. eigenvalues --    0.06041   0.06047   0.06786   0.08127   0.08665

 Mulliken charges and spin densities:
               1          2
     1  C   -0.366562   0.000000
     2  C    0.669808   0.000000
     3  C   -0.626498  -0.000000
     4  C   -0.377339   0.000000
     5  O   -0.497641   0.000000
     6  C    0.497978   0.000000
     7  C   -0.383654   0.000000
     8  O   -0.655589   0.000000
     9  C   -0.256719  -0.000000
    10  C   -0.408080   0.000000
    11  C   -0.210711   0.000000
    12  C    0.447360  -0.000000
    13  C   -0.484797  -0.000000
    14  O   -0.672157  -0.000000
    15  H    0.134235  -0.000000
    16  H    0.141712   0.000000
    17  H    0.141763   0.000000
    18  H    0.125229   0.000000
    19  H    0.358947  -0.000000
    20  H    0.138275  -0.000000
    21  H    0.152324   0.000000
    22  H    0.132116  -0.000000
 Sum of Mulliken charges =  -2.00000  -0.00000

 Dipole moment (field-independent basis, Debye):
    X=             -1.0442    Y=              0.8953    Z=             -0.0011  Tot=              1.3755
 Quadrupole moment (field-independent basis, Debye-Ang):
   XX=           -136.6648   YY=           -125.8850   ZZ=            -92.8924
   XY=            -24.7946   XZ=              0.0010   YZ=              0.0007

 Normal termination of Gaussian 16 at Thu Jan 25 05:45:56 2024.
