 Gaussian 16, Revision A.03,
 Gaussian 16:  ES64L-G16RevA.03 25-Dec-2016

 ----------------------------------------------------------------------
 #P UB3LYP/6-311++G(d,p) nosym opt freq SCRF=(PCM,Solvent=n,n-DiMethylF
 ormamide)
 ----------------------------------------------------------------------

 -------
 Radical
 -------
 Symbolic Z-matrix:
 Charge = -1 Multiplicity = 2

 SCF Done:  E(UB3LYP) =  -799.857047224     A.U. after   18 cycles
 SCF Done:  E(UB3LYP) =  -799.857266615     A.U. after   15 cycles
 SCF Done:  E(UB3LYP) =  -799.857461539     A.U. after   14 cycles
 SCF Done:  E(UB3LYP) =  -799.857482862     A.U. after   13 cycles
 SCF Done:  E(UB3LYP) =  -799.857517379     A.U. after   11 cycles
 SCF Done:  E(UB3LYP) =  -799.857527632     A.U. after   12 cycles
 SCF Done:  E(UB3LYP) =  -799.857531770     A.U. after   11 cycles
 SCF Done:  E(UB3LYP) =  -799.857533140     A.U. after   10 cycles
 SCF Done:  E(UB3LYP) =  -799.857533471     A.U. after   10 cycles
 SCF Done:  E(UB3LYP) =  -799.857533521     A.U. after    8 cycles
 SCF Done:  E(UB3LYP) =  -799.857533542     A.U. after    8 cycles
 Optimization completed.
    -- Stationary point found.
 Normal termination of Gaussian 16 at Sat Feb 10 17:23:38 2024.

 ----------------------------------------------------------------------
 #P Geom=AllCheck Guess=TCheck SCRF=Check GenChk UB3LYP/6-311++G(d,p) F
 req
 ----------------------------------------------------------------------

 Structure from the checkpoint file:  "167-rad.chk"
 -------
 Radical
 -------
 Charge = -1 Multiplicity = 2

                          Input orientation:
 ---------------------------------------------------------------------
 Center     Atomic      Atomic             Coordinates (Angstroms)
 Number     Number       Type             X           Y           Z
 ---------------------------------------------------------------------
      1          7           0        3.585320   -1.266671    0.122235
      2          6           0        2.887190   -0.096833   -0.091136
      3          6           0        3.586532    1.093276   -0.321175
      4          6           0        2.909136    2.307113   -0.475640
      5          6           0        1.528583    2.357933   -0.401073
      6          6           0        0.781436    1.182113   -0.182419
      7          6           0       -0.676730    1.295899   -0.119651
      8          8           0       -1.225777    2.437665   -0.270373
      9          6           0       -1.444214    0.084483    0.105387
     10          6           0       -2.880967    0.110845    0.202054
     11          7           0       -3.567173    1.306683    0.193764
     12          6           0       -3.585068   -1.089327    0.350924
     13          6           0       -2.911972   -2.312778    0.429980
     14          6           0       -1.530874   -2.362675    0.364971
     15          6           0       -0.780337   -1.179923    0.202551
     16          6           0        0.677451   -1.294661    0.132403
     17          8           0        1.222481   -2.445581    0.210612
     18          6           0        1.448210   -0.075862   -0.034691
     19          1           0        3.019401   -2.110408    0.077922
     20          1           0        4.535992   -1.304740   -0.212612
     21          1           0        4.670620    1.062609   -0.367993
     22          1           0        3.478503    3.214369   -0.650403
     23          1           0        0.995423    3.292604   -0.510757
     24          1           0       -4.549439    1.274454   -0.032934
     25          1           0       -3.020665    2.105540   -0.118191
     26          1           0       -4.668170   -1.056215    0.415545
     27          1           0       -3.484593   -3.227097    0.548146
     28          1           0       -1.000303   -3.302813    0.432553
 ---------------------------------------------------------------------

 SCF Done:  E(UB3LYP) =  -799.857533542     A.U. after    1 cycles

 Alpha  occ. eigenvalues --  -19.07285 -19.07285 -14.30498 -14.30497 -10.22312
 Alpha  occ. eigenvalues --  -10.22310 -10.21554 -10.21553 -10.17015 -10.17012
 Alpha  occ. eigenvalues --  -10.16940 -10.16940 -10.16843 -10.16843 -10.15993
 Alpha  occ. eigenvalues --  -10.15991 -10.15478 -10.15477  -0.99830  -0.99550
 Alpha  occ. eigenvalues --   -0.91314  -0.91220  -0.84426  -0.82832  -0.77953
 Alpha  occ. eigenvalues --   -0.73636  -0.73121  -0.72205  -0.66176  -0.63357
 Alpha  occ. eigenvalues --   -0.62296  -0.58109  -0.55644  -0.55348  -0.52331
 Alpha  occ. eigenvalues --   -0.50601  -0.49608  -0.47891  -0.46775  -0.45521
 Alpha  occ. eigenvalues --   -0.44804  -0.43222  -0.43203  -0.42248  -0.41081
 Alpha  occ. eigenvalues --   -0.39983  -0.39071  -0.38735  -0.37244  -0.36826
 Alpha  occ. eigenvalues --   -0.35697  -0.35469  -0.34685  -0.33838  -0.31075
 Alpha  occ. eigenvalues --   -0.30379  -0.26477  -0.24598  -0.24459  -0.23541
 Alpha  occ. eigenvalues --   -0.21342  -0.20539  -0.13493
 Alpha virt. eigenvalues --   -0.03921  -0.01858  -0.00255   0.00383   0.00942
 Alpha virt. eigenvalues --    0.01287   0.01919   0.02065   0.03979   0.04006
 Alpha virt. eigenvalues --    0.04280   0.04518   0.05196   0.06132   0.06498

  Beta  occ. eigenvalues --  -19.06797 -19.06797 -14.30475 -14.30473 -10.22115
  Beta  occ. eigenvalues --  -10.22114 -10.21552 -10.21551 -10.17008 -10.17005
  Beta  occ. eigenvalues --  -10.16854 -10.16853 -10.16799 -10.16799 -10.15895
  Beta  occ. eigenvalues --  -10.15894 -10.15441 -10.15440  -0.98988  -0.98683
  Beta  occ. eigenvalues --   -0.91233  -0.91120  -0.84162  -0.82690  -0.77583
  Beta  occ. eigenvalues --   -0.73455  -0.72806  -0.72040  -0.65502  -0.63158
  Beta  occ. eigenvalues --   -0.62081  -0.58025  -0.55440  -0.55161  -0.52190
  Beta  occ. eigenvalues --   -0.50528  -0.49519  -0.47669  -0.46521  -0.45436
  Beta  occ. eigenvalues --   -0.44714  -0.43109  -0.43091  -0.41241  -0.40792
  Beta  occ. eigenvalues --   -0.39668  -0.38865  -0.38223  -0.36709  -0.35657
  Beta  occ. eigenvalues --   -0.35427  -0.34846  -0.34242  -0.33588  -0.30410
  Beta  occ. eigenvalues --   -0.29720  -0.24627  -0.24115  -0.24019  -0.23108
  Beta  occ. eigenvalues --   -0.20335  -0.19995
  Beta virt. eigenvalues --   -0.08071  -0.02770  -0.00861  -0.00238   0.00387
  Beta virt. eigenvalues --    0.00951   0.01558   0.01920   0.02084   0.04010
  Beta virt. eigenvalues --    0.04011   0.04292   0.04580   0.05656   0.06254

 Mulliken charges and spin densities:
               1          2
     1  N   -0.409542   0.010415
     2  C    0.092641   0.019534
     3  C   -0.210927   0.083583
     4  C   -0.431847   0.036802
     5  C   -0.215805   0.059025
     6  C    0.530317   0.048537
     7  C   -0.719676   0.091716
     8  O   -0.476398   0.179446
     9  C    0.266644  -0.014172
    10  C    0.093442   0.019457
    11  N   -0.409734   0.010431
    12  C   -0.210698   0.083724
    13  C   -0.431618   0.036732
    14  C   -0.215469   0.059141
    15  C    0.529988   0.048494
    16  C   -0.719840   0.091793
    17  O   -0.476485   0.179509
    18  C    0.267522  -0.014114
    19  H    0.310853  -0.002464
    20  H    0.266114  -0.000654
    21  H    0.156769  -0.006048
    22  H    0.180640  -0.002936
    23  H    0.159345  -0.002915
    24  H    0.266172  -0.000654
    25  H    0.310962  -0.002466
    26  H    0.156662  -0.006059
    27  H    0.180640  -0.002931
    28  H    0.159329  -0.002926
 Sum of Mulliken charges =  -1.00000   1.00000

 Dipole moment (field-independent basis, Debye):
    X=             -0.0872    Y=             -0.1833    Z=             -1.5039  Tot=              1.5175
 Quadrupole moment (field-independent basis, Debye-Ang):
   XX=            -97.5371   YY=           -131.9700   ZZ=           -115.2651
   XY=              6.0306   XZ=             -1.7578   YZ=              1.8067

  Exact polarizability: 500.262  29.325 400.705 -23.369 -33.911 150.772
 Approx polarizability: 511.250   9.082 472.616 -20.311 -39.374 170.954

                      1                      2                      3
                      A                      A                      A
 Frequencies --     44.9018                67.3829               102.8081
 Red. masses --      7.0889                 4.9460                 7.9242
 Frc consts  --      0.0084                 0.0132                 0.0493
 IR Inten    --     14.0564                 1.1477                 1.3275

                      4                      5                      6
                      A                      A                      A
 Frequencies --    165.4118               197.3412               219.2490
 Red. masses --      6.6763                 4.2985                 4.8801
 Frc consts  --      0.1076                 0.0986                 0.1382
 IR Inten    --      0.0251                 0.9306                16.6678

                      7                      8                      9
                      A                      A                      A
 Frequencies --    229.6713               276.3325               309.9497
 Red. masses --      3.9192                 3.5696                 4.6999
 Frc consts  --      0.1218                 0.1606                 0.2660
 IR Inten    --     14.9925                29.9383                16.2525

                     10                     11                     12
                      A                      A                      A
 Frequencies --    360.0633               382.2382               389.6858
 Red. masses --      4.3822                 1.5183                 3.4229
 Frc consts  --      0.3347                 0.1307                 0.3062
 IR Inten    --     46.4950               398.9008                65.4837

                     13                     14                     15
                      A                      A                      A
 Frequencies --    395.8103               411.4051               422.6936
 Red. masses --      1.8274                 4.1615                 5.9497
 Frc consts  --      0.1687                 0.4150                 0.6263
 IR Inten    --    204.3885                46.2081                 0.5132

                     16                     17                     18
                      A                      A                      A
 Frequencies --    447.6357               451.1642               494.7741
 Red. masses --      4.2323                 4.2709                 4.0790
 Frc consts  --      0.4997                 0.5122                 0.5883
 IR Inten    --    197.2437                 1.6611                10.4424

                     19                     20                     21
                      A                      A                      A
 Frequencies --    497.3234               534.9585               545.5237
 Red. masses --      6.2247                 5.0496                 4.9129
 Frc consts  --      0.9071                 0.8514                 0.8614
 IR Inten    --      1.0577                 3.1361                 3.4668

                     22                     23                     24
                      A                      A                      A
 Frequencies --    576.0766               593.6792               602.9285
 Red. masses --      3.6983                 5.9420                 4.6859
 Frc consts  --      0.7231                 1.2339                 1.0036
 IR Inten    --     11.8888                 1.5759                63.9428

                     25                     26                     27
                      A                      A                      A
 Frequencies --    644.0936               647.6084               673.4348
 Red. masses --      1.1633                 1.3816                 3.3162
 Frc consts  --      0.2843                 0.3414                 0.8861
 IR Inten    --    214.9106                58.0053                32.5645

                     28                     29                     30
                      A                      A                      A
 Frequencies --    705.2492               713.6100               759.3788
 Red. masses --      6.5670                 2.3110                 1.4590
 Frc consts  --      1.9244                 0.6934                 0.4957
 IR Inten    --      0.0444                70.3796                 1.3516

                     31                     32                     33
                      A                      A                      A
 Frequencies --    764.8481               783.3205               795.2023
 Red. masses --      5.8284                 6.1704                 1.9501
 Frc consts  --      2.0089                 2.2307                 0.7265
 IR Inten    --     15.6045                30.7090               118.1097

                     34                     35                     36
                      A                      A                      A
 Frequencies --    817.1256               855.5684               872.6364
 Red. masses --      4.8144                 7.0221                 1.4509
 Frc consts  --      1.8940                 3.0285                 0.6510
 IR Inten    --      0.0483               103.1533                 0.9544

                     37                     38                     39
                      A                      A                      A
 Frequencies --    875.6710               911.3946               973.9686
 Red. masses --      1.4929                 6.0592                 1.2918
 Frc consts  --      0.6745                 2.9654                 0.7220
 IR Inten    --      0.0825                 2.0498                 0.4504

                     40                     41                     42
                      A                      A                      A
 Frequencies --    974.3753               976.6573              1047.6236
 Red. masses --      1.3074                 4.0378                 2.7399
 Frc consts  --      0.7313                 2.2692                 1.7717
 IR Inten    --      1.2884                 0.2229                66.8212

                     43                     44                     45
                      A                      A                      A
 Frequencies --   1069.3588              1073.2633              1141.2411
 Red. masses --      2.2961                 2.1200                 1.4892
 Frc consts  --      1.5470                 1.4388                 1.1428
 IR Inten    --    166.7265                 0.3173               204.8606

                     46                     47                     48
                      A                      A                      A
 Frequencies --   1141.7083              1162.2982              1178.7877
 Red. masses --      1.4992                 1.4632                 1.1408
 Frc consts  --      1.1514                 1.1647                 0.9340
 IR Inten    --     60.9498               124.2595                 0.0122

                     49                     50                     51
                      A                      A                      A
 Frequencies --   1188.7371              1231.1953              1243.5840
 Red. masses --      2.4416                 3.0932                 3.4708
 Frc consts  --      2.0328                 2.7625                 3.1625
 IR Inten    --      0.0032               275.5261                38.6838

                     52                     53                     54
                      A                      A                      A
 Frequencies --   1304.6693              1318.1626              1351.4329
 Red. masses --      3.4464                 2.4976                 7.1354
 Frc consts  --      3.4563                 2.5569                 7.6781
 IR Inten    --      2.7329                 0.4009               121.1565

                     55                     56                     57
                      A                      A                      A
 Frequencies --   1361.5230              1384.0108              1405.9809
 Red. masses --      6.3421                 4.0748                 2.7731
 Frc consts  --      6.9268                 4.5987                 3.2298
 IR Inten    --      0.5157                 0.7055              1234.9974

                     58                     59                     60
                      A                      A                      A
 Frequencies --   1433.7661              1441.2221              1476.9735
 Red. masses --      5.2952                 2.7428                 3.1755
 Frc consts  --      6.4135                 3.3567                 4.0813
 IR Inten    --      0.6082               158.5621                 1.2582

                     61                     62                     63
                      A                      A                      A
 Frequencies --   1504.4606              1505.3268              1561.2930
 Red. masses --      4.0709                 3.2741                 2.9327
 Frc consts  --      5.4288                 4.3713                 4.2120
 IR Inten    --   1740.2234                 5.8370               391.5500

                     64                     65                     66
                      A                      A                      A
 Frequencies --   1587.1215              1589.6061              1599.6385
 Red. masses --      1.3687                 1.5002                 4.6078
 Frc consts  --      2.0314                 2.2334                 6.9469
 IR Inten    --      3.8666               690.9455                 0.2820

                     67                     68                     69
                      A                      A                      A
 Frequencies --   1607.0837              1613.6304              3149.5991
 Red. masses --      5.7188                 6.9843                 1.0863
 Frc consts  --      8.7023                10.7147                 6.3489
 IR Inten    --    147.7357                 0.5181                51.7327

                     70                     71                     72
                      A                      A                      A
 Frequencies --   3149.9342              3166.4644              3166.7131
 Red. masses --      1.0863                 1.0931                 1.0930
 Frc consts  --      6.3507                 6.4573                 6.4578
 IR Inten    --     16.7695                79.5123                22.0864

                     73                     74                     75
                      A                      A                      A
 Frequencies --   3204.7712              3205.0707              3434.4098
 Red. masses --      1.0912                 1.0913                 1.0581
 Frc consts  --      6.6034                 6.6048                 7.3530
 IR Inten    --     37.9252                 1.6178                80.0607

                     76                     77                     78
                      A                      A                      A
 Frequencies --   3435.1994              3646.4235              3646.5748
 Red. masses --      1.0581                 1.0916                 1.0917
 Frc consts  --      7.3567                 8.5519                 8.5530
 IR Inten    --    300.7098               162.8041                30.8204

 - Thermochemistry -
 -------------------
 Temperature   298.150 Kelvin.  Pressure   1.00000 Atm.
 Atom     1 has atomic number  7 and mass  14.00307

 Molecular mass:   238.07423 amu.
 Principal axes and moments of inertia in atomic units:
                           1         2         3
     Eigenvalues --  2313.216275032.732487340.15065
           X            0.98243  -0.17841   0.05487
           Y            0.17051   0.97739   0.12507
           Z           -0.07594  -0.11351   0.99063
 This molecule is an asymmetric top.
 Rotational symmetry number  1.
 Warning -- assumption of classical behavior for rotation
           may cause significant error
 Rotational temperatures (Kelvin)      0.03744     0.01721     0.01180
 Rotational constants (GHZ):           0.78019     0.35860     0.24587
 Zero-point vibrational energy     551430.7 (Joules/Mol)
                                  131.79510 (Kcal/Mol)
 Warning -- explicit consideration of  24 degrees of freedom as
           vibrations may cause significant error
 Vibrational temperatures:     64.60    96.95   147.92   237.99   283.93
          (Kelvin)            315.45   330.45   397.58   445.95   518.05
                              549.96   560.67   569.48   591.92   608.16
                              644.05   649.12   711.87   715.54   769.69
                              784.89   828.85   854.17   867.48   926.71
                              931.76   968.92  1014.70  1026.73  1092.58
                             1100.45  1127.02  1144.12  1175.66  1230.97
                             1255.53  1259.90  1311.29  1401.32  1401.91
                             1405.19  1507.30  1538.57  1544.19  1641.99
                             1642.66  1672.29  1696.01  1710.33  1771.42
                             1789.24  1877.13  1896.54  1944.41  1958.93
                             1991.28  2022.89  2062.87  2073.60  2125.04
                             2164.58  2165.83  2246.35  2283.51  2287.09
                             2301.52  2312.23  2321.65  4531.57  4532.05
                             4555.84  4556.19  4610.95  4611.38  4941.35
                             4942.49  5246.39  5246.61

 Zero-point correction=                           0.210029 (Hartree/Particle)
 Thermal correction to Energy=                    0.223792
 Thermal correction to Enthalpy=                  0.224736
 Thermal correction to Gibbs Free Energy=         0.169409
 Sum of electronic and zero-point Energies=           -799.647505
 Sum of electronic and thermal Energies=              -799.633742
 Sum of electronic and thermal Enthalpies=            -799.632797
 Sum of electronic and thermal Free Energies=         -799.688125

                     E (Thermal)             CV                S
                      KCal/Mol        Cal/Mol-Kelvin    Cal/Mol-Kelvin
 Total                  140.432             57.230            116.446
 Electronic               0.000              0.000              1.377
 Translational            0.889              2.981             42.304
 Rotational               0.889              2.981             32.813
 Vibrational            138.654             51.269             39.952
 Vibration     1          0.595              1.979              5.030
 Vibration     2          0.598              1.970              4.228
 Vibration     3          0.605              1.947              3.400
 Vibration     4          0.624              1.885              2.487
 Vibration     5          0.637              1.844              2.158
 Vibration     6          0.647              1.812              1.965
 Vibration     7          0.652              1.796              1.882
 Vibration     8          0.678              1.717              1.556
 Vibration     9          0.699              1.655              1.363
 Vibration    10          0.735              1.555              1.122
 Vibration    11          0.752              1.508              1.030
 Vibration    12          0.758              1.492              1.001
 Vibration    13          0.763              1.479              0.978
 Vibration    14          0.775              1.445              0.922
 Vibration    15          0.785              1.421              0.883
 Vibration    16          0.807              1.366              0.803
 Vibration    17          0.810              1.358              0.792
 Vibration    18          0.850              1.262              0.671
 Vibration    19          0.853              1.256              0.665
 Vibration    20          0.890              1.173              0.576
 Vibration    21          0.901              1.149              0.554
 Vibration    22          0.932              1.083              0.493
 Vibration    23          0.951              1.045              0.461
 Vibration    24          0.961              1.026              0.445

 Optimization completed.
    -- Stationary point found.
 Normal termination of Gaussian 16 at Sat Feb 10 18:00:47 2024.
