 Gaussian 16, Revision A.03,
 Gaussian 16:  ES64L-G16RevA.03 25-Dec-2016

 --------------------------------------
 #P UB3LYP/6-311++G(d,p) nosym opt freq
 --------------------------------------

 -------
 Radical
 -------
 Symbolic Z-matrix:
 Charge = -1 Multiplicity = 2

 SCF Done:  E(UB3LYP) =  -744.338806013     A.U. after   24 cycles
 SCF Done:  E(UB3LYP) =  -744.365285425     A.U. after   19 cycles
 SCF Done:  E(UB3LYP) =  -744.377329192     A.U. after   19 cycles
 SCF Done:  E(UB3LYP) =  -744.388665771     A.U. after   20 cycles
 SCF Done:  E(UB3LYP) =  -744.393456735     A.U. after   18 cycles
 SCF Done:  E(UB3LYP) =  -744.395134538     A.U. after   18 cycles
 SCF Done:  E(UB3LYP) =  -744.397392121     A.U. after   17 cycles
 SCF Done:  E(UB3LYP) =  -744.398592085     A.U. after   18 cycles
 SCF Done:  E(UB3LYP) =  -744.398915161     A.U. after   17 cycles
 SCF Done:  E(UB3LYP) =  -744.399269308     A.U. after   15 cycles
 SCF Done:  E(UB3LYP) =  -744.399314517     A.U. after   15 cycles
 SCF Done:  E(UB3LYP) =  -744.399352061     A.U. after   14 cycles
 SCF Done:  E(UB3LYP) =  -744.399361369     A.U. after   13 cycles
 SCF Done:  E(UB3LYP) =  -744.399361968     A.U. after   10 cycles
 Optimization completed.
    -- Stationary point found.
 Normal termination of Gaussian 16 at Thu Dec 21 06:24:34 2023.

 ----------------------------------------------------------------------
 #P Geom=AllCheck Guess=TCheck SCRF=Check GenChk UB3LYP/6-311++G(d,p) F
 req
 ----------------------------------------------------------------------

 Structure from the checkpoint file:  "150-rad.chk"
 -------
 Radical
 -------
 Charge = -1 Multiplicity = 2

                          Input orientation:
 ---------------------------------------------------------------------
 Center     Atomic      Atomic             Coordinates (Angstroms)
 Number     Number       Type             X           Y           Z
 ---------------------------------------------------------------------
      1          7           0       -2.921698    1.881001    0.110701
      2          6           0       -2.529232    0.553203    0.069833
      3          6           0       -3.493256   -0.457055    0.041261
      4          6           0       -3.122686   -1.804455   -0.069419
      5          6           0       -1.791563   -2.160443   -0.157588
      6          6           0       -0.784362   -1.174499   -0.116584
      7          6           0        0.610720   -1.620247   -0.197588
      8          8           0        0.912836   -2.833502   -0.323944
      9          6           0        1.633691   -0.580268   -0.118967
     10          6           0        2.998119   -0.938621   -0.191534
     11          6           0        3.992696    0.015115   -0.112151
     12          6           0        3.650213    1.376723    0.045716
     13          6           0        2.322737    1.748802    0.120026
     14          6           0        1.288064    0.790093    0.038669
     15          6           0       -0.102928    1.234552    0.118621
     16          8           0       -0.362925    2.467384    0.284900
     17          6           0       -1.134115    0.209178    0.011874
     18          1           0       -3.824530    2.065914    0.518858
     19          1           0       -2.154014    2.522532    0.318984
     20          1           0       -4.543325   -0.179492    0.086135
     21          1           0       -3.894779   -2.568569   -0.092762
     22          1           0       -1.478965   -3.192434   -0.253300
     23          1           0        3.229102   -1.990984   -0.310478
     24          1           0        5.036767   -0.278660   -0.170421
     25          1           0        4.431149    2.129023    0.108002
     26          1           0        2.032285    2.785709    0.241156
 ---------------------------------------------------------------------

 SCF Done:  E(UB3LYP) =  -744.399361968     A.U. after    1 cycles

 Alpha  occ. eigenvalues --  -18.94989 -18.94217 -14.18877 -10.10006 -10.09615
 Alpha  occ. eigenvalues --  -10.09204 -10.05686 -10.05637 -10.05336 -10.04991
 Alpha  occ. eigenvalues --  -10.04947 -10.04928 -10.04816 -10.04677 -10.04654
 Alpha  occ. eigenvalues --  -10.04549 -10.03511  -0.87551  -0.86775  -0.79476
 Alpha  occ. eigenvalues --   -0.73579  -0.71487  -0.66120  -0.62895  -0.61750
 Alpha  occ. eigenvalues --   -0.60703  -0.54149  -0.51639  -0.50022  -0.46413
 Alpha  occ. eigenvalues --   -0.43551  -0.42561  -0.40618  -0.38087  -0.35569
 Alpha  occ. eigenvalues --   -0.34953  -0.33876  -0.32582  -0.31749  -0.30297
 Alpha  occ. eigenvalues --   -0.29613  -0.28702  -0.27906  -0.27305  -0.25755
 Alpha  occ. eigenvalues --   -0.25610  -0.24765  -0.23601  -0.22504  -0.22133
 Alpha  occ. eigenvalues --   -0.21305  -0.18699  -0.14186  -0.13411  -0.12629
 Alpha  occ. eigenvalues --   -0.11831  -0.10613  -0.08994  -0.01225
 Alpha virt. eigenvalues --    0.07432   0.08083   0.08371   0.09559   0.09892
 Alpha virt. eigenvalues --    0.10308   0.11326   0.12301   0.12624   0.13011
 Alpha virt. eigenvalues --    0.14621   0.15409   0.15487   0.16144   0.16795

  Beta  occ. eigenvalues --  -18.94455 -18.93624 -14.18863 -10.09829 -10.09622
  Beta  occ. eigenvalues --  -10.09073 -10.05633 -10.05584 -10.05282 -10.05001
  Beta  occ. eigenvalues --  -10.04959 -10.04908 -10.04726 -10.04581 -10.04547
  Beta  occ. eigenvalues --  -10.04459 -10.03499  -0.86641  -0.85746  -0.79398
  Beta  occ. eigenvalues --   -0.73354  -0.71325  -0.65722  -0.62703  -0.61553
  Beta  occ. eigenvalues --   -0.60499  -0.53441  -0.51474  -0.49776  -0.46347
  Beta  occ. eigenvalues --   -0.43353  -0.42355  -0.40490  -0.38003  -0.35390
  Beta  occ. eigenvalues --   -0.34675  -0.33768  -0.32487  -0.31644  -0.30267
  Beta  occ. eigenvalues --   -0.28566  -0.28531  -0.27405  -0.27032  -0.25462
  Beta  occ. eigenvalues --   -0.25251  -0.23521  -0.22747  -0.22354  -0.21223
  Beta  occ. eigenvalues --   -0.20945  -0.18069  -0.12781  -0.12100  -0.11923
  Beta  occ. eigenvalues --   -0.11341  -0.10065  -0.08294
  Beta virt. eigenvalues --    0.04530   0.08053   0.08328   0.08363   0.09576
  Beta virt. eigenvalues --    0.10298   0.10926   0.11328   0.12393   0.12764
  Beta virt. eigenvalues --    0.13007   0.14619   0.15451   0.15505   0.16243

 Mulliken charges and spin densities:
               1          2
     1  N   -0.373336   0.005796
     2  C    0.185077   0.020238
     3  C   -0.212224   0.079058
     4  C   -0.404955   0.046809
     5  C   -0.043067   0.035827
     6  C    0.542567   0.065305
     7  C   -0.698258   0.064673
     8  O   -0.363849   0.222807
     9  C    0.084423   0.040205
    10  C    0.078006   0.015716
    11  C   -0.370341   0.040565
    12  C   -0.454541   0.041379
    13  C    0.174884   0.023863
    14  C    0.150268   0.037317
    15  C   -0.546280   0.087424
    16  O   -0.384226   0.196960
    17  C    0.206930   0.000765
    18  H    0.210615  -0.000854
    19  H    0.298124  -0.003062
    20  H    0.094830  -0.005884
    21  H    0.125493  -0.003446
    22  H    0.147478  -0.002553
    23  H    0.153092  -0.001303
    24  H    0.121224  -0.003448
    25  H    0.120484  -0.003544
    26  H    0.157581  -0.000612
 Sum of Mulliken charges =  -1.00000   1.00000

 Dipole moment (field-independent basis, Debye):
    X=             -1.3749    Y=              1.8382    Z=              0.9337  Tot=              2.4781
 Quadrupole moment (field-independent basis, Debye-Ang):
   XX=           -112.2376   YY=           -129.5260   ZZ=           -107.2148
   XY=              2.3839   XZ=             -2.3224   YZ=             -0.7129

  Exact polarizability: 330.752  16.311 233.101  -4.569  12.036  99.805
 Approx polarizability: 497.516  10.555 442.094  -8.241  26.139 158.940

                      1                      2                      3
                      A                      A                      A
 Frequencies --     54.3721                86.8184               135.6634
 Red. masses --      6.7878                 5.0365                 5.0712
 Frc consts  --      0.0118                 0.0224                 0.0550
 IR Inten    --      6.0023                 0.1648                 0.0035

                      4                      5                      6
                      A                      A                      A
 Frequencies --    168.5654               207.5194               223.6671
 Red. masses --      7.4851                 4.3562                 4.9073
 Frc consts  --      0.1253                 0.1105                 0.1446
 IR Inten    --      1.4385                 1.1020                 5.6193

                      7                      8                      9
                      A                      A                      A
 Frequencies --    261.2676               322.9349               351.3224
 Red. masses --      3.8715                 6.1150                 6.3259
 Frc consts  --      0.1557                 0.3757                 0.4600
 IR Inten    --     12.3741                 5.1781                 1.7156

                     10                     11                     12
                      A                      A                      A
 Frequencies --    380.3804               396.5807               416.2021
 Red. masses --      2.6098                 2.4191                 6.1046
 Frc consts  --      0.2225                 0.2242                 0.6230
 IR Inten    --     62.3070                68.8507                 6.4229

                     13                     14                     15
                      A                      A                      A
 Frequencies --    422.9334               441.2153               454.4077
 Red. masses --      5.2527                 3.2868                 4.1497
 Frc consts  --      0.5536                 0.3770                 0.5048
 IR Inten    --     32.5560                10.8627                13.9710

                     16                     17                     18
                      A                      A                      A
 Frequencies --    497.6749               498.3706               559.2231
 Red. masses --      5.9112                 4.7985                 5.5362
 Frc consts  --      0.8626                 0.7022                 1.0201
 IR Inten    --      5.2967                 0.8586                 2.4398

                     19                     20                     21
                      A                      A                      A
 Frequencies --    565.0004               610.5402               646.5488
 Red. masses --      4.1547                 6.3263                 4.0391
 Frc consts  --      0.7814                 1.3894                 0.9948
 IR Inten    --     11.2317                19.5632                 8.0332

                     22                     23                     24
                      A                      A                      A
 Frequencies --    665.4766               698.1053               708.1074
 Red. masses --      6.3792                 6.5620                 2.1523
 Frc consts  --      1.6645                 1.8842                 0.6358
 IR Inten    --      5.2252                 1.1605                56.8927

                     25                     26                     27
                      A                      A                      A
 Frequencies --    715.4362               751.4771               767.9651
 Red. masses --      1.6030                 1.4743                 2.1916
 Frc consts  --      0.4834                 0.4905                 0.7615
 IR Inten    --     75.6715                68.2985                12.0208

                     28                     29                     30
                      A                      A                      A
 Frequencies --    784.8650               800.0579               815.9880
 Red. masses --      2.0619                 5.3485                 4.5275
 Frc consts  --      0.7483                 2.0171                 1.7761
 IR Inten    --     21.9994                 1.9771                11.9872

                     31                     32                     33
                      A                      A                      A
 Frequencies --    853.1573               866.6332               883.0709
 Red. masses --      1.4753                 1.5433                 6.7135
 Frc consts  --      0.6327                 0.6829                 3.0845
 IR Inten    --      1.0215                 0.1284                26.6071

                     34                     35                     36
                      A                      A                      A
 Frequencies --    933.0986               958.9265               980.9088
 Red. masses --      6.4120                 1.2790                 1.3218
 Frc consts  --      3.2892                 0.6929                 0.7494
 IR Inten    --      1.5543                 0.8785                 1.6617

                     37                     38                     39
                      A                      A                      A
 Frequencies --    981.5157              1019.1603              1040.8795
 Red. masses --      1.2975                 3.6873                 1.9900
 Frc consts  --      0.7365                 2.2565                 1.2703
 IR Inten    --      1.1522                16.1316                19.6702

                     40                     41                     42
                      A                      A                      A
 Frequencies --   1072.9541              1109.7940              1144.7594
 Red. masses --      2.1571                 2.1265                 1.3786
 Frc consts  --      1.4631                 1.5431                 1.0645
 IR Inten    --     28.8443                16.2403                27.4405

                     43                     44                     45
                      A                      A                      A
 Frequencies --   1154.0103              1174.1877              1183.2162
 Red. masses --      1.4513                 1.3532                 2.2586
 Frc consts  --      1.1387                 1.0992                 1.8630
 IR Inten    --     34.9654                12.2739                 9.1377

                     46                     47                     48
                      A                      A                      A
 Frequencies --   1208.2255              1233.6646              1254.7587
 Red. masses --      1.9930                 2.8737                 2.0927
 Frc consts  --      1.7142                 2.5769                 1.9412
 IR Inten    --      8.1261                30.7089                77.2027

                     49                     50                     51
                      A                      A                      A
 Frequencies --   1309.3724              1353.4629              1362.1677
 Red. masses --      2.8563                 5.5834                 4.5058
 Frc consts  --      2.8853                 6.0261                 4.9259
 IR Inten    --      3.2933                 3.4721                 5.8915

                     52                     53                     54
                      A                      A                      A
 Frequencies --   1366.8849              1417.9474              1449.5374
 Red. masses --      5.0886                 2.6671                 2.6797
 Frc consts  --      5.6016                 3.1594                 3.3173
 IR Inten    --     12.9808               323.6577                40.0371

                     55                     56                     57
                      A                      A                      A
 Frequencies --   1479.5740              1482.8877              1511.8214
 Red. masses --      2.9442                 3.1247                 3.8347
 Frc consts  --      3.7974                 4.0483                 5.1639
 IR Inten    --      5.9649                27.5587               106.4416

                     58                     59                     60
                      A                      A                      A
 Frequencies --   1532.7462              1561.3942              1604.2696
 Red. masses --      6.1468                 4.1341                 2.4764
 Frc consts  --      8.5083                 5.9382                 3.7551
 IR Inten    --    543.0440               127.6370                52.3858

                     61                     62                     63
                      A                      A                      A
 Frequencies --   1609.5171              1621.0219              1625.2268
 Red. masses --      2.2684                 6.0991                 6.4406
 Frc consts  --      3.4622                 9.4427                10.0232
 IR Inten    --    168.3135                42.3488                 0.8164

                     64                     65                     66
                      A                      A                      A
 Frequencies --   3124.7902              3132.8113              3146.2986
 Red. masses --      1.0850                 1.0846                 1.0923
 Frc consts  --      6.2418                 6.2720                 6.3706
 IR Inten    --     32.3132                18.5059                66.6134

                     67                     68                     69
                      A                      A                      A
 Frequencies --   3152.1665              3183.0119              3187.0380
 Red. masses --      1.0913                 1.0916                 1.0922
 Frc consts  --      6.3886                 6.5162                 6.5365
 IR Inten    --     52.3204                15.1076                26.4547

                     70                     71                     72
                      A                      A                      A
 Frequencies --   3195.2740              3362.7996              3639.2014
 Red. masses --      1.0915                 1.0625                 1.0865
 Frc consts  --      6.5660                 7.0793                 8.4777
 IR Inten    --     12.6861               126.0639                17.6920

 - Thermochemistry -
 -------------------
 Temperature   298.150 Kelvin.  Pressure   1.00000 Atm.
 Atom     1 has atomic number  7 and mass  14.00307

 Molecular mass:   223.06333 amu.
 Principal axes and moments of inertia in atomic units:
                           1         2         3
     Eigenvalues --  2027.809024432.382846457.34775
           X            0.99531  -0.09422   0.02208
           Y            0.09590   0.99084  -0.09503
           Z           -0.01293   0.09671   0.99523
 This molecule is an asymmetric top.
 Rotational symmetry number  1.
 Warning -- assumption of classical behavior for rotation
           may cause significant error
 Rotational temperatures (Kelvin)      0.04271     0.01954     0.01341
 Rotational constants (GHZ):           0.89000     0.40717     0.27949
 Zero-point vibrational energy     507652.3 (Joules/Mol)
                                  121.33180 (Kcal/Mol)
 Warning -- explicit consideration of  20 degrees of freedom as
           vibrations may cause significant error
 Vibrational temperatures:     78.23   124.91   195.19   242.53   298.57
          (Kelvin)            321.81   375.91   464.63   505.47   547.28
                              570.59   598.82   608.51   634.81   653.79
                              716.04   717.04   804.60   812.91   878.43
                              930.24   957.47  1004.42  1018.81  1029.35
                             1081.21  1104.93  1129.25  1151.10  1174.02
                             1227.50  1246.89  1270.54  1342.52  1379.68
                             1411.31  1412.18  1466.34  1497.59  1543.74
                             1596.75  1647.05  1660.36  1689.39  1702.38
                             1738.37  1774.97  1805.32  1883.89  1947.33
                             1959.86  1966.64  2040.11  2085.56  2128.78
                             2133.54  2175.17  2205.28  2246.50  2308.19
                             2315.74  2332.29  2338.34  4495.88  4507.42
                             4526.82  4535.26  4579.64  4585.44  4597.29
                             4838.32  5236.00

 Zero-point correction=                           0.193355 (Hartree/Particle)
 Thermal correction to Energy=                    0.205762
 Thermal correction to Enthalpy=                  0.206706
 Thermal correction to Gibbs Free Energy=         0.154270
 Sum of electronic and zero-point Energies=           -744.206007
 Sum of electronic and thermal Energies=              -744.193600
 Sum of electronic and thermal Enthalpies=            -744.192656
 Sum of electronic and thermal Free Energies=         -744.245092

                     E (Thermal)             CV                S
                      KCal/Mol        Cal/Mol-Kelvin    Cal/Mol-Kelvin
 Total                  129.117             51.575            110.360
 Electronic               0.000              0.000              1.377
 Translational            0.889              2.981             42.109
 Rotational               0.889              2.981             32.429
 Vibrational            127.340             45.613             34.444
 Vibration     1          0.596              1.976              4.652
 Vibration     2          0.601              1.958              3.731
 Vibration     3          0.613              1.918              2.864
 Vibration     4          0.625              1.881              2.451
 Vibration     5          0.641              1.829              2.065
 Vibration     6          0.649              1.805              1.929
 Vibration     7          0.669              1.744              1.653
 Vibration     8          0.708              1.630              1.295
 Vibration     9          0.728              1.573              1.160
 Vibration    10          0.750              1.512              1.038
 Vibration    11          0.763              1.477              0.975
 Vibration    12          0.779              1.435              0.905
 Vibration    13          0.785              1.420              0.882
 Vibration    14          0.801              1.380              0.823
 Vibration    15          0.813              1.351              0.783
 Vibration    16          0.853              1.255              0.664
 Vibration    17          0.854              1.254              0.662
 Vibration    18          0.915              1.120              0.525
 Vibration    19          0.921              1.107              0.514
 Vibration    20          0.970              1.010              0.432

 Optimization completed.
    -- Stationary point found.
 Normal termination of Gaussian 16 at Thu Dec 21 06:55:45 2023.
