 Gaussian 16, Revision A.03,
 Gaussian 16:  ES64L-G16RevA.03 25-Dec-2016

 ----------------------------------------------------------------
 #P UB3LYP/6-311++G(d,p) SCRF=(PCM,Solvent=n,n-DiMethylFormamide)
 ----------------------------------------------------------------

 -------
 Reduced
 -------
 Symbolic Z-matrix:
 Charge = -2 Multiplicity = 1

                         Standard orientation:
 ---------------------------------------------------------------------
 Center     Atomic      Atomic             Coordinates (Angstroms)
 Number     Number       Type             X           Y           Z
 ---------------------------------------------------------------------
      1          7           0       -3.365362   -0.290569   -0.059588
      2          6           0       -1.975179    0.040534   -0.034187
      3          6           0       -1.552573    1.378102   -0.016020
      4          6           0       -0.187892    1.778166    0.001787
      5          8           0        0.196366    3.006658    0.011464
      6          6           0        0.762325    0.660071   -0.008826
      7          6           0        2.148145    0.916991   -0.003097
      8          6           0        3.092208   -0.098840    0.007939
      9          6           0        2.657070   -1.449176    0.022740
     10          6           0        1.305214   -1.737182    0.010426
     11          6           0        0.315845   -0.719154   -0.024503
     12          6           0       -1.083718   -1.070990   -0.030327
     13          8           0       -1.532135   -2.295335   -0.002958
     14          1           0       -3.879989    0.203435    0.668194
     15          1           0       -3.405093   -1.299011    0.109216
     16          1           0       -2.299981    2.171317   -0.048747
     17          1           0        2.445111    1.962084   -0.005964
     18          1           0        4.156458    0.132710    0.011411
     19          1           0        3.390320   -2.255508    0.037224
     20          1           0        0.948196   -2.762752    0.022129
 ---------------------------------------------------------------------

 SCF Done:  E(UB3LYP) =  -590.889409117     A.U. after   18 cycles

 The electronic state is 1-A.
 Alpha  occ. eigenvalues --  -19.01576 -19.01336 -14.27997 -10.17118 -10.15809
 Alpha  occ. eigenvalues --  -10.15330 -10.14737 -10.14378 -10.14304 -10.14151
 Alpha  occ. eigenvalues --  -10.13419 -10.13168 -10.11419  -0.93282  -0.92785
 Alpha  occ. eigenvalues --   -0.86241  -0.82009  -0.75028  -0.71845  -0.69013
 Alpha  occ. eigenvalues --   -0.63239  -0.58196  -0.56945  -0.52341  -0.49183
 Alpha  occ. eigenvalues --   -0.47124  -0.44511  -0.43030  -0.40482  -0.39845
 Alpha  occ. eigenvalues --   -0.38744  -0.37317  -0.36711  -0.35656  -0.34178
 Alpha  occ. eigenvalues --   -0.32705  -0.31569  -0.31499  -0.29941  -0.27275
 Alpha  occ. eigenvalues --   -0.22619  -0.21910  -0.19915  -0.19299  -0.18855
 Alpha  occ. eigenvalues --   -0.10576
 Alpha virt. eigenvalues --   -0.00257   0.00114   0.00934   0.01648   0.01729
 Alpha virt. eigenvalues --    0.03077   0.03182   0.04885   0.05553   0.05734
 Alpha virt. eigenvalues --    0.06094   0.07251   0.07526   0.08580   0.09329

  Beta  occ. eigenvalues --  -19.01576 -19.01336 -14.27997 -10.17118 -10.15809
  Beta  occ. eigenvalues --  -10.15330 -10.14737 -10.14378 -10.14304 -10.14151
  Beta  occ. eigenvalues --  -10.13419 -10.13168 -10.11419  -0.93282  -0.92785
  Beta  occ. eigenvalues --   -0.86241  -0.82009  -0.75028  -0.71845  -0.69013
  Beta  occ. eigenvalues --   -0.63239  -0.58196  -0.56945  -0.52341  -0.49183
  Beta  occ. eigenvalues --   -0.47124  -0.44511  -0.43030  -0.40482  -0.39845
  Beta  occ. eigenvalues --   -0.38744  -0.37317  -0.36711  -0.35656  -0.34178
  Beta  occ. eigenvalues --   -0.32705  -0.31569  -0.31499  -0.29941  -0.27275
  Beta  occ. eigenvalues --   -0.22619  -0.21910  -0.19915  -0.19299  -0.18855
  Beta  occ. eigenvalues --   -0.10576
  Beta virt. eigenvalues --   -0.00257   0.00114   0.00934   0.01648   0.01729
  Beta virt. eigenvalues --    0.03077   0.03182   0.04885   0.05553   0.05734
  Beta virt. eigenvalues --    0.06094   0.07251   0.07526   0.08580   0.09329

 Mulliken charges and spin densities:
               1          2
     1  N   -0.462424  -0.000000
     2  C    0.088707  -0.000000
     3  C    0.320511   0.000000
     4  C   -0.574134   0.000000
     5  O   -0.699778   0.000000
     6  C    0.234432  -0.000000
     7  C    0.070652   0.000000
     8  C   -0.439880   0.000000
     9  C   -0.412120  -0.000000
    10  C   -0.023154  -0.000000
    11  C    0.224201   0.000000
    12  C   -0.815771  -0.000000
    13  O   -0.735029   0.000000
    14  H    0.236840   0.000000
    15  H    0.264630  -0.000000
    16  H    0.133017   0.000000
    17  H    0.138025  -0.000000
    18  H    0.153710  -0.000000
    19  H    0.157314  -0.000000
    20  H    0.140249   0.000000
 Sum of Mulliken charges =  -2.00000   0.00000

 Dipole moment (field-independent basis, Debye):
    X=              3.8507    Y=             -2.7680    Z=              1.5602  Tot=              4.9924
 Quadrupole moment (field-independent basis, Debye-Ang):
   XX=           -102.0311   YY=           -137.8518   ZZ=            -87.7331
   XY=            -12.2210   XZ=             -6.4204   YZ=             -0.2158

 Normal termination of Gaussian 16 at Sun Jan 21 08:57:23 2024.
