 Gaussian 16, Revision A.03,
 Gaussian 16:  ES64L-G16RevA.03 25-Dec-2016

 --------------------------------------
 #P UB3LYP/6-311++G(d,p) nosym opt freq
 --------------------------------------

 -------
 Radical
 -------
 Symbolic Z-matrix:
 Charge = -1 Multiplicity = 2

 SCF Done:  E(UB3LYP) =  -696.228205523     A.U. after   20 cycles
 SCF Done:  E(UB3LYP) =  -696.228205336     A.U. after   11 cycles
 SCF Done:  E(UB3LYP) =  -696.228205735     A.U. after   10 cycles
 SCF Done:  E(UB3LYP) =  -696.228206264     A.U. after   10 cycles
 SCF Done:  E(UB3LYP) =  -696.228210931     A.U. after   14 cycles
 SCF Done:  E(UB3LYP) =  -696.180324560     A.U. after   18 cycles
 SCF Done:  E(UB3LYP) =  -696.228671295     A.U. after   17 cycles
 SCF Done:  E(UB3LYP) =  -696.064604016     A.U. after   23 cycles
 SCF Done:  E(UB3LYP) =  -696.230747650     A.U. after   18 cycles
 SCF Done:  E(UB3LYP) =  -696.230964446     A.U. after   17 cycles
 SCF Done:  E(UB3LYP) =  -696.234992191     A.U. after   16 cycles
 SCF Done:  E(UB3LYP) =  -696.235261313     A.U. after   15 cycles
 SCF Done:  E(UB3LYP) =  -696.235341154     A.U. after   14 cycles
 SCF Done:  E(UB3LYP) =  -696.235380755     A.U. after   15 cycles
 SCF Done:  E(UB3LYP) =  -696.235414964     A.U. after   13 cycles
 SCF Done:  E(UB3LYP) =  -696.235435355     A.U. after   13 cycles
 SCF Done:  E(UB3LYP) =  -696.235442865     A.U. after   12 cycles
 SCF Done:  E(UB3LYP) =  -696.235445494     A.U. after   12 cycles
 SCF Done:  E(UB3LYP) =  -696.235445826     A.U. after   11 cycles
 Optimization completed.
    -- Stationary point found.
 Normal termination of Gaussian 16 at Thu Jan 18 12:16:37 2024.

 ----------------------------------------------------------------------
 #P Geom=AllCheck Guess=TCheck SCRF=Check GenChk UB3LYP/6-311++G(d,p) F
 req
 ----------------------------------------------------------------------

 Structure from the checkpoint file:  "045-rad.chk"
 -------
 Radical
 -------
 Charge = -1 Multiplicity = 2

                          Input orientation:
 ---------------------------------------------------------------------
 Center     Atomic      Atomic             Coordinates (Angstroms)
 Number     Number       Type             X           Y           Z
 ---------------------------------------------------------------------
      1          6           0       -1.268618    1.820310   -0.858182
      2          6           0       -2.557451    1.163091   -0.802641
      3          6           0       -2.884665    0.116147    0.023878
      4          6           0       -1.853691   -0.388588    0.930750
      5          6           0       -0.565053    0.268664    0.875277
      6          6           0       -0.237797    1.315709    0.048730
      7          8           0       -1.080330    2.781394   -1.665125
      8          8           0       -2.042120   -1.349811    1.737507
      9          6           0        1.158034    1.962643    0.048793
     10          6           0        1.038139    3.462255    0.414233
     11          6           0        2.111586    1.304736    1.064063
     12          6           0        1.795420    1.828626   -1.355707
     13          6           0       -4.280423   -0.530773    0.023904
     14          6           0       -5.233871    0.127088   -0.991430
     15          6           0       -4.917853   -0.396727    1.428397
     16          6           0       -4.160604   -2.030440   -0.341506
     17          1           0       -3.279863    1.578913   -1.495652
     18          1           0        0.157496   -0.146998    1.568264
     19          1           0        0.386851    3.973280   -0.294518
     20          1           0        2.027407    3.937552    0.400636
     21          1           0        0.620599    3.577808    1.420028
     22          1           0        1.736634    1.388596    2.088319
     23          1           0        3.086642    1.802768    1.022138
     24          1           0        2.267908    0.243896    0.847440
     25          1           0        2.785682    2.301828   -1.370836
     26          1           0        1.920326    0.773003   -1.619015
     27          1           0        1.161962    2.302576   -2.105227
     28          1           0       -4.858631    0.043372   -2.015606
     29          1           0       -5.390447    1.187913   -0.774872
     30          1           0       -6.208896   -0.371039   -0.949797
     31          1           0       -5.042472    0.658897    1.691871
     32          1           0       -4.284545   -0.870885    2.177904
     33          1           0       -5.908252   -0.869624    1.443458
     34          1           0       -3.742914   -2.146074   -1.347223
     35          1           0       -5.149967   -2.505555   -0.328158
     36          1           0       -3.509651   -2.541598    0.367486
 ---------------------------------------------------------------------

 SCF Done:  E(UB3LYP) =  -696.235445826     A.U. after    1 cycles

 Alpha  occ. eigenvalues --  -18.93457 -18.93456 -10.08088 -10.08087 -10.06901
 Alpha  occ. eigenvalues --  -10.06901 -10.04763 -10.04762 -10.03869 -10.03867
 Alpha  occ. eigenvalues --  -10.03632 -10.03632 -10.03632 -10.03632 -10.02525
 Alpha  occ. eigenvalues --  -10.02524  -0.85736  -0.85461  -0.71281  -0.70455
 Alpha  occ. eigenvalues --   -0.66341  -0.59954  -0.57282  -0.57267  -0.56539
 Alpha  occ. eigenvalues --   -0.56535  -0.54076  -0.48817  -0.44423  -0.42926
 Alpha  occ. eigenvalues --   -0.39224  -0.35319  -0.34614  -0.34308  -0.32355
 Alpha  occ. eigenvalues --   -0.32241  -0.31598  -0.30264  -0.29962  -0.28788
 Alpha  occ. eigenvalues --   -0.28452  -0.27923  -0.27172  -0.26225  -0.25530
 Alpha  occ. eigenvalues --   -0.25406  -0.25166  -0.24354  -0.22662  -0.22490
 Alpha  occ. eigenvalues --   -0.22017  -0.21535  -0.21386  -0.21039  -0.20817
 Alpha  occ. eigenvalues --   -0.20182  -0.13895  -0.11724  -0.09875  -0.09392
 Alpha  occ. eigenvalues --   -0.02207
 Alpha virt. eigenvalues --    0.08073   0.08184   0.10261   0.10302   0.10590
 Alpha virt. eigenvalues --    0.10778   0.10851   0.11952   0.11991   0.12895
 Alpha virt. eigenvalues --    0.13007   0.13445   0.13774   0.14100   0.14460

  Beta  occ. eigenvalues --  -18.92740 -18.92740 -10.07961 -10.07960 -10.06909
  Beta  occ. eigenvalues --  -10.06908 -10.04763 -10.04763 -10.03758 -10.03757
  Beta  occ. eigenvalues --  -10.03626 -10.03626 -10.03626 -10.03625 -10.02415
  Beta  occ. eigenvalues --  -10.02414  -0.84507  -0.84193  -0.71015  -0.70381
  Beta  occ. eigenvalues --   -0.65940  -0.59720  -0.57250  -0.57223  -0.56518
  Beta  occ. eigenvalues --   -0.56515  -0.53111  -0.48563  -0.44073  -0.42802
  Beta  occ. eigenvalues --   -0.38999  -0.35194  -0.34354  -0.34249  -0.32292
  Beta  occ. eigenvalues --   -0.32213  -0.31568  -0.30025  -0.29898  -0.28211
  Beta  occ. eigenvalues --   -0.28136  -0.27701  -0.27155  -0.25852  -0.25133
  Beta  occ. eigenvalues --   -0.25028  -0.25011  -0.23539  -0.22355  -0.21947
  Beta  occ. eigenvalues --   -0.21745  -0.21093  -0.20994  -0.20666  -0.20039
  Beta  occ. eigenvalues --   -0.19557  -0.10941  -0.10513  -0.09219  -0.08764
  Beta virt. eigenvalues --    0.05042   0.08075   0.08184   0.10293   0.10306
  Beta virt. eigenvalues --    0.10592   0.10783   0.10858   0.11952   0.12527
  Beta virt. eigenvalues --    0.12907   0.13014   0.13458   0.13777   0.14476

 Mulliken charges and spin densities:
               1          2
     1  C   -1.074578   0.076564
     2  C   -0.354767   0.070854
     3  C    1.204617   0.102931
     4  C   -1.074153   0.076617
     5  C   -0.354921   0.070988
     6  C    1.204712   0.103088
     7  O   -0.368576   0.259173
     8  O   -0.368589   0.259193
     9  C    0.658583  -0.022038
    10  C   -0.694913   0.013383
    11  C   -0.575984  -0.002536
    12  C   -0.694605   0.013379
    13  C    0.658490  -0.021995
    14  C   -0.575974  -0.002535
    15  C   -0.694690   0.013370
    16  C   -0.694835   0.013369
    17  H    0.170474  -0.009511
    18  H    0.170455  -0.009518
    19  H    0.196356  -0.002386
    20  H    0.110445   0.000597
    21  H    0.113643   0.001144
    22  H    0.122865  -0.000506
    23  H    0.142972  -0.000089
    24  H    0.122899  -0.000505
    25  H    0.110486   0.000594
    26  H    0.113611   0.001146
    27  H    0.196350  -0.002385
    28  H    0.122863  -0.000506
    29  H    0.122908  -0.000504
    30  H    0.142973  -0.000089
    31  H    0.113635   0.001146
    32  H    0.196318  -0.002382
    33  H    0.110505   0.000591
    34  H    0.113656   0.001146
    35  H    0.110450   0.000594
    36  H    0.196320  -0.002383
 Sum of Mulliken charges =  -1.00000   1.00000

 Dipole moment (field-independent basis, Debye):
    X=              7.4986    Y=             -3.4382    Z=             -0.1740  Tot=              8.2511
 Quadrupole moment (field-independent basis, Debye-Ang):
   XX=           -131.0120   YY=           -130.8824   ZZ=           -120.6129
   XY=             -3.3420   XZ=              3.3447   YZ=             15.2873

  Exact polarizability: 226.961  40.485 195.725  -1.100 -32.119 171.353
 Approx polarizability: 280.833  37.834 317.803  -5.370 -81.735 284.896

                      1                      2                      3
                      A                      A                      A
 Frequencies --     45.1371                56.5478                86.1080
 Red. masses --      3.8172                 2.9633                 4.0218
 Frc consts  --      0.0046                 0.0056                 0.0176
 IR Inten    --      3.8427                 0.3746                 0.0000

                      4                      5                      6
                      A                      A                      A
 Frequencies --    156.0223               158.7412               167.8561
 Red. masses --      3.0721                 3.4995                 5.7722
 Frc consts  --      0.0441                 0.0520                 0.0958
 IR Inten    --      0.0000                 3.4890                 8.0062

                      7                      8                      9
                      A                      A                      A
 Frequencies --    231.3194               235.3834               235.5878
 Red. masses --      3.3907                 1.0813                 1.1032
 Frc consts  --      0.1069                 0.0353                 0.0361
 IR Inten    --      0.0000                 0.3721                 0.0001

                     10                     11                     12
                      A                      A                      A
 Frequencies --    242.3120               272.4440               272.5740
 Red. masses --      3.2034                 1.0703                 1.2242
 Frc consts  --      0.1108                 0.0468                 0.0536
 IR Inten    --      0.0000                 1.1571                 0.0156

                     13                     14                     15
                      A                      A                      A
 Frequencies --    287.4296               298.9602               302.5359
 Red. masses --      3.5667                 2.8315                 2.7308
 Frc consts  --      0.1736                 0.1491                 0.1473
 IR Inten    --      0.0000                 0.3357                 1.6428

                     16                     17                     18
                      A                      A                      A
 Frequencies --    317.3055               322.2721               324.1388
 Red. masses --      2.5763                 1.0388                 1.0438
 Frc consts  --      0.1528                 0.0636                 0.0646
 IR Inten    --      0.0000                 0.0976                 0.0001

                     19                     20                     21
                      A                      A                      A
 Frequencies --    342.7281               377.1736               391.1059
 Red. masses --      4.5818                 2.3741                 2.3383
 Frc consts  --      0.3171                 0.1990                 0.2107
 IR Inten    --     17.5480                 0.0000                 0.2328

                     22                     23                     24
                      A                      A                      A
 Frequencies --    405.9618               419.6428               464.0126
 Red. masses --      2.6235                 2.6984                 3.4213
 Frc consts  --      0.2547                 0.2800                 0.4340
 IR Inten    --      0.0000                 2.6252                 7.4884

                     25                     26                     27
                      A                      A                      A
 Frequencies --    476.0563               489.9112               523.7923
 Red. masses --      5.6505                 2.8719                 3.5494
 Frc consts  --      0.7545                 0.4061                 0.5737
 IR Inten    --      0.0000                 1.6947                 0.0000

                     28                     29                     30
                      A                      A                      A
 Frequencies --    524.2171               623.3384               648.2823
 Red. masses --      5.0481                 3.7538                 4.8487
 Frc consts  --      0.8173                 0.8593                 1.2006
 IR Inten    --      0.0000                 4.4795                 0.0000

                     31                     32                     33
                      A                      A                      A
 Frequencies --    702.7569               736.2023               763.5891
 Red. masses --      5.9107                 6.7527                 2.8353
 Frc consts  --      1.7199                 2.1564                 0.9740
 IR Inten    --      0.0000                 3.5056                 0.0000

                     34                     35                     36
                      A                      A                      A
 Frequencies --    809.2806               816.1625               865.6724
 Red. masses --      3.1160                 3.6052                 2.9296
 Frc consts  --      1.2024                 1.4149                 1.2935
 IR Inten    --      0.0000                11.3903                37.3317

                     37                     38                     39
                      A                      A                      A
 Frequencies --    877.3314               902.0816               924.3378
 Red. masses --      1.7038                 1.5608                 1.7755
 Frc consts  --      0.7727                 0.7483                 0.8938
 IR Inten    --      0.0000                26.3108                 0.0008

                     40                     41                     42
                      A                      A                      A
 Frequencies --    925.0051               932.2470               933.1571
 Red. masses --      1.7406                 1.7600                 1.7317
 Frc consts  --      0.8775                 0.9012                 0.8885
 IR Inten    --      1.6689                 4.3264                 0.0013

                     43                     44                     45
                      A                      A                      A
 Frequencies --    957.9024               957.9401              1009.1086
 Red. masses --      1.2044                 1.2046                 3.5591
 Frc consts  --      0.6511                 0.6513                 2.1353
 IR Inten    --      0.0038                 0.5500                 0.0000

                     46                     47                     48
                      A                      A                      A
 Frequencies --   1035.5296              1044.0103              1048.3302
 Red. masses --      1.5321                 1.3884                 1.3815
 Frc consts  --      0.9680                 0.8916                 0.8945
 IR Inten    --     32.2053                 0.0000                 0.0001

                     49                     50                     51
                      A                      A                      A
 Frequencies --   1049.0429              1098.0073              1180.1955
 Red. masses --      1.3834                 2.2347                 5.8173
 Frc consts  --      0.8970                 1.5874                 4.7739
 IR Inten    --      0.1822                66.1139                 2.9542

                     52                     53                     54
                      A                      A                      A
 Frequencies --   1214.8640              1215.1157              1223.0820
 Red. masses --      2.6647                 2.6733                 2.3961
 Frc consts  --      2.3172                 2.3255                 2.1118
 IR Inten    --      0.0466                 9.2600                 0.0001

                     55                     56                     57
                      A                      A                      A
 Frequencies --   1225.8287              1264.1671              1268.9553
 Red. masses --      2.7283                 2.0506                 2.3662
 Frc consts  --      2.4155                 1.9308                 2.2449
 IR Inten    --     18.6485                 0.0010                47.8175

                     58                     59                     60
                      A                      A                      A
 Frequencies --   1272.7047              1323.1130              1373.3914
 Red. masses --      1.6838                 2.4077                 1.2118
 Frc consts  --      1.6069                 2.4834                 1.3467
 IR Inten    --      0.0008                 8.8261                 0.2644

                     61                     62                     63
                      A                      A                      A
 Frequencies --   1373.4259              1378.8965              1381.3590
 Red. masses --      1.2119                 1.2475                 1.2430
 Frc consts  --      1.3469                 1.3975                 1.3974
 IR Inten    --     23.6244                 0.0014                54.4856

                     64                     65                     66
                      A                      A                      A
 Frequencies --   1407.6286              1409.5804              1422.9479
 Red. masses --      1.2632                 1.2897                 4.8951
 Frc consts  --      1.4747                 1.5098                 5.8397
 IR Inten    --     63.5651                 0.0079                 0.0003

                     67                     68                     69
                      A                      A                      A
 Frequencies --   1470.5871              1470.6753              1477.2326
 Red. masses --      1.0467                 1.0468                 2.7459
 Frc consts  --      1.3337                 1.3339                 3.5305
 IR Inten    --      0.0012                 0.4189                 0.0055

                     70                     71                     72
                      A                      A                      A
 Frequencies --   1482.5556              1494.3440              1494.5632
 Red. masses --      1.5089                 1.0464                 1.0463
 Frc consts  --      1.9540                 1.3767                 1.3770
 IR Inten    --    255.4175                 0.0011                 2.1050

                     73                     74                     75
                      A                      A                      A
 Frequencies --   1494.7515              1496.7648              1502.2870
 Red. masses --      1.0846                 1.0656                 1.4425
 Frc consts  --      1.4278                 1.4065                 1.9181
 IR Inten    --      0.0004                10.8649                 0.0089

                     76                     77                     78
                      A                      A                      A
 Frequencies --   1505.3378              1510.3855              1510.4763
 Red. masses --      2.2775                 1.0519                 1.0517
 Frc consts  --      3.0407                 1.4138                 1.4138
 IR Inten    --    124.2647                 6.9829                 0.0049

                     79                     80                     81
                      A                      A                      A
 Frequencies --   1529.1136              1529.3712              1532.3712
 Red. masses --      2.4112                 1.0575                 1.3718
 Frc consts  --      3.3218                 1.4573                 1.8979
 IR Inten    --     67.9995                 0.0090                64.1135

                     82                     83                     84
                      A                      A                      A
 Frequencies --   1635.2299              2990.5414              2990.5868
 Red. masses --      6.8769                 1.0430                 1.0430
 Frc consts  --     10.8343                 5.4956                 5.4961
 IR Inten    --      0.0000                 7.7678                88.0519

                     85                     86                     87
                      A                      A                      A
 Frequencies --   2995.3172              2996.0639              3010.2297
 Red. masses --      1.0421                 1.0418                 1.0365
 Frc consts  --      5.5088                 5.5098                 5.5336
 IR Inten    --    218.6591                 0.0084               203.6444

                     88                     89                     90
                      A                      A                      A
 Frequencies --   3010.8099              3051.0723              3051.2946
 Red. masses --      1.0365                 1.0961                 1.0960
 Frc consts  --      5.5360                 6.0115                 6.0121
 IR Inten    --      0.3076                 0.0064                68.0857

                     91                     92                     93
                      A                      A                      A
 Frequencies --   3053.4966              3053.6082              3065.9084
 Red. masses --      1.0961                 1.0962                 1.0989
 Frc consts  --      6.0213                 6.0221                 6.0857
 IR Inten    --     51.1961                 0.2104               184.8375

                     94                     95                     96
                      A                      A                      A
 Frequencies --   3066.1872              3080.4278              3080.5850
 Red. masses --      1.0989                 1.1015                 1.1015
 Frc consts  --      6.0869                 6.1581                 6.1587
 IR Inten    --      2.5494                15.8318                71.3377

                     97                     98                     99
                      A                      A                      A
 Frequencies --   3118.3650              3118.4145              3120.8931
 Red. masses --      1.0975                 1.0974                 1.0968
 Frc consts  --      6.2877                 6.2878                 6.2940
 IR Inten    --      0.0026                 0.0049                16.2620

                    100                    101                    102
                      A                      A                      A
 Frequencies --   3120.9461              3171.6241              3174.3509
 Red. masses --      1.0967                 1.0870                 1.0880
 Frc consts  --      6.2940                 6.4425                 6.4592
 IR Inten    --      6.8297                31.0752                 0.0200

 - Thermochemistry -
 -------------------
 Temperature   298.150 Kelvin.  Pressure   1.00000 Atm.
 Atom     1 has atomic number  6 and mass  12.00000

 Molecular mass:   220.14633 amu.
 Principal axes and moments of inertia in atomic units:
                           1         2         3
     Eigenvalues --  1698.856785785.460506686.13279
           X            0.88160   0.36447  -0.29991
           Y            0.46872  -0.60128   0.64712
           Z           -0.05553   0.71108   0.70092
 This molecule is an asymmetric top.
 Rotational symmetry number  1.
 Warning -- assumption of classical behavior for rotation
           may cause significant error
 Rotational temperatures (Kelvin)      0.05098     0.01497     0.01295
 Rotational constants (GHZ):           1.06233     0.31194     0.26992
 Zero-point vibrational energy     804360.8 (Joules/Mol)
                                  192.24684 (Kcal/Mol)
 Warning -- explicit consideration of  28 degrees of freedom as
           vibrations may cause significant error
 Vibrational temperatures:     64.94    81.36   123.89   224.48   228.39
          (Kelvin)            241.51   332.82   338.66   338.96   348.63
                              391.99   392.17   413.55   430.14   435.28
                              456.53   463.68   466.36   493.11   542.67
                              562.71   584.09   603.77   667.61   684.94
                              704.87   753.62   754.23   896.84   932.73
                             1011.11  1059.23  1098.63  1164.37  1174.28
                             1245.51  1262.28  1297.89  1329.92  1330.88
                             1341.30  1342.60  1378.21  1378.26  1451.88
                             1489.90  1502.10  1508.31  1509.34  1579.79
                             1698.04  1747.92  1748.28  1759.74  1763.69
                             1818.85  1825.74  1831.14  1903.66  1976.00
                             1976.05  1983.92  1987.47  2025.26  2028.07
                             2047.30  2115.85  2115.97  2125.41  2133.07
                             2150.03  2150.34  2150.61  2153.51  2161.46
                             2165.85  2173.11  2173.24  2200.05  2200.42
                             2204.74  2352.73  4302.72  4302.79  4309.59
                             4310.67  4331.05  4331.88  4389.81  4390.13
                             4393.30  4393.46  4411.16  4411.56  4432.05
                             4432.27  4486.63  4486.70  4490.27  4490.35
                             4563.26  4567.18

 Zero-point correction=                           0.306365 (Hartree/Particle)
 Thermal correction to Energy=                    0.323278
 Thermal correction to Enthalpy=                  0.324222
 Thermal correction to Gibbs Free Energy=         0.263229
 Sum of electronic and zero-point Energies=           -695.929081
 Sum of electronic and thermal Energies=              -695.912168
 Sum of electronic and thermal Enthalpies=            -695.911224
 Sum of electronic and thermal Free Energies=         -695.972217

                     E (Thermal)             CV                S
                      KCal/Mol        Cal/Mol-Kelvin    Cal/Mol-Kelvin
 Total                  202.860             67.134            128.371
 Electronic               0.000              0.000              1.377
 Translational            0.889              2.981             42.070
 Rotational               0.889              2.981             32.552
 Vibrational            201.082             61.173             52.371
 Vibration     1          0.595              1.979              5.020
 Vibration     2          0.596              1.975              4.574
 Vibration     3          0.601              1.959              3.747
 Vibration     4          0.620              1.896              2.597
 Vibration     5          0.621              1.893              2.565
 Vibration     6          0.625              1.882              2.459
 Vibration     7          0.653              1.793              1.869
 Vibration     8          0.655              1.787              1.838
 Vibration     9          0.655              1.786              1.836
 Vibration    10          0.659              1.775              1.786
 Vibration    11          0.675              1.724              1.581
 Vibration    12          0.676              1.724              1.580
 Vibration    13          0.685              1.697              1.489
 Vibration    14          0.692              1.676              1.423
 Vibration    15          0.694              1.669              1.403
 Vibration    16          0.704              1.641              1.324
 Vibration    17          0.707              1.631              1.299
 Vibration    18          0.709              1.627              1.289
 Vibration    19          0.722              1.590              1.199
 Vibration    20          0.748              1.519              1.050
 Vibration    21          0.759              1.489              0.996
 Vibration    22          0.771              1.457              0.941
 Vibration    23          0.782              1.428              0.893
 Vibration    24          0.822              1.330              0.755
 Vibration    25          0.833              1.303              0.721
 Vibration    26          0.846              1.272              0.684
 Vibration    27          0.879              1.197              0.601
 Vibration    28          0.879              1.196              0.600

 Optimization completed.
    -- Stationary point found.
 Normal termination of Gaussian 16 at Thu Jan 18 13:01:15 2024.
