 Q-Chem 5.4, Q-Chem, Inc., Pleasanton, CA (2021)
 Q-Chem 5.4.0 for Intel X86 EM64T Linux

User input:
--------------------------------------------------------------
$molecule
-1 2
C                 -1.2686180000      1.8203100000     -0.8581820000
C                 -2.5574510000      1.1630910000     -0.8026410000
C                 -2.8846650000      0.1161470000      0.0238780000
C                 -1.8536910000     -0.3885880000      0.9307500000
C                 -0.5650530000      0.2686640000      0.8752770000
C                 -0.2377970000      1.3157090000      0.0487300000
O                 -1.0803300000      2.7813940000     -1.6651250000
O                 -2.0421200000     -1.3498110000      1.7375070000
C                  1.1580340000      1.9626430000      0.0487930000
C                  1.0381390000      3.4622550000      0.4142330000
C                  2.1115860000      1.3047360000      1.0640630000
C                  1.7954200000      1.8286260000     -1.3557070000
C                 -4.2804230000     -0.5307730000      0.0239040000
C                 -5.2338710000      0.1270880000     -0.9914300000
C                 -4.9178530000     -0.3967270000      1.4283970000
C                 -4.1606040000     -2.0304400000     -0.3415060000
H                 -3.2798630000      1.5789130000     -1.4956520000
H                  0.1574960000     -0.1469980000      1.5682640000
H                  0.3868510000      3.9732800000     -0.2945180000
H                  2.0274070000      3.9375520000      0.4006360000
H                  0.6205990000      3.5778080000      1.4200280000
H                  1.7366340000      1.3885960000      2.0883190000
H                  3.0866420000      1.8027680000      1.0221380000
H                  2.2679080000      0.2438960000      0.8474400000
H                  2.7856820000      2.3018280000     -1.3708360000
H                  1.9203260000      0.7730030000     -1.6190150000
H                  1.1619620000      2.3025760000     -2.1052270000
H                 -4.8586310000      0.0433720000     -2.0156060000
H                 -5.3904470000      1.1879130000     -0.7748720000
H                 -6.2088960000     -0.3710390000     -0.9497970000
H                 -5.0424720000      0.6588970000      1.6918710000
H                 -4.2845450000     -0.8708850000      2.1779040000
H                 -5.9082520000     -0.8696240000      1.4434580000
H                 -3.7429140000     -2.1460740000     -1.3472230000
H                 -5.1499670000     -2.5055550000     -0.3281580000
H                 -3.5096510000     -2.5415980000      0.3674860000
$end
$rem
MAX_SCF_CYCLES=200
BASIS  =  6-311++G(d,p)
GUI  =  2
JOB_TYPE  =  SP
METHOD  =  B3LYP
SOLVENT_METHOD = COSMO
$end
$solvent
dielectric 37.219
opticaldielectric 1.43
$end

--------------------------------------------------------------

             Standard Nuclear Orientation (Angstroms)
    I     Atom           X                Y                Z
 ----------------------------------------------------------------
    1      C       0.8050230042    -1.2072224764     0.0000239697
    2      C      -0.6427334183    -1.2178730267    -0.0001358343
    3      C      -1.4491825297    -0.1061472391    -0.0000905466
    4      C      -0.8049618180     1.2072686415     0.0000897418
    5      C       0.6426336892     1.2178793408     0.0001220462
    6      C       1.4491676089     0.1060867815     0.0000436209
    7      O       1.4479385548    -2.3012752215     0.0001544382
    8      O      -1.4480581609     2.3012243501     0.0001373072
    9      C       2.9847621022     0.1999874314    -0.0000251791
   10      C       3.5500212355    -0.4951709119    -1.2625600678
   11      C       3.4853126281     1.6568077259     0.0000786235
   12      C       3.5502012872    -0.4954704882     1.2622974934
   13      C      -2.9847096810    -0.1999675396    -0.0000712948
   14      C      -3.4851862001    -1.6567690256    -0.0000692804
   15      C      -3.5501743200     0.4954523529    -1.2624210234
   16      C      -3.5500627974     0.4952190963     1.2624553651
   17      H      -1.0631427082    -2.2170263225    -0.0001372196
   18      H       1.0632389895     2.2169659823     0.0000778013
   19      H       3.2370797711    -1.5386568399    -1.2918063911
   20      H       4.6466383446    -0.4485622116    -1.2639156742
   21      H       3.1886095446     0.0045358907    -2.1675409684
   22      H       3.1463680187     2.2038476126    -0.8845601557
   23      H       4.5809719726     1.6644338232    -0.0003960139
   24      H       3.1470909290     2.2033882133     0.8852901521
   25      H       4.6468067948    -0.4483289314     1.2636695259
   26      H       3.1885179477     0.0037154768     2.1674334302
   27      H       3.2378613210    -1.5391657079     1.2909663691
   28      H      -3.1459234117    -2.2037390012     0.8845066131
   29      H      -3.1471940059    -2.2034754345    -0.8853017193
   30      H      -4.5808488778    -1.6645343011     0.0006807989
   31      H      -3.1882429990    -0.0035157250    -2.1675878861
   32      H      -3.2380623014     1.5392125789    -1.2909911717
   33      H      -4.6467586271     0.4480287237    -1.2639838535
   34      H      -3.1885584971    -0.0043304088     2.1674789974
   35      H      -4.6466699447     0.4482890674     1.2638392325
   36      H      -3.2374901576     1.5388405085     1.2915183652
 ----------------------------------------------------------------

    9    -696.2354820176      7.94e-06  Convergence criterion met
 Total energy in the final basis set =     -696.2354820176
    4    -696.3148320704      4.92e-06  Convergence criterion met
 Total energy in the final basis set =     -696.3148320704

                    Orbital Energies (a.u.)
 --------------------------------------------------------------

 Alpha MOs
 -- Occupied --
-19.0726 -19.0725 -10.2146 -10.2146 -10.1785 -10.1785 -10.1659 -10.1659
-10.1525 -10.1525 -10.1471 -10.1471 -10.1430 -10.1430 -10.1430 -10.1429
 -0.9953  -0.9929  -0.8324  -0.8159  -0.7817  -0.7218  -0.6806  -0.6765
 -0.6725  -0.6725  -0.6665  -0.6073  -0.5687  -0.5402  -0.5112  -0.4769
 -0.4655  -0.4518  -0.4303  -0.4303  -0.4272  -0.4253  -0.4112  -0.4095
 -0.4070  -0.3951  -0.3927  -0.3726  -0.3674  -0.3637  -0.3629  -0.3539
 -0.3532  -0.3489  -0.3309  -0.3269  -0.3235  -0.3220  -0.3192  -0.3133
 -0.2726  -0.2430  -0.2360  -0.2294  -0.1574

 Beta MOs
 -- Occupied --
-19.0658 -19.0657 -10.2130 -10.2130 -10.1786 -10.1786 -10.1648 -10.1648
-10.1516 -10.1516 -10.1472 -10.1471 -10.1429 -10.1429 -10.1429 -10.1429
 -0.9835  -0.9808  -0.8285  -0.8149  -0.7789  -0.7196  -0.6772  -0.6762
 -0.6723  -0.6722  -0.6592  -0.6044  -0.5651  -0.5390  -0.5084  -0.4751
 -0.4630  -0.4511  -0.4285  -0.4269  -0.4268  -0.4248  -0.4105  -0.4042
 -0.3977  -0.3899  -0.3857  -0.3725  -0.3632  -0.3616  -0.3569  -0.3514
 -0.3512  -0.3325  -0.3301  -0.3249  -0.3218  -0.3198  -0.3187  -0.3127
 -0.2417  -0.2356  -0.2300  -0.2238

          Ground-State Mulliken Net Atomic Charges

     Atom                 Charge (a.u.)    Spin (a.u.)
  --------------------------------------------------------
      1 C                    -0.897475       0.107694
      2 C                    -0.401690       0.052606
      3 C                     1.093902       0.107518
      4 C                    -0.897731       0.107716
      5 C                    -0.402008       0.052724
      6 C                     1.094054       0.107675
      7 O                    -0.491816       0.238851
      8 O                    -0.491742       0.238883
      9 C                     0.559500      -0.017580
     10 C                    -0.699887       0.011775
     11 C                    -0.563933      -0.002843
     12 C                    -0.699829       0.011778
     13 C                     0.559209      -0.017541
     14 C                    -0.563530      -0.002843
     15 C                    -0.699688       0.011768
     16 C                    -0.699842       0.011763
     17 H                     0.199693      -0.008527
     18 H                     0.199711      -0.008533
     19 H                     0.176595      -0.001789
     20 H                     0.154549       0.000455
     21 H                     0.140308       0.000937
     22 H                     0.140747      -0.000292
     23 H                     0.177233      -0.000069
     24 H                     0.140770      -0.000292
     25 H                     0.154513       0.000454
     26 H                     0.140280       0.000939
     27 H                     0.176715      -0.001787
     28 H                     0.140693      -0.000293
     29 H                     0.140702      -0.000290
     30 H                     0.177212      -0.000069
     31 H                     0.140315       0.000938
     32 H                     0.176507      -0.001785
     33 H                     0.154542       0.000451
     34 H                     0.140232       0.000937
     35 H                     0.154515       0.000453
     36 H                     0.176676      -0.001785
  --------------------------------------------------------
  Sum of atomic charges =    -1.000000

                    Cartesian Multipole Moments
 -----------------------------------------------------------------
    Charge (ESU x 10^10)
                -4.8032
    Dipole Moment (Debye)
         X      -0.0004      Y       0.0005      Z      -0.0022
       Tot       0.0023
    Quadrupole Moments (Debye-Ang)
        XX    -114.0117     XY      19.0294     YY    -134.1360
        XZ      -0.0012     YZ       0.0004     ZZ    -105.9907

 Total job time:  132.73s(wall), 802.88s(cpu)
        *  Thank you very much for using Q-Chem.  Have a nice day.  *
