 Gaussian 16, Revision A.03,
 Gaussian 16:  ES64L-G16RevA.03 25-Dec-2016

 --------------------------------------
 #P UB3LYP/6-311++G(d,p) nosym opt freq
 --------------------------------------

 -------
 Radical
 -------
 Symbolic Z-matrix:
 Charge = -1 Multiplicity = 2

 SCF Done:  E(UB3LYP) =  -1140.54905019     A.U. after   22 cycles
 SCF Done:  E(UB3LYP) =  -1140.54905032     A.U. after   11 cycles
 SCF Done:  E(UB3LYP) =  -1140.54905037     A.U. after   11 cycles
 SCF Done:  E(UB3LYP) =  -1140.54905063     A.U. after   10 cycles
 Optimization completed.
    -- Stationary point found.
 Normal termination of Gaussian 16 at Sun Jan  7 07:09:01 2024.

 ----------------------------------------------------------------------
 #P Geom=AllCheck Guess=TCheck SCRF=Check GenChk UB3LYP/6-311++G(d,p) F
 req
 ----------------------------------------------------------------------

 Structure from the checkpoint file:  "208-rad.chk"
 -------
 Radical
 -------
 Charge = -1 Multiplicity = 2

                          Input orientation:
 ---------------------------------------------------------------------
 Center     Atomic      Atomic             Coordinates (Angstroms)
 Number     Number       Type             X           Y           Z
 ---------------------------------------------------------------------
      1          8           0        4.609699    1.504268   -1.411771
      2          6           0        3.499701    0.953234   -0.816325
      3          6           0        2.235334    1.197069   -1.315681
      4          6           0        1.106430    0.624334   -0.694325
      5          6           0       -0.222784    0.877220   -1.214787
      6          8           0       -0.418645    1.619018   -2.242489
      7          6           0       -1.336384    0.258892   -0.529859
      8          6           0       -2.650865    0.483504   -1.009900
      9          8           0       -2.885613    1.262118   -2.093145
     10          6           0       -3.758840   -0.085126   -0.390906
     11          8           0       -5.014479    0.155898   -0.885282
     12          6           0       -3.575521   -0.902835    0.738188
     13          8           0       -4.705367   -1.440640    1.312543
     14          6           0       -2.303509   -1.140025    1.229554
     15          6           0       -1.170924   -0.572136    0.614843
     16          6           0        0.153718   -0.826338    1.136390
     17          8           0        0.347082   -1.570175    2.167145
     18          6           0        1.266354   -0.209436    0.452940
     19          6           0        2.577825   -0.439770    0.940859
     20          8           0        2.813703   -1.218092    2.024198
     21          6           0        3.668760    0.134315    0.312600
     22          8           0        4.952621   -0.081923    0.778131
     23          1           0        5.380752    1.210237   -0.910654
     24          1           0        2.099759    1.826957   -2.184795
     25          1           0       -1.951615    1.567453   -2.380153
     26          1           0       -4.884443    0.735196   -1.650292
     27          1           0       -4.425164   -1.970765    2.065545
     28          1           0       -2.151954   -1.769762    2.100494
     29          1           0        1.876044   -1.522051    2.307895
     30          1           0        4.868328   -0.660643    1.549039
 ---------------------------------------------------------------------

 SCF Done:  E(UB3LYP) =  -1140.54905063     A.U. after    1 cycles

 Alpha  occ. eigenvalues --  -19.06588 -19.05994 -19.05739 -19.04850 -19.02953
 Alpha  occ. eigenvalues --  -19.02693 -18.97740 -18.97659 -10.13426 -10.13282
 Alpha  occ. eigenvalues --  -10.12893 -10.12618 -10.12450 -10.12190 -10.12065
 Alpha  occ. eigenvalues --  -10.12056 -10.06826 -10.06794 -10.06602 -10.06530
 Alpha  occ. eigenvalues --  -10.06254 -10.05789  -0.98464  -0.97586  -0.96104
 Alpha  occ. eigenvalues --   -0.96012  -0.94228  -0.93734  -0.89169  -0.88995
 Alpha  occ. eigenvalues --   -0.75573  -0.74002  -0.67914  -0.64395  -0.63465
 Alpha  occ. eigenvalues --   -0.63289  -0.56946  -0.55579  -0.53459  -0.52631
 Alpha  occ. eigenvalues --   -0.49114  -0.46900  -0.45241  -0.44597  -0.43342
 Alpha  occ. eigenvalues --   -0.42132  -0.40246  -0.38461  -0.38045  -0.36872
 Alpha  occ. eigenvalues --   -0.34907  -0.34800  -0.34005  -0.33102  -0.31956
 Alpha  occ. eigenvalues --   -0.31326  -0.31055  -0.30508  -0.30362  -0.29577
 Alpha  occ. eigenvalues --   -0.29081  -0.28505  -0.27679  -0.26985  -0.26957
 Alpha  occ. eigenvalues --   -0.26192  -0.26098  -0.25831  -0.25064  -0.24137
 Alpha  occ. eigenvalues --   -0.20544  -0.20123  -0.15121  -0.13982  -0.13840
 Alpha  occ. eigenvalues --   -0.12416  -0.11416  -0.10978  -0.03134
 Alpha virt. eigenvalues --    0.06687   0.07200   0.07348   0.09264   0.09910
 Alpha virt. eigenvalues --    0.10268   0.11068   0.11811   0.12175   0.13608
 Alpha virt. eigenvalues --    0.14098   0.14627   0.14738   0.15068   0.16449

  Beta  occ. eigenvalues --  -19.06565 -19.05984 -19.05721 -19.04817 -19.02931
  Beta  occ. eigenvalues --  -19.02672 -18.97264 -18.97172 -10.13426 -10.13257
  Beta  occ. eigenvalues --  -10.12867 -10.12596 -10.12384 -10.12108 -10.11826
  Beta  occ. eigenvalues --  -10.11820 -10.06761 -10.06743 -10.06598 -10.06518
  Beta  occ. eigenvalues --  -10.06171 -10.05717  -0.98409  -0.97536  -0.96048
  Beta  occ. eigenvalues --   -0.95960  -0.94122  -0.93615  -0.88378  -0.88180
  Beta  occ. eigenvalues --   -0.75315  -0.73882  -0.67562  -0.64054  -0.63322
  Beta  occ. eigenvalues --   -0.63130  -0.56290  -0.55433  -0.53313  -0.52491
  Beta  occ. eigenvalues --   -0.48936  -0.46775  -0.45187  -0.44482  -0.43196
  Beta  occ. eigenvalues --   -0.42023  -0.40137  -0.38285  -0.37892  -0.36801
  Beta  occ. eigenvalues --   -0.34753  -0.34407  -0.33719  -0.32861  -0.31847
  Beta  occ. eigenvalues --   -0.31232  -0.30795  -0.30140  -0.29695  -0.29135
  Beta  occ. eigenvalues --   -0.28937  -0.28048  -0.27608  -0.26865  -0.26313
  Beta  occ. eigenvalues --   -0.26079  -0.26037  -0.24831  -0.24164  -0.23933
  Beta  occ. eigenvalues --   -0.20121  -0.18688  -0.14718  -0.13582  -0.12623
  Beta  occ. eigenvalues --   -0.11357  -0.10917  -0.10390
  Beta virt. eigenvalues --    0.02421   0.07208   0.07344   0.07955   0.09275
  Beta virt. eigenvalues --    0.09914   0.11084   0.11149   0.12157   0.12183
  Beta virt. eigenvalues --    0.13616   0.14121   0.14631   0.14834   0.15080

 Mulliken charges and spin densities:
               1          2
     1  O   -0.267376   0.004162
     2  C   -0.441484   0.014232
     3  C   -0.280694   0.069693
     4  C    0.764424   0.029577
     5  C   -0.724255   0.118400
     6  O   -0.425781   0.179195
     7  C    0.662479  -0.002798
     8  C   -0.115774   0.033400
     9  O   -0.461504   0.007910
    10  C   -0.191472   0.058769
    11  O   -0.297817   0.008696
    12  C   -0.389043  -0.003627
    13  O   -0.260533   0.002943
    14  C   -0.075259   0.085450
    15  C    0.793726   0.018602
    16  C   -0.603409   0.131119
    17  O   -0.443383   0.174796
    18  C    0.561089  -0.011468
    19  C   -0.150482   0.037721
    20  O   -0.456491   0.008259
    21  C   -0.056478   0.048731
    22  O   -0.345447   0.005289
    23  H    0.270123  -0.000259
    24  H    0.181831  -0.004299
    25  H    0.396466  -0.004049
    26  H    0.286958  -0.000344
    27  H    0.259701  -0.000383
    28  H    0.131034  -0.005461
    29  H    0.385802  -0.004030
    30  H    0.293050  -0.000225
 Sum of Mulliken charges =  -1.00000   1.00000

 Dipole moment (field-independent basis, Debye):
    X=              1.6409    Y=             -1.2754    Z=              1.9415  Tot=              2.8441
 Quadrupole moment (field-independent basis, Debye-Ang):
   XX=           -174.1955   YY=           -138.2936   ZZ=           -144.2365
   XY=             -2.3975   XZ=             -2.5700   YZ=              9.5688

  Exact polarizability: 360.716  22.320 151.732   5.162 -68.986 192.289
 Approx polarizability: 540.135  30.867 271.511   9.731-148.974 360.621

                      1                      2                      3
                      A                      A                      A
 Frequencies --     41.6821                69.0678               110.6427
 Red. masses --      9.6318                 7.9203                10.9676
 Frc consts  --      0.0099                 0.0223                 0.0791
 IR Inten    --      1.1576                 0.2702                 0.0051

                      4                      5                      6
                      A                      A                      A
 Frequencies --    128.8151               144.1254               151.0364
 Red. masses --      8.3200                10.4492                 7.4266
 Frc consts  --      0.0813                 0.1279                 0.0998
 IR Inten    --      0.0001                 0.0644                 3.8994

                      7                      8                      9
                      A                      A                      A
 Frequencies --    161.6443               189.3427               254.2090
 Red. masses --      9.6947                 8.4274                 1.2616
 Frc consts  --      0.1492                 0.1780                 0.0480
 IR Inten    --      0.3137                 0.1905                84.7083

                     10                     11                     12
                      A                      A                      A
 Frequencies --    259.4517               267.7895               284.8777
 Red. masses --      7.6814                 6.4362                 4.6301
 Frc consts  --      0.3047                 0.2719                 0.2214
 IR Inten    --      3.7441                 1.6164                19.9583

                     13                     14                     15
                      A                      A                      A
 Frequencies --    290.5245               293.6483               308.8595
 Red. masses --      3.5501                 5.7629                 7.0141
 Frc consts  --      0.1765                 0.2928                 0.3942
 IR Inten    --     15.9847                15.1738                11.9911

                     16                     17                     18
                      A                      A                      A
 Frequencies --    313.3423               341.1547               345.0281
 Red. masses --      2.1416                 2.0475                 5.6653
 Frc consts  --      0.1239                 0.1404                 0.3974
 IR Inten    --     66.9802                64.5376                 0.4374

                     19                     20                     21
                      A                      A                      A
 Frequencies --    366.0120               376.1407               377.6954
 Red. masses --      9.0925                 3.1560                 6.7740
 Frc consts  --      0.7177                 0.2631                 0.5694
 IR Inten    --      0.7011                47.3200                 1.2686

                     22                     23                     24
                      A                      A                      A
 Frequencies --    411.4099               418.7572               440.2564
 Red. masses --     11.4269                 1.1698                 1.4615
 Frc consts  --      1.1395                 0.1209                 0.1669
 IR Inten    --     46.0702                 7.8980               107.1940

                     25                     26                     27
                      A                      A                      A
 Frequencies --    450.9697               475.6233               490.3735
 Red. masses --      7.4769                 7.5965                12.8331
 Frc consts  --      0.8959                 1.0125                 1.8182
 IR Inten    --     71.4053                 0.0456                 0.0729

                     28                     29                     30
                      A                      A                      A
 Frequencies --    529.8044               542.6751               562.0615
 Red. masses --     10.3948                10.8415                 5.7667
 Frc consts  --      1.7191                 1.8811                 1.0734
 IR Inten    --      4.8548                 2.4403                 3.1368

                     31                     32                     33
                      A                      A                      A
 Frequencies --    585.2864               603.4200               627.2679
 Red. masses --      4.5593                 9.5640                 6.1942
 Frc consts  --      0.9202                 2.0518                 1.4360
 IR Inten    --      2.2741                 2.3690                17.0003

                     34                     35                     36
                      A                      A                      A
 Frequencies --    640.3288               650.3161               652.4499
 Red. masses --      8.6352                11.0942                 6.6935
 Frc consts  --      2.0861                 2.7644                 1.6788
 IR Inten    --     13.1407                 0.6839                 2.9917

                     37                     38                     39
                      A                      A                      A
 Frequencies --    659.5570               689.4295               721.0643
 Red. masses --      9.8184                 5.8183                 8.6313
 Frc consts  --      2.5165                 1.6294                 2.6441
 IR Inten    --      0.0944               179.2286                 5.4286

                     40                     41                     42
                      A                      A                      A
 Frequencies --    722.5087               786.0174               818.5588
 Red. masses --      6.0127                 6.5057                 7.2070
 Frc consts  --      1.8493                 2.3681                 2.8451
 IR Inten    --     16.1682                35.8019                 6.2117

                     43                     44                     45
                      A                      A                      A
 Frequencies --    826.9954               860.6954               875.8197
 Red. masses --      1.4269                 1.4040                 6.6694
 Frc consts  --      0.5750                 0.6128                 3.0142
 IR Inten    --     14.9675                20.8274                 0.3680

                     46                     47                     48
                      A                      A                      A
 Frequencies --    974.7198               988.2206              1008.7327
 Red. masses --      1.0516                 1.0528                 4.0729
 Frc consts  --      0.5887                 0.6058                 2.4418
 IR Inten    --     63.6621                75.3684               164.9848

                     49                     50                     51
                      A                      A                      A
 Frequencies --   1044.7538              1075.5490              1105.6252
 Red. masses --      5.4744                 8.8393                 4.3696
 Frc consts  --      3.5206                 6.0246                 3.1471
 IR Inten    --     17.0750                66.0841               148.7725

                     52                     53                     54
                      A                      A                      A
 Frequencies --   1172.8946              1180.8758              1190.8642
 Red. masses --      1.5191                 1.6540                 4.0534
 Frc consts  --      1.2313                 1.3589                 3.3868
 IR Inten    --     54.5272                19.1007                46.8275

                     55                     56                     57
                      A                      A                      A
 Frequencies --   1223.2086              1242.1745              1263.9440
 Red. masses --      1.8367                 1.7754                 4.9408
 Frc consts  --      1.6192                 1.6140                 4.6505
 IR Inten    --    216.0785               418.7451               226.2204

                     58                     59                     60
                      A                      A                      A
 Frequencies --   1276.5754              1300.1813              1334.1839
 Red. masses --      3.5617                 3.5003                 2.7183
 Frc consts  --      3.4198                 3.4863                 2.8509
 IR Inten    --     92.3354                75.1039               249.7048

                     61                     62                     63
                      A                      A                      A
 Frequencies --   1345.1407              1365.1125              1384.7348
 Red. masses --      2.9261                 3.4143                 2.6358
 Frc consts  --      3.1195                 3.7488                 2.9778
 IR Inten    --     91.0568               341.6262               398.2898

                     64                     65                     66
                      A                      A                      A
 Frequencies --   1391.5687              1414.7779              1448.4147
 Red. masses --      5.3564                 3.2025                 5.5503
 Frc consts  --      6.1113                 3.7768                 6.8605
 IR Inten    --     46.2257               152.0626                34.4596

                     67                     68                     69
                      A                      A                      A
 Frequencies --   1463.7138              1479.7847              1500.1236
 Red. masses --      4.7959                 3.4856                 3.6287
 Frc consts  --      6.0538                 4.4971                 4.8112
 IR Inten    --    515.0862                 7.8147               805.4998

                     70                     71                     72
                      A                      A                      A
 Frequencies --   1510.2337              1568.6906              1592.4937
 Red. masses --      4.0256                 2.9366                 3.5239
 Frc consts  --      5.4097                 4.2576                 5.2654
 IR Inten    --     29.5276                81.3355                23.0879

                     73                     74                     75
                      A                      A                      A
 Frequencies --   1615.0762              1634.1794              1659.4114
 Red. masses --      5.1912                 5.9890                 3.5064
 Frc consts  --      7.9782                 9.4234                 5.6888
 IR Inten    --    228.8755                 0.0893                42.8163

                     76                     77                     78
                      A                      A                      A
 Frequencies --   1673.2419              2672.0166              2700.8489
 Red. masses --      3.9655                 1.0779                 1.0780
 Frc consts  --      6.5413                 4.5343                 4.6331
 IR Inten    --     90.9623               467.0926               691.2178

                     79                     80                     81
                      A                      A                      A
 Frequencies --   3163.1618              3208.0657              3746.5964
 Red. masses --      1.0894                 1.0902                 1.0649
 Frc consts  --      6.4223                 6.6105                 8.8072
 IR Inten    --     15.4138                 5.1892                74.9967

                     82                     83                     84
                      A                      A                      A
 Frequencies --   3762.2368              3793.2555              3834.9226
 Red. masses --      1.0653                 1.0655                 1.0658
 Frc consts  --      8.8837                 9.0332                 9.2351
 IR Inten    --     87.3328               107.4067                49.8525

 - Thermochemistry -
 -------------------
 Temperature   298.150 Kelvin.  Pressure   1.00000 Atm.
 Atom     1 has atomic number  8 and mass  15.99491

 Molecular mass:   304.02192 amu.
 Principal axes and moments of inertia in atomic units:
                           1         2         3
     Eigenvalues --  2917.34218********************
           X            0.99664   0.01835  -0.07985
           Y            0.07512  -0.59377   0.80112
           Z            0.03271   0.80442   0.59316
 This molecule is an asymmetric top.
 Rotational symmetry number  1.
 Warning -- assumption of classical behavior for rotation
           may cause significant error
 Rotational temperatures (Kelvin)      0.02969     0.00843     0.00657
 Rotational constants (GHZ):           0.61863     0.17566     0.13681
 Zero-point vibrational energy     528911.2 (Joules/Mol)
                                  126.41280 (Kcal/Mol)
 Warning -- explicit consideration of  32 degrees of freedom as
           vibrations may cause significant error
 Vibrational temperatures:     59.97    99.37   159.19   185.34   207.36
          (Kelvin)            217.31   232.57   272.42   365.75   373.29
                              385.29   409.88   418.00   422.49   444.38
                              450.83   490.85   496.42   526.61   541.18
                              543.42   591.93   602.50   633.43   648.84
                              684.32   705.54   762.27   780.79   808.68
                              842.10   868.19   902.50   921.29   935.66
                              938.73   948.96   991.94  1037.45  1039.53
                             1130.90  1177.72  1189.86  1238.35  1260.11
                             1402.40  1421.83  1451.34  1503.17  1547.48
                             1590.75  1687.53  1699.02  1713.39  1759.92
                             1787.21  1818.53  1836.71  1870.67  1919.59
                             1935.36  1964.09  1992.32  2002.16  2035.55
                             2083.95  2105.96  2129.08  2158.34  2172.89
                             2257.00  2291.24  2323.73  2351.22  2387.52
                             2407.42  3844.44  3885.92  4551.08  4615.69
                             5390.52  5413.02  5457.65  5517.60

 Zero-point correction=                           0.201452 (Hartree/Particle)
 Thermal correction to Energy=                    0.219373
 Thermal correction to Enthalpy=                  0.220317
 Thermal correction to Gibbs Free Energy=         0.156486
 Sum of electronic and zero-point Energies=          -1140.347599
 Sum of electronic and thermal Energies=             -1140.329678
 Sum of electronic and thermal Enthalpies=           -1140.328734
 Sum of electronic and thermal Free Energies=        -1140.392564

                     E (Thermal)             CV                S
                      KCal/Mol        Cal/Mol-Kelvin    Cal/Mol-Kelvin
 Total                  137.658             71.502            134.343
 Electronic               0.000              0.000              1.377
 Translational            0.889              2.981             43.032
 Rotational               0.889              2.981             34.335
 Vibrational            135.881             65.540             55.598
 Vibration     1          0.594              1.981              5.177
 Vibration     2          0.598              1.969              4.180
 Vibration     3          0.606              1.941              3.258
 Vibration     4          0.611              1.924              2.964
 Vibration     5          0.616              1.909              2.748
 Vibration     6          0.618              1.902              2.659
 Vibration     7          0.622              1.889              2.530
 Vibration     8          0.633              1.855              2.234
 Vibration     9          0.665              1.756              1.701
 Vibration    10          0.668              1.747              1.665
 Vibration    11          0.673              1.732              1.610
 Vibration    12          0.683              1.702              1.504
 Vibration    13          0.686              1.691              1.471
 Vibration    14          0.688              1.686              1.453
 Vibration    15          0.698              1.657              1.368
 Vibration    16          0.701              1.648              1.345
 Vibration    17          0.721              1.593              1.207
 Vibration    18          0.723              1.585              1.189
 Vibration    19          0.739              1.542              1.096
 Vibration    20          0.747              1.521              1.055
 Vibration    21          0.748              1.518              1.048
 Vibration    22          0.775              1.445              0.922
 Vibration    23          0.782              1.429              0.896
 Vibration    24          0.800              1.382              0.826
 Vibration    25          0.810              1.359              0.793
 Vibration    26          0.832              1.304              0.722
 Vibration    27          0.846              1.271              0.683
 Vibration    28          0.885              1.184              0.588
 Vibration    29          0.898              1.156              0.560
 Vibration    30          0.918              1.113              0.520
 Vibration    31          0.942              1.063              0.476
 Vibration    32          0.962              1.025              0.444

 Optimization completed.
    -- Stationary point found.
 Normal termination of Gaussian 16 at Sun Jan  7 08:34:50 2024.
