 Gaussian 16, Revision A.03,
 Gaussian 16:  ES64L-G16RevA.03 25-Dec-2016

 ----------------------------------------------------------------
 #P UB3LYP/6-311++G(d,p) SCRF=(PCM,Solvent=n,n-DiMethylFormamide)
 ----------------------------------------------------------------

 ------------------
 Radical PCM in DMF
 ------------------
 Symbolic Z-matrix:
 Charge = -1 Multiplicity = 2

                         Standard orientation:
 ---------------------------------------------------------------------
 Center     Atomic      Atomic             Coordinates (Angstroms)
 Number     Number       Type             X           Y           Z
 ---------------------------------------------------------------------
      1          8           0        4.693434   -1.896258    0.000385
      2          6           0        3.563940   -1.112338    0.000007
      3          6           0        2.306761   -1.684121   -0.000095
      4          6           0        1.157585   -0.866853    0.000033
      5          6           0       -0.164194   -1.462287    0.000021
      6          8           0       -0.335164   -2.733336   -0.000299
      7          6           0       -1.299594   -0.566504    0.000189
      8          6           0       -2.607574   -1.112341    0.000028
      9          8           0       -2.816239   -2.450707    0.000054
     10          6           0       -3.735653   -0.298990   -0.000060
     11          8           0       -4.984192   -0.864924   -0.000167
     12          6           0       -3.579780    1.098440   -0.000068
     13          8           0       -4.728710    1.857143   -0.000119
     14          6           0       -2.314727    1.660005    0.000060
     15          6           0       -1.162043    0.851032    0.000167
     16          6           0        0.155113    1.448029    0.000224
     17          8           0        0.323535    2.722695    0.000168
     18          6           0        1.289490    0.554262    0.000245
     19          6           0        2.594282    1.109773    0.000076
     20          8           0        2.804099    2.448064   -0.000149
     21          6           0        3.705504    0.285389   -0.000071
     22          8           0        4.983150    0.813969   -0.000457
     23          1           0        5.455208   -1.303135    0.000266
     24          1           0        2.192328   -2.759948   -0.000016
     25          1           0       -1.871174   -2.844161    0.000262
     26          1           0       -4.834500   -1.821652   -0.000101
     27          1           0       -4.466189    2.783232    0.000300
     28          1           0       -2.184300    2.737531    0.000053
     29          1           0        1.855385    2.837965    0.000212
     30          1           0        4.879275    1.776015   -0.000832
 ---------------------------------------------------------------------

 SCF Done:  E(UB3LYP) =  -1140.62120880     A.U. after   18 cycles

 The electronic state is 2-A.
 Alpha  occ. eigenvalues --  -19.16601 -19.16261 -19.16181 -19.15917 -19.14088
 Alpha  occ. eigenvalues --  -19.14075 -19.09455 -19.09434 -10.24435 -10.24327
 Alpha  occ. eigenvalues --  -10.24038 -10.23935 -10.23717 -10.23673 -10.23421
 Alpha  occ. eigenvalues --  -10.23393 -10.18230 -10.18141 -10.17983 -10.17941
 Alpha  occ. eigenvalues --  -10.17273 -10.17070  -1.08784  -1.08415  -1.06786
 Alpha  occ. eigenvalues --   -1.06617  -1.05060  -1.05006  -1.00910  -1.00713
 Alpha  occ. eigenvalues --   -0.86915  -0.85212  -0.79105  -0.75693  -0.74665
 Alpha  occ. eigenvalues --   -0.74420  -0.68216  -0.66523  -0.64491  -0.63643
 Alpha  occ. eigenvalues --   -0.60113  -0.57654  -0.55993  -0.55666  -0.54201
 Alpha  occ. eigenvalues --   -0.53391  -0.51272  -0.49649  -0.49257  -0.47995
 Alpha  occ. eigenvalues --   -0.45967  -0.45890  -0.45014  -0.44537  -0.43080
 Alpha  occ. eigenvalues --   -0.42684  -0.42276  -0.41735  -0.41522  -0.40779
 Alpha  occ. eigenvalues --   -0.39804  -0.39403  -0.38680  -0.38110  -0.37866
 Alpha  occ. eigenvalues --   -0.37323  -0.37289  -0.36825  -0.36261  -0.35584
 Alpha  occ. eigenvalues --   -0.31784  -0.31625  -0.26881  -0.25680  -0.25003
 Alpha  occ. eigenvalues --   -0.23845  -0.22489  -0.22157  -0.14661
 Alpha virt. eigenvalues --   -0.04684  -0.01158  -0.00952  -0.00737   0.00634
 Alpha virt. eigenvalues --    0.00688   0.01568   0.01731   0.03667   0.04160
 Alpha virt. eigenvalues --    0.04361   0.04460   0.05647   0.05794   0.06299

  Beta  occ. eigenvalues --  -19.16573 -19.16249 -19.16165 -19.15883 -19.14060
  Beta  occ. eigenvalues --  -19.14048 -19.09005 -19.08988 -10.24432 -10.24312
  Beta  occ. eigenvalues --  -10.24005 -10.23902 -10.23465 -10.23416 -10.23351
  Beta  occ. eigenvalues --  -10.23316 -10.18180 -10.18099 -10.17985 -10.17941
  Beta  occ. eigenvalues --  -10.17179 -10.16981  -1.08722  -1.08344  -1.06733
  Beta  occ. eigenvalues --   -1.06549  -1.04940  -1.04884  -1.00177  -0.99960
  Beta  occ. eigenvalues --   -0.86657  -0.85090  -0.78757  -0.75329  -0.74498
  Beta  occ. eigenvalues --   -0.74277  -0.67547  -0.66379  -0.64322  -0.63521
  Beta  occ. eigenvalues --   -0.59927  -0.57513  -0.55939  -0.55542  -0.54072
  Beta  occ. eigenvalues --   -0.53285  -0.51142  -0.49482  -0.49103  -0.47922
  Beta  occ. eigenvalues --   -0.45812  -0.45395  -0.44727  -0.44303  -0.42909
  Beta  occ. eigenvalues --   -0.42332  -0.42195  -0.41413  -0.40833  -0.40147
  Beta  occ. eigenvalues --   -0.39706  -0.38965  -0.38608  -0.37786  -0.37260
  Beta  occ. eigenvalues --   -0.37184  -0.37121  -0.35954  -0.35816  -0.35403
  Beta  occ. eigenvalues --   -0.31396  -0.30219  -0.26509  -0.25311  -0.23901
  Beta  occ. eigenvalues --   -0.22732  -0.21908  -0.21658
  Beta virt. eigenvalues --   -0.09184  -0.03339  -0.01139  -0.00723  -0.00116
  Beta virt. eigenvalues --    0.00648   0.01091   0.01596   0.01741   0.03683
  Beta virt. eigenvalues --    0.04185   0.04470   0.04490   0.05805   0.06375

 Mulliken charges and spin densities:
               1          2
     1  O   -0.291547   0.004107
     2  C   -0.442404   0.006336
     3  C   -0.305071   0.083596
     4  C    0.692521   0.017072
     5  C   -0.623800   0.137584
     6  O   -0.495060   0.164065
     7  C    0.653252  -0.011661
     8  C   -0.081788   0.039860
     9  O   -0.476629   0.009541
    10  C   -0.231743   0.055130
    11  O   -0.326814   0.008778
    12  C   -0.468886  -0.001934
    13  O   -0.297946   0.003661
    14  C   -0.019205   0.091041
    15  C    0.735368   0.012611
    16  C   -0.491322   0.143392
    17  O   -0.505915   0.162949
    18  C    0.563779  -0.015677
    19  C   -0.119839   0.041777
    20  O   -0.467586   0.009560
    21  C   -0.066681   0.050464
    22  O   -0.343955   0.006938
    23  H    0.305069  -0.000245
    24  H    0.187001  -0.005078
    25  H    0.408759  -0.003629
    26  H    0.317740  -0.000315
    27  H    0.309092  -0.000386
    28  H    0.165427  -0.005675
    29  H    0.397622  -0.003641
    30  H    0.320562  -0.000220
 Sum of Mulliken charges =  -1.00000   1.00000

 Dipole moment (field-independent basis, Debye):
    X=              2.0016    Y=              3.0156    Z=              0.0014  Tot=              3.6194
 Quadrupole moment (field-independent basis, Debye-Ang):
   XX=           -164.3734   YY=           -151.1230   ZZ=           -131.0211
   XY=             -2.0999   XZ=             -0.0077   YZ=             -0.0016

 Normal termination of Gaussian 16 at Tue Jan 16 05:58:53 2024.
