 Q-Chem 5.4, Q-Chem, Inc., Pleasanton, CA (2021)
 Q-Chem 5.4.0 for Intel X86 EM64T Linux

User input:
--------------------------------------------------------------
$molecule
-1 2
O                  4.6096990000      1.5042680000     -1.4117710000
C                  3.4997010000      0.9532340000     -0.8163250000
C                  2.2353340000      1.1970690000     -1.3156810000
C                  1.1064300000      0.6243340000     -0.6943250000
C                 -0.2227840000      0.8772200000     -1.2147870000
O                 -0.4186450000      1.6190180000     -2.2424890000
C                 -1.3363840000      0.2588920000     -0.5298590000
C                 -2.6508650000      0.4835040000     -1.0099000000
O                 -2.8856130000      1.2621180000     -2.0931450000
C                 -3.7588400000     -0.0851260000     -0.3909060000
O                 -5.0144790000      0.1558980000     -0.8852820000
C                 -3.5755210000     -0.9028350000      0.7381880000
O                 -4.7053670000     -1.4406400000      1.3125430000
C                 -2.3035090000     -1.1400250000      1.2295540000
C                 -1.1709240000     -0.5721360000      0.6148430000
C                  0.1537180000     -0.8263380000      1.1363900000
O                  0.3470820000     -1.5701750000      2.1671450000
C                  1.2663540000     -0.2094360000      0.4529400000
C                  2.5778250000     -0.4397700000      0.9408590000
O                  2.8137030000     -1.2180920000      2.0241980000
C                  3.6687600000      0.1343150000      0.3126000000
O                  4.9526210000     -0.0819230000      0.7781310000
H                  5.3807520000      1.2102370000     -0.9106540000
H                  2.0997590000      1.8269570000     -2.1847950000
H                 -1.9516150000      1.5674530000     -2.3801530000
H                 -4.8844430000      0.7351960000     -1.6502920000
H                 -4.4251640000     -1.9707650000      2.0655450000
H                 -2.1519540000     -1.7697620000      2.1004940000
H                  1.8760440000     -1.5220510000      2.3078950000
H                  4.8683280000     -0.6606430000      1.5490390000
$end
$rem
MAX_SCF_CYCLES=200
BASIS  =  6-311++G(d,p)
GUI  =  2
JOB_TYPE  =  SP
METHOD  =  B3LYP
SOLVENT_METHOD = PCM
$end
$pcm
theory = CPCM
$end
$solvent
dielectric 37.219
opticaldielectric 1.43
$end

--------------------------------------------------------------

             Standard Nuclear Orientation (Angstroms)
    I     Atom           X                Y                Z
 ----------------------------------------------------------------
    1      O       4.6096990000     1.5042680000    -1.4117710000
    2      C       3.4997010000     0.9532340000    -0.8163250000
    3      C       2.2353340000     1.1970690000    -1.3156810000
    4      C       1.1064300000     0.6243340000    -0.6943250000
    5      C      -0.2227840000     0.8772200000    -1.2147870000
    6      O      -0.4186450000     1.6190180000    -2.2424890000
    7      C      -1.3363840000     0.2588920000    -0.5298590000
    8      C      -2.6508650000     0.4835040000    -1.0099000000
    9      O      -2.8856130000     1.2621180000    -2.0931450000
   10      C      -3.7588400000    -0.0851260000    -0.3909060000
   11      O      -5.0144790000     0.1558980000    -0.8852820000
   12      C      -3.5755210000    -0.9028350000     0.7381880000
   13      O      -4.7053670000    -1.4406400000     1.3125430000
   14      C      -2.3035090000    -1.1400250000     1.2295540000
   15      C      -1.1709240000    -0.5721360000     0.6148430000
   16      C       0.1537180000    -0.8263380000     1.1363900000
   17      O       0.3470820000    -1.5701750000     2.1671450000
   18      C       1.2663540000    -0.2094360000     0.4529400000
   19      C       2.5778250000    -0.4397700000     0.9408590000
   20      O       2.8137030000    -1.2180920000     2.0241980000
   21      C       3.6687600000     0.1343150000     0.3126000000
   22      O       4.9526210000    -0.0819230000     0.7781310000
   23      H       5.3807520000     1.2102370000    -0.9106540000
   24      H       2.0997590000     1.8269570000    -2.1847950000
   25      H      -1.9516150000     1.5674530000    -2.3801530000
   26      H      -4.8844430000     0.7351960000    -1.6502920000
   27      H      -4.4251640000    -1.9707650000     2.0655450000
   28      H      -2.1519540000    -1.7697620000     2.1004940000
   29      H       1.8760440000    -1.5220510000     2.3078950000
   30      H       4.8683280000    -0.6606430000     1.5490390000
 ----------------------------------------------------------------

    8   -1140.6297050429      6.52e-06  Convergence criterion met
 Total energy in the final basis set =    -1140.6297050429

                    Orbital Energies (a.u.)
 --------------------------------------------------------------

 Alpha MOs
 -- Occupied --
-19.1636 -19.1602 -19.1599 -19.1581 -19.1408 -19.1407 -19.0952 -19.0950
-10.2434 -10.2426 -10.2402 -10.2392 -10.2380 -10.2375 -10.2336 -10.2334
-10.1823 -10.1812 -10.1800 -10.1795 -10.1715 -10.1702  -1.0861  -1.0830
 -1.0659  -1.0651  -1.0498  -1.0492  -1.0098  -1.0078  -0.8690  -0.8517
 -0.7906  -0.7567  -0.7462  -0.7436  -0.6819  -0.6642  -0.6443  -0.6356
 -0.6003  -0.5749  -0.5585  -0.5556  -0.5409  -0.5335  -0.5122  -0.4962
 -0.4921  -0.4792  -0.4590  -0.4587  -0.4496  -0.4455  -0.4309  -0.4271
 -0.4223  -0.4172  -0.4143  -0.4077  -0.3969  -0.3934  -0.3861  -0.3809
 -0.3780  -0.3728  -0.3724  -0.3677  -0.3622  -0.3559  -0.3176  -0.3164
 -0.2697  -0.2575  -0.2496  -0.2386  -0.2246  -0.2211  -0.1468

 Beta MOs
 -- Occupied --
-19.1633 -19.1600 -19.1597 -19.1577 -19.1405 -19.1404 -19.0910 -19.0908
-10.2433 -10.2425 -10.2398 -10.2388 -10.2354 -10.2349 -10.2329 -10.2327
-10.1818 -10.1808 -10.1800 -10.1795 -10.1705 -10.1693  -1.0854  -1.0822
 -1.0653  -1.0644  -1.0485  -1.0481  -1.0028  -1.0007  -0.8664  -0.8504
 -0.7871  -0.7531  -0.7445  -0.7422  -0.6752  -0.6627  -0.6425  -0.6344
 -0.5984  -0.5734  -0.5580  -0.5543  -0.5396  -0.5324  -0.5109  -0.4945
 -0.4906  -0.4784  -0.4575  -0.4535  -0.4466  -0.4433  -0.4288  -0.4240
 -0.4215  -0.4133  -0.4081  -0.4010  -0.3960  -0.3890  -0.3854  -0.3773
 -0.3722  -0.3713  -0.3705  -0.3595  -0.3583  -0.3542  -0.3138  -0.3028
 -0.2662  -0.2540  -0.2388  -0.2274  -0.2185  -0.2163

          Ground-State Mulliken Net Atomic Charges

     Atom                 Charge (a.u.)    Spin (a.u.)
  --------------------------------------------------------
      1 O                    -0.305551       0.004168
      2 C                    -0.449954       0.005500
      3 C                    -0.322835       0.085676
      4 C                     0.670383       0.015147
      5 C                    -0.593917       0.142415
      6 O                    -0.513205       0.158361
      7 C                     0.653408      -0.012726
      8 C                    -0.065035       0.040678
      9 O                    -0.484726       0.009971
     10 C                    -0.236012       0.054916
     11 O                    -0.340477       0.008937
     12 C                    -0.502326      -0.001755
     13 O                    -0.316640       0.003817
     14 C                    -0.010633       0.092674
     15 C                     0.725747       0.010682
     16 C                    -0.465114       0.147955
     17 O                    -0.523499       0.157624
     18 C                     0.563549      -0.015629
     19 C                    -0.106574       0.042131
     20 O                    -0.475675       0.009886
     21 C                    -0.063639       0.051193
     22 O                    -0.353022       0.007307
     23 H                     0.319860      -0.000244
     24 H                     0.196398      -0.005187
     25 H                     0.417001      -0.003400
     26 H                     0.332357      -0.000324
     27 H                     0.328899      -0.000387
     28 H                     0.181368      -0.005733
     29 H                     0.405825      -0.003418
     30 H                     0.334038      -0.000233
  --------------------------------------------------------
  Sum of atomic charges =    -1.000000

                    Cartesian Multipole Moments
 -----------------------------------------------------------------
    Charge (ESU x 10^10)
                -4.8032
    Dipole Moment (Debye)
         X       2.2753      Y      -1.8429      Z       2.7927
       Tot       4.0463
    Quadrupole Moments (Debye-Ang)
        XX    -162.9504     XY      -0.7205     YY    -138.1412
        XZ      -3.3013     YZ       9.4524     ZZ    -144.2883

 Total job time:  145.47s(wall), 567.08s(cpu)
        *  Thank you very much for using Q-Chem.  Have a nice day.  *
