 Q-Chem 5.4, Q-Chem, Inc., Pleasanton, CA (2021)
 Q-Chem 5.4.0 for Intel X86 EM64T Linux

User input:
--------------------------------------------------------------
$molecule
-1 2
O                  2.7719960000     -2.7466590000     -1.3782930000
C                  2.2217780000     -1.7560060000     -0.8257030000
C                  0.7962250000     -1.5996630000     -0.7546590000
C                  0.1426630000     -0.5340420000     -0.1607630000
C                 -1.3765510000     -0.4993310000     -0.1608270000
C                 -1.9490730000      0.7024460000     -0.9472320000
C                 -3.4847350000      0.6947880000     -0.9689480000
C                 -4.0705990000      0.6454570000      0.4494910000
C                 -3.5140730000     -0.5501890000      1.2358760000
C                 -1.9784700000     -0.5451410000      1.2625620000
C                  0.8907910000      0.5426330000      0.4568270000
O                  0.3373240000      1.5353670000      1.0112420000
C                  2.3606170000      0.4286940000      0.4106300000
C                  3.1505630000      1.4411150000      0.9924310000
C                  4.5321260000      1.3713210000      0.9696400000
C                  5.1718120000      0.2753110000      0.3578410000
C                  4.4143670000     -0.7288480000     -0.2187700000
C                  3.0073920000     -0.6748960000     -0.2052050000
H                  0.2161030000     -2.3977290000     -1.2127240000
H                 -1.7105240000     -1.4103020000     -0.6795890000
H                 -1.5837360000      1.6218400000     -0.4812930000
H                 -1.5584770000      0.6816090000     -1.9707330000
H                 -3.8582890000      1.5783280000     -1.5012800000
H                 -3.8402930000     -0.1804890000     -1.5319400000
H                 -3.8102430000      1.5725630000      0.9764750000
H                 -5.1664010000      0.6008050000      0.4097050000
H                 -3.8707140000     -1.4802750000      0.7697660000
H                 -3.9086480000     -0.5454960000      2.2595240000
H                 -1.6085020000     -1.4365970000      1.7811920000
H                 -1.6143430000      0.3246180000      1.8164280000
H                  2.6327190000      2.2728990000      1.4562880000
H                  5.1246060000      2.1609550000      1.4230870000
H                  6.2565420000      0.2202760000      0.3397160000
H                  4.8760470000     -1.5853620000     -0.6973530000
$end
$rem
MAX_SCF_CYCLES=200
BASIS  =  6-311++G(d,p)
GUI  =  2
JOB_TYPE  =  SP
METHOD  =  B3LYP
SOLVENT_METHOD = PCM
$end
$pcm
theory = CPCM
$end
$solvent
dielectric 37.219
opticaldielectric 1.43
$end

--------------------------------------------------------------

             Standard Nuclear Orientation (Angstroms)
    I     Atom           X                Y                Z
 ----------------------------------------------------------------
    1      O       2.7719960000    -2.7466590000    -1.3782930000
    2      C       2.2217780000    -1.7560060000    -0.8257030000
    3      C       0.7962250000    -1.5996630000    -0.7546590000
    4      C       0.1426630000    -0.5340420000    -0.1607630000
    5      C      -1.3765510000    -0.4993310000    -0.1608270000
    6      C      -1.9490730000     0.7024460000    -0.9472320000
    7      C      -3.4847350000     0.6947880000    -0.9689480000
    8      C      -4.0705990000     0.6454570000     0.4494910000
    9      C      -3.5140730000    -0.5501890000     1.2358760000
   10      C      -1.9784700000    -0.5451410000     1.2625620000
   11      C       0.8907910000     0.5426330000     0.4568270000
   12      O       0.3373240000     1.5353670000     1.0112420000
   13      C       2.3606170000     0.4286940000     0.4106300000
   14      C       3.1505630000     1.4411150000     0.9924310000
   15      C       4.5321260000     1.3713210000     0.9696400000
   16      C       5.1718120000     0.2753110000     0.3578410000
   17      C       4.4143670000    -0.7288480000    -0.2187700000
   18      C       3.0073920000    -0.6748960000    -0.2052050000
   19      H       0.2161030000    -2.3977290000    -1.2127240000
   20      H      -1.7105240000    -1.4103020000    -0.6795890000
   21      H      -1.5837360000     1.6218400000    -0.4812930000
   22      H      -1.5584770000     0.6816090000    -1.9707330000
   23      H      -3.8582890000     1.5783280000    -1.5012800000
   24      H      -3.8402930000    -0.1804890000    -1.5319400000
   25      H      -3.8102430000     1.5725630000     0.9764750000
   26      H      -5.1664010000     0.6008050000     0.4097050000
   27      H      -3.8707140000    -1.4802750000     0.7697660000
   28      H      -3.9086480000    -0.5454960000     2.2595240000
   29      H      -1.6085020000    -1.4365970000     1.7811920000
   30      H      -1.6143430000     0.3246180000     1.8164280000
   31      H       2.6327190000     2.2728990000     1.4562880000
   32      H       5.1246060000     2.1609550000     1.4230870000
   33      H       6.2565420000     0.2202760000     0.3397160000
   34      H       4.8760470000    -1.5853620000    -0.6973530000
 ----------------------------------------------------------------

    8    -770.1508909394      5.98e-06  Convergence criterion met
 Total energy in the final basis set =     -770.1508909394

                    Orbital Energies (a.u.)
 --------------------------------------------------------------

 Alpha MOs
 -- Occupied --
-19.0751 -19.0736 -10.2199 -10.2195 -10.1713 -10.1712 -10.1708 -10.1705
-10.1686 -10.1682 -10.1679 -10.1631 -10.1554 -10.1531 -10.1530 -10.1527
-10.1490 -10.1489  -0.9994  -0.9965  -0.8563  -0.8284  -0.7986  -0.7531
 -0.7483  -0.7290  -0.7166  -0.6689  -0.6226  -0.6105  -0.5984  -0.5799
 -0.5555  -0.5399  -0.5022  -0.4958  -0.4692  -0.4563  -0.4489  -0.4305
 -0.4263  -0.4248  -0.4166  -0.4161  -0.4078  -0.4046  -0.3849  -0.3816
 -0.3679  -0.3678  -0.3667  -0.3484  -0.3473  -0.3362  -0.3313  -0.3292
 -0.3100  -0.2947  -0.2946  -0.2683  -0.2556  -0.2448  -0.2419  -0.2331
 -0.1516

 Beta MOs
 -- Occupied --
-19.0694 -19.0675 -10.2182 -10.2176 -10.1710 -10.1707 -10.1705 -10.1700
-10.1686 -10.1678 -10.1665 -10.1632 -10.1541 -10.1531 -10.1530 -10.1527
-10.1489 -10.1489  -0.9891  -0.9856  -0.8542  -0.8271  -0.7949  -0.7516
 -0.7466  -0.7289  -0.7149  -0.6600  -0.6211  -0.6080  -0.5981  -0.5785
 -0.5537  -0.5391  -0.5000  -0.4933  -0.4669  -0.4556  -0.4481  -0.4302
 -0.4260  -0.4239  -0.4131  -0.4038  -0.4030  -0.4027  -0.3823  -0.3730
 -0.3670  -0.3668  -0.3506  -0.3459  -0.3393  -0.3350  -0.3289  -0.3288
 -0.3096  -0.2939  -0.2924  -0.2492  -0.2454  -0.2369  -0.2367  -0.2279

          Ground-State Mulliken Net Atomic Charges

     Atom                 Charge (a.u.)    Spin (a.u.)
  --------------------------------------------------------
      1 O                    -0.517733       0.208927
      2 C                    -0.511814       0.123984
      3 C                    -0.263765       0.076043
      4 C                     0.466622       0.089686
      5 C                     0.685680      -0.021827
      6 C                    -0.537885       0.015943
      7 C                    -0.376317       0.000970
      8 C                    -0.416425       0.000061
      9 C                    -0.376539       0.000917
     10 C                    -0.535770       0.016174
     11 C                    -0.679428       0.127139
     12 O                    -0.460637       0.235234
     13 C                    -0.168486       0.001128
     14 C                     0.090888       0.048051
     15 C                    -0.493457       0.021906
     16 C                    -0.386921       0.028811
     17 C                     0.042240       0.026822
     18 C                     0.743808       0.022295
     19 H                     0.196361      -0.008198
     20 H                     0.185961      -0.002478
     21 H                     0.175910      -0.001877
     22 H                     0.166285       0.000084
     23 H                     0.172706       0.000530
     24 H                     0.129196      -0.000083
     25 H                     0.115867       0.000060
     26 H                     0.177286      -0.000017
     27 H                     0.129119      -0.000082
     28 H                     0.172901       0.000524
     29 H                     0.166332       0.000083
     30 H                     0.176133      -0.001844
     31 H                     0.171262      -0.002509
     32 H                     0.197948      -0.002019
     33 H                     0.198699      -0.002161
     34 H                     0.163975      -0.002277
  --------------------------------------------------------
  Sum of atomic charges =    -1.000000

                    Cartesian Multipole Moments
 -----------------------------------------------------------------
    Charge (ESU x 10^10)
                -4.8032
    Dipole Moment (Debye)
         X      -8.1268      Y       3.3562      Z       1.1238
       Tot       8.8641
    Quadrupole Moments (Debye-Ang)
        XX    -128.3811     XY      20.2882     YY    -136.6981
        XZ      10.1481     YZ     -11.8162     ZZ    -120.9220

 Total job time:  88.01s(wall), 528.51s(cpu)
        *  Thank you very much for using Q-Chem.  Have a nice day.  *
