 Gaussian 16, Revision A.03,
 Gaussian 16:  ES64L-G16RevA.03 25-Dec-2016

 --------------------------------------
 #P UB3LYP/6-311++G(d,p) nosym opt freq
 --------------------------------------

 -------
 Radical
 -------
 Symbolic Z-matrix:
 Charge = -1 Multiplicity = 2

 SCF Done:  E(UB3LYP) =  -770.072442209     A.U. after   22 cycles
 Optimization completed.
    -- Stationary point found.
 Normal termination of Gaussian 16 at Sun Jan  7 20:23:06 2024.

 ----------------------------------------------------------------------
 #P Geom=AllCheck Guess=TCheck SCRF=Check GenChk UB3LYP/6-311++G(d,p) F
 req
 ----------------------------------------------------------------------

 Structure from the checkpoint file:  "240-rad.chk"
 -------
 Radical
 -------
 Charge = -1 Multiplicity = 2

                          Input orientation:
 ---------------------------------------------------------------------
 Center     Atomic      Atomic             Coordinates (Angstroms)
 Number     Number       Type             X           Y           Z
 ---------------------------------------------------------------------
      1          8           0        2.771996   -2.746659   -1.378293
      2          6           0        2.221778   -1.756006   -0.825703
      3          6           0        0.796225   -1.599663   -0.754659
      4          6           0        0.142663   -0.534042   -0.160763
      5          6           0       -1.376551   -0.499331   -0.160827
      6          6           0       -1.949073    0.702446   -0.947232
      7          6           0       -3.484735    0.694788   -0.968948
      8          6           0       -4.070599    0.645457    0.449491
      9          6           0       -3.514073   -0.550189    1.235876
     10          6           0       -1.978470   -0.545141    1.262562
     11          6           0        0.890791    0.542633    0.456827
     12          8           0        0.337324    1.535367    1.011242
     13          6           0        2.360617    0.428694    0.410630
     14          6           0        3.150563    1.441115    0.992431
     15          6           0        4.532126    1.371321    0.969640
     16          6           0        5.171812    0.275311    0.357841
     17          6           0        4.414367   -0.728848   -0.218770
     18          6           0        3.007392   -0.674896   -0.205205
     19          1           0        0.216103   -2.397729   -1.212724
     20          1           0       -1.710524   -1.410302   -0.679589
     21          1           0       -1.583736    1.621840   -0.481293
     22          1           0       -1.558477    0.681609   -1.970733
     23          1           0       -3.858289    1.578328   -1.501280
     24          1           0       -3.840293   -0.180489   -1.531940
     25          1           0       -3.810243    1.572563    0.976475
     26          1           0       -5.166401    0.600805    0.409705
     27          1           0       -3.870714   -1.480275    0.769766
     28          1           0       -3.908648   -0.545496    2.259524
     29          1           0       -1.608502   -1.436597    1.781192
     30          1           0       -1.614343    0.324618    1.816428
     31          1           0        2.632719    2.272899    1.456288
     32          1           0        5.124606    2.160955    1.423087
     33          1           0        6.256542    0.220276    0.339716
     34          1           0        4.876047   -1.585362   -0.697353
 ---------------------------------------------------------------------

 SCF Done:  E(UB3LYP) =  -770.072442209     A.U. after    1 cycles

 Alpha  occ. eigenvalues --  -18.94077 -18.93943 -10.08908 -10.08673 -10.06903
 Alpha  occ. eigenvalues --  -10.06597 -10.06596 -10.05753 -10.05579 -10.05529
 Alpha  occ. eigenvalues --  -10.04796 -10.04762 -10.04761 -10.04759 -10.04613
 Alpha  occ. eigenvalues --  -10.04517 -10.04273 -10.03086  -0.86504  -0.86113
 Alpha  occ. eigenvalues --   -0.73372  -0.72811  -0.68299  -0.64318  -0.63529
 Alpha  occ. eigenvalues --   -0.62622  -0.60420  -0.54477  -0.51243  -0.50331
 Alpha  occ. eigenvalues --   -0.49093  -0.47084  -0.44835  -0.42666  -0.38363
 Alpha  occ. eigenvalues --   -0.38206  -0.36227  -0.34231  -0.33577  -0.33391
 Alpha  occ. eigenvalues --   -0.33229  -0.30521  -0.29932  -0.29195  -0.28555
 Alpha  occ. eigenvalues --   -0.27967  -0.27451  -0.27009  -0.26427  -0.25599
 Alpha  occ. eigenvalues --   -0.24500  -0.23776  -0.23206  -0.22839  -0.22499
 Alpha  occ. eigenvalues --   -0.21384  -0.20977  -0.19715  -0.19464  -0.14041
 Alpha  occ. eigenvalues --   -0.13192  -0.12306  -0.10674  -0.10065  -0.02051
 Alpha virt. eigenvalues --    0.06986   0.08403   0.08805   0.08945   0.09056
 Alpha virt. eigenvalues --    0.10033   0.10400   0.10704   0.11619   0.12081
 Alpha virt. eigenvalues --    0.12262   0.12520   0.12625   0.13533   0.14349

  Beta  occ. eigenvalues --  -18.93418 -18.93272 -10.08757 -10.08573 -10.06903
  Beta  occ. eigenvalues --  -10.06596 -10.06594 -10.05763 -10.05546 -10.05491
  Beta  occ. eigenvalues --  -10.04809 -10.04758 -10.04755 -10.04754 -10.04558
  Beta  occ. eigenvalues --  -10.04447 -10.04125 -10.02929  -0.85368  -0.84944
  Beta  occ. eigenvalues --   -0.73176  -0.72776  -0.67893  -0.64145  -0.63518
  Beta  occ. eigenvalues --   -0.62474  -0.60226  -0.53646  -0.51071  -0.50313
  Beta  occ. eigenvalues --   -0.48899  -0.46877  -0.44772  -0.42486  -0.38178
  Beta  occ. eigenvalues --   -0.38061  -0.36078  -0.34078  -0.33480  -0.33312
  Beta  occ. eigenvalues --   -0.33215  -0.30409  -0.29855  -0.28424  -0.28351
  Beta  occ. eigenvalues --   -0.27644  -0.27438  -0.26433  -0.25934  -0.25376
  Beta  occ. eigenvalues --   -0.23870  -0.23749  -0.22724  -0.21623  -0.21247
  Beta  occ. eigenvalues --   -0.21237  -0.20882  -0.19441  -0.19373  -0.12582
  Beta  occ. eigenvalues --   -0.11841  -0.10885  -0.10065  -0.09458
  Beta virt. eigenvalues --    0.04669   0.06984   0.08398   0.08834   0.08942
  Beta virt. eigenvalues --    0.09658   0.10031   0.10394   0.11620   0.11769
  Beta virt. eigenvalues --    0.12138   0.12261   0.12522   0.12638   0.13531

 Mulliken charges and spin densities:
               1          2
     1  O   -0.392690   0.244904
     2  C   -0.837753   0.074789
     3  C   -0.220138   0.111821
     4  C    0.649034   0.070217
     5  C    0.695012  -0.026601
     6  C   -0.573037   0.018457
     7  C   -0.346527  -0.000247
     8  C   -0.376860   0.000350
     9  C   -0.346169  -0.000229
    10  C   -0.573024   0.018429
    11  C   -0.793946   0.100732
    12  O   -0.359419   0.249219
    13  C   -0.097803   0.012014
    14  C    0.092071   0.040415
    15  C   -0.440916   0.022196
    16  C   -0.292141   0.033562
    17  C    0.031892   0.013118
    18  C    0.853692   0.041861
    19  H    0.154826  -0.010174
    20  H    0.151845  -0.002809
    21  H    0.206258  -0.001878
    22  H    0.151113  -0.000123
    23  H    0.145774   0.000655
    24  H    0.104907  -0.000134
    25  H    0.107508   0.000045
    26  H    0.144247  -0.000015
    27  H    0.104892  -0.000134
    28  H    0.145791   0.000654
    29  H    0.151069  -0.000111
    30  H    0.206350  -0.001889
    31  H    0.156227  -0.002279
    32  H    0.122830  -0.002071
    33  H    0.123477  -0.002616
    34  H    0.151607  -0.002126
 Sum of Mulliken charges =  -1.00000   1.00000

 Dipole moment (field-independent basis, Debye):
    X=             -7.4817    Y=              2.5775    Z=              0.6947  Tot=              7.9437
 Quadrupole moment (field-independent basis, Debye-Ang):
   XX=           -145.9072   YY=           -135.1589   ZZ=           -121.3800
   XY=             14.3015   XZ=              6.6576   YZ=            -10.4996

  Exact polarizability: 300.928  -2.792 203.882   0.469  38.209 157.787
 Approx polarizability: 399.174 -17.560 364.857  -7.549  90.004 255.946

                      1                      2                      3
                      A                      A                      A
 Frequencies --     45.0845                51.5709                72.2612
 Red. masses --      5.3936                 3.4929                 3.5746
 Frc consts  --      0.0065                 0.0055                 0.0110
 IR Inten    --      2.5356                 0.9026                 0.6713

                      4                      5                      6
                      A                      A                      A
 Frequencies --    132.2310               139.8423               192.6550
 Red. masses --      4.8431                 5.1740                 3.1557
 Frc consts  --      0.0499                 0.0596                 0.0690
 IR Inten    --      3.4112                 2.9694                 2.2461

                      7                      8                      9
                      A                      A                      A
 Frequencies --    195.0697               228.0537               230.3781
 Red. masses --      5.8921                 5.3558                 1.8035
 Frc consts  --      0.1321                 0.1641                 0.0564
 IR Inten    --      0.3913                 2.5727                 0.0059

                     10                     11                     12
                      A                      A                      A
 Frequencies --    265.4691               279.5156               335.9203
 Red. masses --      4.4994                 6.2410                 1.8268
 Frc consts  --      0.1868                 0.2873                 0.1215
 IR Inten    --      0.0403                 1.7720                 0.2454

                     13                     14                     15
                      A                      A                      A
 Frequencies --    373.0796               415.3226               440.2440
 Red. masses --     10.8949                 4.0701                 3.1458
 Frc consts  --      0.8935                 0.4136                 0.3592
 IR Inten    --     12.1494                 0.8271                 0.2121

                     16                     17                     18
                      A                      A                      A
 Frequencies --    444.2777               454.0184               467.7951
 Red. masses --      2.8573                 4.2991                 3.3948
 Frc consts  --      0.3323                 0.5221                 0.4377
 IR Inten    --      2.0551                 0.4577                 1.0771

                     19                     20                     21
                      A                      A                      A
 Frequencies --    475.8273               506.4200               530.5284
 Red. masses --      5.4185                 2.9669                 4.0558
 Frc consts  --      0.7228                 0.4483                 0.6726
 IR Inten    --      0.4361                 2.3468                 0.3905

                     22                     23                     24
                      A                      A                      A
 Frequencies --    572.5761               650.6093               660.1914
 Red. masses --      4.1187                 4.4090                 3.2481
 Frc consts  --      0.7956                 1.0996                 0.8341
 IR Inten    --      5.6337                 1.4749                 5.1543

                     25                     26                     27
                      A                      A                      A
 Frequencies --    700.1688               713.3433               745.7172
 Red. masses --      5.2242                 3.1813                 4.8660
 Frc consts  --      1.5090                 0.9538                 1.5943
 IR Inten    --      0.1891                31.5432                17.6943

                     28                     29                     30
                      A                      A                      A
 Frequencies --    773.6608               794.4697               795.5086
 Red. masses --      1.6361                 2.0514                 3.3489
 Frc consts  --      0.5770                 0.7629                 1.2487
 IR Inten    --     41.5569                 0.3219                11.3074

                     31                     32                     33
                      A                      A                      A
 Frequencies --    796.5864               829.3346               847.4510
 Red. masses --      2.3377                 3.7283                 2.1825
 Frc consts  --      0.8740                 1.5109                 0.9235
 IR Inten    --      0.0689                 5.3860                 0.9644

                     34                     35                     36
                      A                      A                      A
 Frequencies --    871.8531               874.9146               899.1205
 Red. masses --      1.6426                 1.4538                 1.7890
 Frc consts  --      0.7356                 0.6557                 0.8521
 IR Inten    --     18.5216                 0.7543                 0.9243

                     37                     38                     39
                      A                      A                      A
 Frequencies --    899.3188               930.4144               952.3370
 Red. masses --      1.8037                 1.5189                 3.5697
 Frc consts  --      0.8595                 0.7747                 1.9075
 IR Inten    --      0.6482                 0.5783                18.2856

                     40                     41                     42
                      A                      A                      A
 Frequencies --    978.6958               983.9080              1025.2900
 Red. masses --      1.3457                 1.2753                 2.7462
 Frc consts  --      0.7594                 0.7274                 1.7009
 IR Inten    --      1.9255                 0.3217                 6.4870

                     43                     44                     45
                      A                      A                      A
 Frequencies --   1034.9538              1042.4954              1052.3240
 Red. masses --      1.9051                 2.1128                 1.5841
 Frc consts  --      1.2023                 1.3529                 1.0335
 IR Inten    --      3.5415                22.1417                 0.2031

                     46                     47                     48
                      A                      A                      A
 Frequencies --   1085.4867              1088.8808              1098.8397
 Red. masses --      1.8678                 1.3607                 2.7240
 Frc consts  --      1.2966                 0.9506                 1.9378
 IR Inten    --      0.0786                 0.0017                 4.4158

                     49                     50                     51
                      A                      A                      A
 Frequencies --   1128.3540              1152.3136              1160.2724
 Red. masses --      2.0667                 1.5554                 1.9098
 Frc consts  --      1.5503                 1.2168                 1.5148
 IR Inten    --     19.6074                 1.8385                 5.3164

                     52                     53                     54
                      A                      A                      A
 Frequencies --   1183.6292              1193.2207              1225.5361
 Red. masses --      1.9558                 1.4344                 2.4574
 Frc consts  --      1.6144                 1.2033                 2.1746
 IR Inten    --     10.0951                 0.1856                 6.3487

                     55                     56                     57
                      A                      A                      A
 Frequencies --   1239.7469              1253.0172              1284.8322
 Red. masses --      1.8208                 1.5922                 1.2788
 Frc consts  --      1.6488                 1.4729                 1.2438
 IR Inten    --     13.1672                30.9804                 0.3916

                     58                     59                     60
                      A                      A                      A
 Frequencies --   1287.3633              1295.0633              1326.9113
 Red. masses --      1.3119                 1.6897                 1.3011
 Frc consts  --      1.2810                 1.6697                 1.3497
 IR Inten    --      9.1619                 3.2650                 0.1057

                     61                     62                     63
                      A                      A                      A
 Frequencies --   1332.2550              1353.9739              1359.5636
 Red. masses --      1.3873                 9.9266                 1.3628
 Frc consts  --      1.4507                10.7219                 1.4842
 IR Inten    --     11.3340                 5.6772                 0.0058

                     64                     65                     66
                      A                      A                      A
 Frequencies --   1362.4441              1371.3486              1372.8319
 Red. masses --      1.2757                 1.4374                 1.4837
 Frc consts  --      1.3952                 1.5927                 1.6475
 IR Inten    --      2.4159                 0.2300                12.0495

                     67                     68                     69
                      A                      A                      A
 Frequencies --   1381.6093              1411.1462              1459.2964
 Red. masses --      1.8347                 2.2088                 3.3584
 Frc consts  --      2.0634                 2.5915                 4.2137
 IR Inten    --      1.5025                16.2332               151.4315

                     70                     71                     72
                      A                      A                      A
 Frequencies --   1472.0742              1483.1259              1483.8269
 Red. masses --      2.6420                 1.0910                 1.0898
 Frc consts  --      3.3733                 1.4139                 1.4137
 IR Inten    --     47.5266                 0.6749                 3.5034

                     73                     74                     75
                      A                      A                      A
 Frequencies --   1493.3652              1496.3521              1499.6055
 Red. masses --      1.0919                 1.0891                 7.2082
 Frc consts  --      1.4348                 1.4367                 9.5506
 IR Inten    --      8.8687                 4.1176                 0.4329

                     76                     77                     78
                      A                      A                      A
 Frequencies --   1510.2730              1527.7404              1552.2422
 Red. masses --      1.1299                 5.4710                 5.2174
 Frc consts  --      1.5185                 7.5234                 7.4066
 IR Inten    --      6.2076               396.4573                78.6730

                     79                     80                     81
                      A                      A                      A
 Frequencies --   1618.7453              1629.5365              2963.8832
 Red. masses --      7.3907                 6.2016                 1.0816
 Frc consts  --     11.4102                 9.7025                 5.5979
 IR Inten    --      7.0362                18.2179                19.8445

                     82                     83                     84
                      A                      A                      A
 Frequencies --   2974.5565              2976.1121              2989.1506
 Red. masses --      1.0654                 1.0667                 1.0646
 Frc consts  --      5.5542                 5.5665                 5.6046
 IR Inten    --     27.9043                79.6324                38.0326

                     85                     86                     87
                      A                      A                      A
 Frequencies --   3010.6929              3012.7784              3022.0179
 Red. masses --      1.0858                 1.0808                 1.0738
 Frc consts  --      5.7988                 5.7800                 5.7781
 IR Inten    --      8.9119               121.4353               157.3430

                     88                     89                     90
                      A                      A                      A
 Frequencies --   3024.3379              3029.5867              3071.9570
 Red. masses --      1.0777                 1.0987                 1.0991
 Frc consts  --      5.8077                 5.9413                 6.1111
 IR Inten    --     49.6122                54.7224                 1.1282

                     91                     92                     93
                      A                      A                      A
 Frequencies --   3076.4522              3129.7690              3130.8529
 Red. masses --      1.0982                 1.0879                 1.0847
 Frc consts  --      6.1242                 6.2789                 6.2647
 IR Inten    --     41.5234                37.8846                11.6506

                     94                     95                     96
                      A                      A                      A
 Frequencies --   3150.3085              3178.6053              3182.2442
 Red. masses --      1.0912                 1.0915                 1.0924
 Frc consts  --      6.3807                 6.4977                 6.5179
 IR Inten    --     53.4368                15.7971                24.6810

 - Thermochemistry -
 -------------------
 Temperature   298.150 Kelvin.  Pressure   1.00000 Atm.
 Atom     1 has atomic number  8 and mass  15.99491

 Molecular mass:   240.11503 amu.
 Principal axes and moments of inertia in atomic units:
                           1         2         3
     Eigenvalues --  1891.539837565.146618721.73831
           X            0.99844   0.05476  -0.01104
           Y           -0.05310   0.86904  -0.49188
           Z           -0.01734   0.49169   0.87060
 This molecule is an asymmetric top.
 Rotational symmetry number  1.
 Warning -- assumption of classical behavior for rotation
           may cause significant error
 Rotational temperatures (Kelvin)      0.04579     0.01145     0.00993
 Rotational constants (GHZ):           0.95411     0.23856     0.20692
 Zero-point vibrational energy     734500.7 (Joules/Mol)
                                  175.54989 (Kcal/Mol)
 Warning -- explicit consideration of  22 degrees of freedom as
           vibrations may cause significant error
 Vibrational temperatures:     64.87    74.20   103.97   190.25   201.20
          (Kelvin)            277.19   280.66   328.12   331.46   381.95
                              402.16   483.31   536.78   597.56   633.41
                              639.22   653.23   673.05   684.61   728.63
                              763.31   823.81   936.08   949.87  1007.39
                             1026.34  1072.92  1113.13  1143.06  1144.56
                             1146.11  1193.23  1219.29  1254.40  1258.81
                             1293.63  1293.92  1338.66  1370.20  1408.12
                             1415.62  1475.16  1489.07  1499.92  1514.06
                             1561.77  1566.66  1580.99  1623.45  1657.92
                             1669.37  1702.98  1716.78  1763.27  1783.72
                             1802.81  1848.59  1852.23  1863.31  1909.13
                             1916.82  1948.07  1956.11  1960.25  1973.06
                             1975.20  1987.83  2030.32  2099.60  2117.99
                             2133.89  2134.90  2148.62  2152.92  2157.60
                             2172.95  2198.08  2233.33  2329.01  2344.54
                             4264.37  4279.72  4281.96  4300.72  4331.72
                             4334.72  4348.01  4351.35  4358.90  4419.86
                             4426.33  4503.04  4504.60  4532.59  4573.30
                             4578.54

 Zero-point correction=                           0.279757 (Hartree/Particle)
 Thermal correction to Energy=                    0.294329
 Thermal correction to Enthalpy=                  0.295273
 Thermal correction to Gibbs Free Energy=         0.237441
 Sum of electronic and zero-point Energies=           -769.792686
 Sum of electronic and thermal Energies=              -769.778113
 Sum of electronic and thermal Enthalpies=            -769.777169
 Sum of electronic and thermal Free Energies=         -769.835002

                     E (Thermal)             CV                S
                      KCal/Mol        Cal/Mol-Kelvin    Cal/Mol-Kelvin
 Total                  184.694             59.395            121.719
 Electronic               0.000              0.000              1.377
 Translational            0.889              2.981             42.329
 Rotational               0.889              2.981             33.189
 Vibrational            182.917             53.434             44.823
 Vibration     1          0.595              1.979              5.022
 Vibration     2          0.596              1.977              4.756
 Vibration     3          0.598              1.967              4.091
 Vibration     4          0.612              1.921              2.913
 Vibration     5          0.615              1.913              2.806
 Vibration     6          0.635              1.850              2.202
 Vibration     7          0.636              1.847              2.179
 Vibration     8          0.651              1.798              1.894
 Vibration     9          0.652              1.795              1.876
 Vibration    10          0.671              1.736              1.626
 Vibration    11          0.680              1.711              1.537
 Vibration    12          0.717              1.604              1.231
 Vibration    13          0.744              1.527              1.067
 Vibration    14          0.779              1.437              0.908
 Vibration    15          0.800              1.382              0.826
 Vibration    16          0.804              1.374              0.813
 Vibration    17          0.812              1.352              0.784
 Vibration    18          0.825              1.321              0.744
 Vibration    19          0.832              1.304              0.721
 Vibration    20          0.862              1.236              0.642
 Vibration    21          0.885              1.182              0.586
 Vibration    22          0.929              1.091              0.499

 Optimization completed.
    -- Stationary point found.
 Normal termination of Gaussian 16 at Sun Jan  7 21:45:58 2024.
