 Q-Chem 5.4, Q-Chem, Inc., Pleasanton, CA (2021)
 Q-Chem 5.4.0 for Intel X86 EM64T Linux

User input:
--------------------------------------------------------------
$molecule
-1 2
O                 -0.0501910000     -1.5332880000     -2.3532670000
C                 -0.0273680000     -0.8346250000     -1.3131140000
C                  1.2315800000     -0.4550330000     -0.6610090000
C                  2.4360690000     -0.8835860000     -1.2143930000
C                  3.6754580000     -0.5587690000     -0.6451340000
C                  4.9158790000     -0.9916110000     -1.2024450000
C                  6.1115710000     -0.6569670000     -0.6215830000
C                  6.1373800000      0.1377090000      0.5619390000
C                  4.9668780000      0.5727360000      1.1273650000
C                  3.7013170000      0.2461390000      0.5535520000
C                  2.4870210000      0.6750850000      1.1068200000
C                  1.2573350000      0.3498390000      0.5375130000
C                  0.0271090000      0.8347630000      1.1727800000
O                  0.0505050000      1.5337110000      2.2136700000
C                 -1.2310970000      0.4555480000      0.5214480000
C                 -2.4364010000      0.8838450000      1.0745410000
C                 -3.6751550000      0.5587820000      0.5051210000
C                 -4.9160540000      0.9913990000      1.0622120000
C                 -6.1116470000      0.6565280000      0.4811830000
C                 -6.1375800000     -0.1379900000     -0.7020910000
C                 -4.9667640000     -0.5728110000     -1.2673310000
C                 -3.7016910000     -0.2462050000     -0.6937090000
C                 -2.4868920000     -0.6748620000     -1.2466630000
C                 -1.2576550000     -0.3494930000     -0.6773710000
H                  2.3884450000     -1.4868740000     -2.1147740000
H                  4.8928410000     -1.5967570000     -2.1039480000
H                  7.0450850000     -0.9952710000     -1.0597080000
H                  7.0902710000      0.3960850000      1.0124930000
H                  4.9836200000      1.1781290000      2.0288110000
H                  2.4790180000      1.2807110000      2.0068290000
H                 -2.3888460000      1.4871490000      1.9749220000
H                 -4.8934850000      1.5965620000      1.9636910000
H                 -7.0449070000      0.9949970000      0.9196850000
H                 -7.0901590000     -0.3967770000     -1.1531050000
H                 -4.9829910000     -1.1782610000     -2.1688140000
H                 -2.4784990000     -1.2805380000     -2.1467180000
$end
$rem
MAX_SCF_CYCLES=200
SCF_Guess=core
BASIS  =  6-311++G(d,p)
GUI  =  2
JOB_TYPE  =  SP
METHOD  =  B3LYP
THRESH = 14
SCF_CONVERGENCE = 8
SOLVENT_METHOD = COSMO
$end
$solvent
dielectric 37.219
opticaldielectric 1.43
$end

--------------------------------------------------------------

             Standard Nuclear Orientation (Angstroms)
    I     Atom           X                Y                Z
 ----------------------------------------------------------------
    1      O      -0.0002532389     2.7508010225    -0.0000628763
    2      C      -0.0001822210     1.4975775342     0.0000909500
    3      C       1.2458322904     0.7218656555     0.0000375774
    4      C       2.4637154203     1.3982131683     0.0000234570
    5      C       3.6919624519     0.7221538409    -0.0000074570
    6      C       4.9459003139     1.4034994528     0.0000061683
    7      C       6.1301508199     0.7131246522    -0.0000423571
    8      C       6.1300841189    -0.7126734979    -0.0001114055
    9      C       4.9459619719    -1.4032419050    -0.0001257735
   10      C       3.6916123515    -0.7219353457    -0.0000467141
   11      C       2.4639138253    -1.3982276307    -0.0000225538
   12      C       1.2453787305    -0.7220654491     0.0000558897
   13      C      -0.0000652330    -1.4973336498     0.0001504399
   14      O       0.0005710432    -2.7513381421     0.0001518237
   15      C      -1.2453492985    -0.7224870044     0.0001141353
   16      C      -2.4640377586    -1.3984354877     0.0000466427
   17      C      -3.6916410195    -0.7221169287    -0.0000119993
   18      C      -4.9460483662    -1.4031458403    -0.0001080509
   19      C      -6.1301914532    -0.7125076899    -0.0001507781
   20      C      -6.1302536949     0.7129987901    -0.0000938294
   21      C      -4.9458253321     1.4032922858    -0.0000001924
   22      C      -3.6919649010     0.7221481068     0.0000157875
   23      C      -2.4637740038     1.3980095399     0.0000756713
   24      C      -1.2456928018     0.7217993990     0.0000901592
   25      H       2.4357485337     2.4827076377     0.0000454792
   26      H       4.9425681253     2.4895146380     0.0000672134
   27      H       7.0742457710     1.2484154356    -0.0000128109
   28      H       7.0741276133    -1.2479679972    -0.0001533911
   29      H       4.9429931095    -2.4892331807    -0.0001945123
   30      H       2.4362033613    -2.4827068739    -0.0000568578
   31      H      -2.4361404859    -2.4829376230     0.0000352099
   32      H      -4.9431856246    -2.4891420677    -0.0001598137
   33      H      -7.0740371417    -1.2482079823    -0.0002438904
   34      H      -7.0739711047     1.2488985384    -0.0001240076
   35      H      -4.9423397731     2.4893366975     0.0000618988
   36      H      -2.4356720839     2.4825477566     0.0001093007
 ----------------------------------------------------------------

   30    -996.3713779997      7.90e-09  Convergence criterion met
 Total energy in the final basis set =     -996.3713779997
   12    -996.4522933008      8.13e-09  Convergence criterion met
 Total energy in the final basis set =     -996.4522933008

                    Orbital Energies (a.u.)
 --------------------------------------------------------------

 Alpha MOs
 -- Occupied --
-19.0798 -19.0794 -10.2290 -10.2285 -10.1857 -10.1857 -10.1853 -10.1853
-10.1769 -10.1769 -10.1769 -10.1769 -10.1764 -10.1764 -10.1762 -10.1762
-10.1760 -10.1760 -10.1758 -10.1758 -10.1737 -10.1737 -10.1737 -10.1736
 -1.0091  -1.0067  -0.8794  -0.8767  -0.8372  -0.8216  -0.7785  -0.7784
 -0.7713  -0.7393  -0.7318  -0.7256  -0.6647  -0.6622  -0.6232  -0.6182
 -0.5974  -0.5935  -0.5686  -0.5532  -0.5273  -0.5181  -0.5130  -0.4797
 -0.4743  -0.4652  -0.4576  -0.4456  -0.4361  -0.4337  -0.4280  -0.4209
 -0.4201  -0.4180  -0.4154  -0.4044  -0.4020  -0.3970  -0.3862  -0.3820
 -0.3786  -0.3616  -0.3586  -0.3436  -0.3322  -0.3306  -0.3276  -0.3169
 -0.2954  -0.2920  -0.2625  -0.2516  -0.2463  -0.2426  -0.2288  -0.2252
 -0.1341

 Beta MOs
 -- Occupied --
-19.0752 -19.0747 -10.2269 -10.2265 -10.1853 -10.1853 -10.1849 -10.1849
-10.1769 -10.1769 -10.1769 -10.1769 -10.1760 -10.1760 -10.1759 -10.1758
-10.1756 -10.1756 -10.1755 -10.1755 -10.1735 -10.1735 -10.1734 -10.1733
 -1.0008  -0.9982  -0.8780  -0.8759  -0.8348  -0.8208  -0.7773  -0.7770
 -0.7685  -0.7381  -0.7291  -0.7247  -0.6630  -0.6562  -0.6214  -0.6174
 -0.5971  -0.5930  -0.5663  -0.5503  -0.5267  -0.5166  -0.5126  -0.4789
 -0.4717  -0.4639  -0.4570  -0.4451  -0.4353  -0.4330  -0.4205  -0.4182
 -0.4173  -0.4172  -0.4109  -0.4034  -0.4010  -0.3946  -0.3782  -0.3755
 -0.3650  -0.3603  -0.3580  -0.3426  -0.3320  -0.3281  -0.3268  -0.3061
 -0.2923  -0.2873  -0.2493  -0.2474  -0.2430  -0.2383  -0.2220  -0.2197

          Ground-State Mulliken Net Atomic Charges

     Atom                 Charge (a.u.)    Spin (a.u.)
  --------------------------------------------------------
      1 O                    -0.475141       0.173721
      2 C                    -0.628160       0.115710
      3 C                     0.238502       0.023710
      4 C                     0.048238       0.035994
      5 C                     0.092114       0.025847
      6 C                    -0.238667       0.000798
      7 C                    -0.380945       0.021713
      8 C                    -0.380645       0.020590
      9 C                    -0.240548       0.001920
     10 C                     0.095048       0.024682
     11 C                     0.047740       0.038084
     12 C                     0.236111       0.023091
     13 C                    -0.624412       0.117454
     14 O                    -0.476800       0.175371
     15 C                     0.235085       0.023157
     16 C                     0.047132       0.038190
     17 C                     0.092890       0.024717
     18 C                    -0.240109       0.001971
     19 C                    -0.379908       0.020628
     20 C                    -0.380129       0.021822
     21 C                    -0.238374       0.000768
     22 C                     0.092580       0.025963
     23 C                     0.048076       0.035966
     24 C                     0.238583       0.023910
     25 H                     0.152926      -0.002712
     26 H                     0.181105       0.000593
     27 H                     0.209026      -0.001754
     28 H                     0.209017      -0.001681
     29 H                     0.181092       0.000534
     30 H                     0.152848      -0.002862
     31 H                     0.152798      -0.002867
     32 H                     0.181107       0.000534
     33 H                     0.208915      -0.001685
     34 H                     0.208941      -0.001764
     35 H                     0.181118       0.000597
     36 H                     0.152846      -0.002711
  --------------------------------------------------------
  Sum of atomic charges =    -1.000000

                    Cartesian Multipole Moments
 -----------------------------------------------------------------
    Charge (ESU x 10^10)
                -4.8032
    Dipole Moment (Debye)
         X       0.0030      Y       0.0308      Z       0.0011
       Tot       0.0309
    Quadrupole Moments (Debye-Ang)
        XX    -126.0620     XY       0.0046     YY    -167.6192
        XZ       0.0009     YZ       0.0030     ZZ    -148.8152

 Total job time:  789.47s(wall), 5983.61s(cpu)
        *  Thank you very much for using Q-Chem.  Have a nice day.  *
