 Q-Chem 5.4, Q-Chem, Inc., Pleasanton, CA (2021)
 Q-Chem 5.4.0 for Intel X86 EM64T Linux

User input:
--------------------------------------------------------------
$molecule
0 1
N                 -2.5914940000     -2.2768770000      0.4320780000
C                 -2.3339640000     -0.9668800000      0.1610720000
C                 -3.4252490000     -0.0877560000     -0.0322350000
C                 -3.2276540000      1.2454050000     -0.2810160000
C                 -1.9348190000      1.7981520000     -0.3524600000
O                 -1.7898880000      3.1275410000     -0.5966720000
C                 -0.8211970000      0.9673160000     -0.1730040000
C                  0.5558870000      1.5366320000     -0.2484890000
O                  0.7699010000      2.7217590000     -0.4449220000
C                  1.7044970000      0.5980330000     -0.0740590000
C                  3.0071060000      1.1039850000     -0.1500190000
C                  4.0950940000      0.2557860000      0.0064080000
C                  3.8929910000     -1.1085790000      0.2414580000
C                  2.6040040000     -1.6176460000      0.3188540000
C                  1.5023030000     -0.7670190000      0.1614160000
C                  0.1318610000     -1.3325680000      0.2512750000
O                 -0.0035950000     -2.5444500000      0.4626130000
C                 -1.0191410000     -0.4313430000      0.0822120000
H                 -3.5331980000     -2.6215210000      0.3594180000
H                 -1.8060340000     -2.9128360000      0.4938110000
H                 -4.4342790000     -0.4826730000      0.0231430000
H                 -4.0860620000      1.8960310000     -0.4248440000
H                 -2.6631770000      3.5230710000     -0.6943820000
H                  3.1371520000      2.1632750000     -0.3325870000
H                  5.1026480000      0.6518410000     -0.0536440000
H                  4.7437740000     -1.7694800000      0.3636810000
H                  2.4225310000     -2.6691990000      0.5008940000
$end

$rem
BASIS  =  6-311++G(d,p)
GUI  =  2
JOB_TYPE  =  SP
METHOD  =  B3LYP
SCF_CONVERGENCE  = 8
SOLVENT_METHOD = sm12
$end

$smx
solvent dimethylformamide
charges CM5
$end

--------------------------------------------------------------

             Standard Nuclear Orientation (Angstroms)
    I     Atom           X                Y                Z
 ----------------------------------------------------------------
    1      N      -2.5914940000    -2.2768770000     0.4320780000
    2      C      -2.3339640000    -0.9668800000     0.1610720000
    3      C      -3.4252490000    -0.0877560000    -0.0322350000
    4      C      -3.2276540000     1.2454050000    -0.2810160000
    5      C      -1.9348190000     1.7981520000    -0.3524600000
    6      O      -1.7898880000     3.1275410000    -0.5966720000
    7      C      -0.8211970000     0.9673160000    -0.1730040000
    8      C       0.5558870000     1.5366320000    -0.2484890000
    9      O       0.7699010000     2.7217590000    -0.4449220000
   10      C       1.7044970000     0.5980330000    -0.0740590000
   11      C       3.0071060000     1.1039850000    -0.1500190000
   12      C       4.0950940000     0.2557860000     0.0064080000
   13      C       3.8929910000    -1.1085790000     0.2414580000
   14      C       2.6040040000    -1.6176460000     0.3188540000
   15      C       1.5023030000    -0.7670190000     0.1614160000
   16      C       0.1318610000    -1.3325680000     0.2512750000
   17      O      -0.0035950000    -2.5444500000     0.4626130000
   18      C      -1.0191410000    -0.4313430000     0.0822120000
   19      H      -3.5331980000    -2.6215210000     0.3594180000
   20      H      -1.8060340000    -2.9128360000     0.4938110000
   21      H      -4.4342790000    -0.4826730000     0.0231430000
   22      H      -4.0860620000     1.8960310000    -0.4248440000
   23      H      -2.6631770000     3.5230710000    -0.6943820000
   24      H       3.1371520000     2.1632750000    -0.3325870000
   25      H       5.1026480000     0.6518410000    -0.0536440000
   26      H       4.7437740000    -1.7694800000     0.3636810000
   27      H       2.4225310000    -2.6691990000     0.5008940000
 ----------------------------------------------------------------

   15    -819.5690774122      3.54e-09  Convergence criterion met
 Total energy in the final basis set =     -819.6001209891

                    Orbital Energies (a.u.)
 --------------------------------------------------------------

 Alpha MOs
 -- Occupied --
-19.1660 -19.1175 -19.1117 -14.3297 -10.2715 -10.2701 -10.2579 -10.2436
-10.2037 -10.2016 -10.2008 -10.2006 -10.2004 -10.1978 -10.1939 -10.1934
-10.1918 -10.1915  -1.0817  -1.0519  -1.0478  -0.9398  -0.8842  -0.8625
 -0.8086  -0.7724  -0.7692  -0.7509  -0.6848  -0.6671  -0.6513  -0.6172
 -0.5916  -0.5766  -0.5687  -0.5389  -0.5217  -0.5005  -0.4900  -0.4796
 -0.4734  -0.4574  -0.4553  -0.4458  -0.4394  -0.4384  -0.4218  -0.4154
 -0.4101  -0.4020  -0.3818  -0.3813  -0.3721  -0.3673  -0.3630  -0.3081
 -0.2842  -0.2753  -0.2739  -0.2730  -0.2596  -0.2125

          Ground-State Mulliken Net Atomic Charges

     Atom                 Charge (a.u.)
  ----------------------------------------
      1 N                    -0.327763
      2 C                     0.213284
      3 C                     2.143302
      4 C                     1.423025
      5 C                    -0.314024
      6 O                    -0.216794
      7 C                    -0.415793
      8 C                    -1.872775
      9 O                    -0.277945
     10 C                    -1.218148
     11 C                    -0.093222
     12 C                     0.249618
     13 C                     0.287441
     14 C                     0.275942
     15 C                    -0.461519
     16 C                    -1.523835
     17 O                    -0.256378
     18 C                    -0.353854
     19 H                     0.426776
     20 H                     0.271854
     21 H                     0.357865
     22 H                     0.353021
     23 H                     0.331907
     24 H                     0.164892
     25 H                     0.312939
     26 H                     0.326539
     27 H                     0.193646
  ----------------------------------------
  Sum of atomic charges =     0.000000

                    Cartesian Multipole Moments
 -----------------------------------------------------------------
    Charge (ESU x 10^10)
                 0.0000
    Dipole Moment (Debye)
         X      -4.7865      Y      -1.5691      Z      -0.1163
       Tot       5.0385
    Quadrupole Moments (Debye-Ang)
        XX     -61.0526     XY      -5.7720     YY    -107.5686
        XZ       2.5716     YZ       0.4496     ZZ    -107.6609

 Total job time:  572.28s(wall), 4299.42s(cpu)
        *  Thank you very much for using Q-Chem.  Have a nice day.  *
