 Gaussian 16, Revision A.03,
 Gaussian 16:  ES64L-G16RevA.03 25-Dec-2016

 --------------------------------------
 #P UB3LYP/6-311++G(d,p) nosym opt freq
 --------------------------------------

 --------
 Oxidized
 --------
 Symbolic Z-matrix:
 Charge =  0 Multiplicity = 1

 SCF Done:  E(UB3LYP) =  -819.572556833     A.U. after   16 cycles
 Optimization completed.
    -- Stationary point found.
 Normal termination of Gaussian 16 at Wed Dec 27 19:51:59 2023.

 ----------------------------------------------------------------------
 #P Geom=AllCheck Guess=TCheck SCRF=Check GenChk UB3LYP/6-311++G(d,p) F
 req
 ----------------------------------------------------------------------

 Structure from the checkpoint file:  "181.chk"
 --------
 Oxidized
 --------
 Charge =  0 Multiplicity = 1

                          Input orientation:
 ---------------------------------------------------------------------
 Center     Atomic      Atomic             Coordinates (Angstroms)
 Number     Number       Type             X           Y           Z
 ---------------------------------------------------------------------
      1          7           0       -2.591494   -2.276877    0.432078
      2          6           0       -2.333964   -0.966880    0.161072
      3          6           0       -3.425249   -0.087756   -0.032235
      4          6           0       -3.227654    1.245405   -0.281016
      5          6           0       -1.934819    1.798152   -0.352460
      6          8           0       -1.789888    3.127541   -0.596672
      7          6           0       -0.821197    0.967316   -0.173004
      8          6           0        0.555887    1.536632   -0.248489
      9          8           0        0.769901    2.721759   -0.444922
     10          6           0        1.704497    0.598033   -0.074059
     11          6           0        3.007106    1.103985   -0.150019
     12          6           0        4.095094    0.255786    0.006408
     13          6           0        3.892991   -1.108579    0.241458
     14          6           0        2.604004   -1.617646    0.318854
     15          6           0        1.502303   -0.767019    0.161416
     16          6           0        0.131861   -1.332568    0.251275
     17          8           0       -0.003595   -2.544450    0.462613
     18          6           0       -1.019141   -0.431343    0.082212
     19          1           0       -3.533198   -2.621521    0.359418
     20          1           0       -1.806034   -2.912836    0.493811
     21          1           0       -4.434279   -0.482673    0.023143
     22          1           0       -4.086062    1.896031   -0.424844
     23          1           0       -2.663177    3.523071   -0.694382
     24          1           0        3.137152    2.163275   -0.332587
     25          1           0        5.102648    0.651841   -0.053644
     26          1           0        4.743774   -1.769480    0.363681
     27          1           0        2.422531   -2.669199    0.500894
 ---------------------------------------------------------------------

 SCF Done:  E(UB3LYP) =  -819.572556833     A.U. after    1 cycles

 Alpha  occ. eigenvalues --  -19.16681 -19.11595 -19.10649 -14.33452 -10.26976
 Alpha  occ. eigenvalues --  -10.26446 -10.25819 -10.24596 -10.20636 -10.20410
 Alpha  occ. eigenvalues --  -10.20305 -10.20229 -10.19717 -10.19580 -10.19199
 Alpha  occ. eigenvalues --  -10.19146 -10.18824 -10.18699  -1.08329  -1.04946
 Alpha  occ. eigenvalues --   -1.04161  -0.94475  -0.88135  -0.86437  -0.80871
 Alpha  occ. eigenvalues --   -0.76947  -0.76802  -0.75315  -0.68516  -0.66744
 Alpha  occ. eigenvalues --   -0.65095  -0.61727  -0.59056  -0.57729  -0.57170
 Alpha  occ. eigenvalues --   -0.54028  -0.52435  -0.50029  -0.49213  -0.48172
 Alpha  occ. eigenvalues --   -0.47369  -0.45826  -0.45314  -0.44134  -0.43865
 Alpha  occ. eigenvalues --   -0.43518  -0.42039  -0.41485  -0.40664  -0.40602
 Alpha  occ. eigenvalues --   -0.38303  -0.38112  -0.37234  -0.36467  -0.35979
 Alpha  occ. eigenvalues --   -0.31115  -0.28450  -0.27216  -0.27115  -0.26816
 Alpha  occ. eigenvalues --   -0.25329  -0.21469
 Alpha virt. eigenvalues --   -0.10550  -0.05817  -0.03525  -0.02088  -0.00973
 Alpha virt. eigenvalues --   -0.00799  -0.00206   0.01164   0.01910   0.02422
 Alpha virt. eigenvalues --    0.03597   0.03832   0.04243   0.04674   0.05192

  Beta  occ. eigenvalues --  -19.16681 -19.11595 -19.10649 -14.33452 -10.26976
  Beta  occ. eigenvalues --  -10.26446 -10.25819 -10.24596 -10.20636 -10.20410
  Beta  occ. eigenvalues --  -10.20305 -10.20229 -10.19717 -10.19580 -10.19199
  Beta  occ. eigenvalues --  -10.19146 -10.18824 -10.18699  -1.08329  -1.04946
  Beta  occ. eigenvalues --   -1.04161  -0.94475  -0.88135  -0.86437  -0.80871
  Beta  occ. eigenvalues --   -0.76947  -0.76802  -0.75315  -0.68516  -0.66744
  Beta  occ. eigenvalues --   -0.65095  -0.61727  -0.59056  -0.57729  -0.57170
  Beta  occ. eigenvalues --   -0.54028  -0.52435  -0.50029  -0.49213  -0.48172
  Beta  occ. eigenvalues --   -0.47369  -0.45826  -0.45314  -0.44134  -0.43865
  Beta  occ. eigenvalues --   -0.43518  -0.42039  -0.41485  -0.40664  -0.40602
  Beta  occ. eigenvalues --   -0.38303  -0.38112  -0.37234  -0.36467  -0.35979
  Beta  occ. eigenvalues --   -0.31115  -0.28450  -0.27216  -0.27115  -0.26816
  Beta  occ. eigenvalues --   -0.25329  -0.21469
  Beta virt. eigenvalues --   -0.10550  -0.05817  -0.03525  -0.02088  -0.00973
  Beta virt. eigenvalues --   -0.00799  -0.00206   0.01164   0.01910   0.02422
  Beta virt. eigenvalues --    0.03597   0.03832   0.04243   0.04674   0.05192

 Mulliken charges and spin densities:
               1          2
     1  N   -0.393907  -0.000000
     2  C    0.166535   0.000000
     3  C   -0.105645  -0.000000
     4  C   -0.302986   0.000000
     5  C   -0.182073  -0.000000
     6  O   -0.157005   0.000000
     7  C    0.436569  -0.000000
     8  C   -0.454240   0.000000
     9  O   -0.208449  -0.000000
    10  C   -0.031932  -0.000000
    11  C    0.200888  -0.000000
    12  C   -0.411176   0.000000
    13  C   -0.448468  -0.000000
    14  C    0.281027   0.000000
    15  C    0.105284   0.000000
    16  C   -0.413864  -0.000000
    17  O   -0.262220   0.000000
    18  C    0.347991   0.000000
    19  H    0.257795   0.000000
    20  H    0.323124   0.000000
    21  H    0.157320  -0.000000
    22  H    0.136163  -0.000000
    23  H    0.258454  -0.000000
    24  H    0.177927  -0.000000
    25  H    0.171401   0.000000
    26  H    0.169977  -0.000000
    27  H    0.181512   0.000000
 Sum of Mulliken charges =  -0.00000   0.00000

 Dipole moment (field-independent basis, Debye):
    X=             -3.3858    Y=             -1.2017    Z=             -0.1481  Tot=              3.5958
 Quadrupole moment (field-independent basis, Debye-Ang):
   XX=            -69.2967   YY=           -107.4718   ZZ=           -107.3931
   XY=             -5.2166   XZ=              2.3376   YZ=              0.5117

  Exact polarizability: 284.261  -5.046 208.176   3.464 -22.098  91.159
 Approx polarizability: 435.475   2.797 393.882   3.214 -46.125 148.844

                      1                      2                      3
                      A                      A                      A
 Frequencies --     26.6324                63.7504               111.0541
 Red. masses --      7.3614                 7.2776                 5.1422
 Frc consts  --      0.0031                 0.0174                 0.0374
 IR Inten    --     10.6704                 0.2989                 1.2358

                      4                      5                      6
                      A                      A                      A
 Frequencies --    123.7448               163.5888               210.4288
 Red. masses --      6.6573                 5.1275                 4.9737
 Frc consts  --      0.0601                 0.0808                 0.1298
 IR Inten    --      9.4391                 8.1858                 8.6465

                      7                      8                      9
                      A                      A                      A
 Frequencies --    224.1937               252.9869               304.7742
 Red. masses --      2.1226                 1.6540                 1.2308
 Frc consts  --      0.0629                 0.0624                 0.0674
 IR Inten    --     76.0650                70.7156                89.1996

                     10                     11                     12
                      A                      A                      A
 Frequencies --    310.0141               336.5601               352.5195
 Red. masses --      6.4542                 5.4327                 4.8387
 Frc consts  --      0.3655                 0.3626                 0.3543
 IR Inten    --      2.7243                 2.9846                12.1909

                     13                     14                     15
                      A                      A                      A
 Frequencies --    374.6644               410.3562               427.8056
 Red. masses --     10.8521                 5.4751                 3.7466
 Frc consts  --      0.8975                 0.5432                 0.4040
 IR Inten    --      4.7120                 3.6581                 3.2821

                     16                     17                     18
                      A                      A                      A
 Frequencies --    429.6765               433.9407               461.2696
 Red. masses --      7.7422                 5.7404                 9.1132
 Frc consts  --      0.8422                 0.6369                 1.1424
 IR Inten    --     21.8962                 1.6214                 4.4632

                     19                     20                     21
                      A                      A                      A
 Frequencies --    489.2334               497.6217               511.4916
 Red. masses --      4.3187                 4.7511                 7.5421
 Frc consts  --      0.6090                 0.6932                 1.1626
 IR Inten    --      4.8078                 0.5687                 0.7104

                     22                     23                     24
                      A                      A                      A
 Frequencies --    578.5060               608.0004               647.4285
 Red. masses --      2.7596                 5.1778                 1.2225
 Frc consts  --      0.5441                 1.1277                 0.3019
 IR Inten    --     41.3546                 5.6084                10.6019

                     25                     26                     27
                      A                      A                      A
 Frequencies --    665.7754               666.6326               713.5400
 Red. masses --      6.2245                 4.0816                 6.5105
 Frc consts  --      1.6256                 1.0687                 1.9530
 IR Inten    --      9.8546                 2.7719                 1.0282

                     28                     29                     30
                      A                      A                      A
 Frequencies --    736.2336               746.6452               769.6858
 Red. masses --      5.8062                 1.8167                 6.9213
 Frc consts  --      1.8543                 0.5967                 2.4158
 IR Inten    --      0.0888                55.2470                 6.0434

                     31                     32                     33
                      A                      A                      A
 Frequencies --    810.7144               815.9547               826.4810
 Red. masses --      4.2553                 2.0340                 2.2386
 Frc consts  --      1.6479                 0.7979                 0.9009
 IR Inten    --      5.7816                35.5264                 9.0611

                     34                     35                     36
                      A                      A                      A
 Frequencies --    877.7310               907.5515               914.1827
 Red. masses --      7.5625                 7.5118                 1.4027
 Frc consts  --      3.4327                 3.6453                 0.6907
 IR Inten    --     52.3174                16.2300                 0.0056

                     37                     38                     39
                      A                      A                      A
 Frequencies --    933.3344               960.4055              1002.4795
 Red. masses --      1.2980                 5.5351                 1.3771
 Frc consts  --      0.6662                 3.0080                 0.8154
 IR Inten    --      0.0027                23.6807                 1.7048

                     40                     41                     42
                      A                      A                      A
 Frequencies --   1016.2701              1036.6780              1059.8008
 Red. masses --      1.3189                 2.8733                 1.7780
 Frc consts  --      0.8025                 1.8193                 1.1766
 IR Inten    --      0.0209                79.0627                 8.9138

                     43                     44                     45
                      A                      A                      A
 Frequencies --   1112.9341              1118.4100              1177.0359
 Red. masses --      2.4085                 1.9424                 1.4652
 Frc consts  --      1.7577                 1.4315                 1.1960
 IR Inten    --      2.4991                16.7111                15.6613

                     46                     47                     48
                      A                      A                      A
 Frequencies --   1185.2175              1198.8486              1217.4604
 Red. masses --      1.5295                 1.2020                 1.7399
 Frc consts  --      1.2659                 1.0178                 1.5195
 IR Inten    --     23.3612                81.2976                34.2851

                     49                     50                     51
                      A                      A                      A
 Frequencies --   1266.2494              1275.5730              1294.7979
 Red. masses --      2.9546                 2.5112                 4.1427
 Frc consts  --      2.7911                 2.4074                 4.0921
 IR Inten    --    277.6786               252.7032               355.8955

                     52                     53                     54
                      A                      A                      A
 Frequencies --   1317.2131              1354.8470              1359.7323
 Red. masses --      2.2302                 3.5686                 7.7307
 Frc consts  --      2.2799                 3.8595                 8.4212
 IR Inten    --     79.9192                41.1632                 0.3971

                     55                     56                     57
                      A                      A                      A
 Frequencies --   1407.6398              1453.2243              1479.2358
 Red. masses --      5.6230                 4.0191                 2.4375
 Frc consts  --      6.5644                 5.0008                 3.1425
 IR Inten    --     35.5456                61.9130                 3.5527

                     58                     59                     60
                      A                      A                      A
 Frequencies --   1488.1028              1508.5976              1576.7660
 Red. masses --      2.4027                 2.5914                 2.6794
 Frc consts  --      3.1349                 3.4748                 3.9249
 IR Inten    --      2.4946                 0.5458               364.1752

                     61                     62                     63
                      A                      A                      A
 Frequencies --   1599.7280              1616.4339              1630.0494
 Red. masses --      3.0052                 5.7585                 5.5438
 Frc consts  --      4.5312                 8.8650                 8.6788
 IR Inten    --     21.2520                 6.7717                50.6734

                     64                     65                     66
                      A                      A                      A
 Frequencies --   1645.3563              1678.5848              1719.5640
 Red. masses --      3.5266                 8.2308                11.5451
 Frc consts  --      5.6251                13.6640                20.1133
 IR Inten    --    181.0284               163.3959               162.9130

                     67                     68                     69
                      A                      A                      A
 Frequencies --   3144.9980              3167.4476              3169.7824
 Red. masses --      1.0879                 1.0869                 1.0941
 Frc consts  --      6.3401                 6.4250                 6.4771
 IR Inten    --     13.7941                 3.9949                14.9981

                     70                     71                     72
                      A                      A                      A
 Frequencies --   3182.5906              3202.2205              3205.1413
 Red. masses --      1.0924                 1.0925                 1.0938
 Frc consts  --      6.5189                 6.6003                 6.6203
 IR Inten    --     15.7635                 2.0966                10.5332

                     73                     74                     75
                      A                      A                      A
 Frequencies --   3507.2027              3698.5011              3814.5936
 Red. masses --      1.0532                 1.0973                 1.0660
 Frc consts  --      7.6325                 8.8434                 9.1395
 IR Inten    --     62.6787                74.4610                79.8085

 - Thermochemistry -
 -------------------
 Temperature   298.150 Kelvin.  Pressure   1.00000 Atm.
 Atom     1 has atomic number  7 and mass  14.00307

 Molecular mass:   239.05824 amu.
 Principal axes and moments of inertia in atomic units:
                           1         2         3
     Eigenvalues --  2530.560444743.496227273.51442
           X            0.98905   0.14708  -0.01212
           Y           -0.14259   0.97356   0.17847
           Z            0.03805  -0.17479   0.98387
 This molecule is an asymmetric top.
 Rotational symmetry number  1.
 Warning -- assumption of classical behavior for rotation
           may cause significant error
 Rotational temperatures (Kelvin)      0.03423     0.01826     0.01191
 Rotational constants (GHZ):           0.71318     0.38047     0.24813
 Zero-point vibrational energy     523871.2 (Joules/Mol)
                                  125.20821 (Kcal/Mol)
 Warning -- explicit consideration of  23 degrees of freedom as
           vibrations may cause significant error
 Vibrational temperatures:     38.32    91.72   159.78   178.04   235.37
          (Kelvin)            302.76   322.56   363.99   438.50   446.04
                              484.23   507.20   539.06   590.41   615.52
                              618.21   624.34   663.66   703.90   715.97
                              735.92   832.34   874.78   931.51   957.90
                              959.14  1026.62  1059.28  1074.26  1107.41
                             1166.44  1173.98  1189.12  1262.86  1305.76
                             1315.30  1342.86  1381.81  1442.34  1462.19
                             1491.55  1524.82  1601.26  1609.14  1693.49
                             1705.26  1724.88  1751.65  1821.85  1835.27
                             1862.93  1895.18  1949.32  1956.35  2025.28
                             2090.87  2128.29  2141.05  2170.54  2268.61
                             2301.65  2325.69  2345.28  2367.30  2415.11
                             2474.07  4524.95  4557.25  4560.61  4579.04
                             4607.28  4611.48  5046.08  5321.32  5488.35

 Zero-point correction=                           0.199532 (Hartree/Particle)
 Thermal correction to Energy=                    0.213533
 Thermal correction to Enthalpy=                  0.214477
 Thermal correction to Gibbs Free Energy=         0.158587
 Sum of electronic and zero-point Energies=           -819.373025
 Sum of electronic and thermal Energies=              -819.359024
 Sum of electronic and thermal Enthalpies=            -819.358080
 Sum of electronic and thermal Free Energies=         -819.413970

                     E (Thermal)             CV                S
                      KCal/Mol        Cal/Mol-Kelvin    Cal/Mol-Kelvin
 Total                  133.994             56.265            117.631
 Electronic               0.000              0.000              0.000
 Translational            0.889              2.981             42.316
 Rotational               0.889              2.981             32.834
 Vibrational            132.216             50.304             42.480
 Vibration     1          0.593              1.984              6.066
 Vibration     2          0.597              1.972              4.338
 Vibration     3          0.607              1.940              3.250
 Vibration     4          0.610              1.929              3.041
 Vibration     5          0.623              1.887              2.508
 Vibration     6          0.643              1.825              2.040
 Vibration     7          0.649              1.804              1.925
 Vibration     8          0.664              1.758              1.710
 Vibration     9          0.696              1.665              1.391
 Vibration    10          0.699              1.655              1.362
 Vibration    11          0.717              1.602              1.228
 Vibration    12          0.729              1.570              1.155
 Vibration    13          0.746              1.524              1.061
 Vibration    14          0.775              1.448              0.925
 Vibration    15          0.789              1.410              0.866
 Vibration    16          0.791              1.406              0.860
 Vibration    17          0.795              1.396              0.846
 Vibration    18          0.819              1.336              0.762
 Vibration    19          0.845              1.274              0.686
 Vibration    20          0.853              1.255              0.664
 Vibration    21          0.867              1.225              0.630
 Vibration    22          0.935              1.078              0.488
 Vibration    23          0.967              1.015              0.436

 Optimization completed.
    -- Stationary point found.
 Normal termination of Gaussian 16 at Wed Dec 27 21:15:55 2023.
