 Q-Chem 5.4, Q-Chem, Inc., Pleasanton, CA (2021)
 Q-Chem 5.4.0 for Intel X86 EM64T Linux

User input:
--------------------------------------------------------------
$molecule
-2 1
C                  1.0080280000      4.2977880000      5.3424610000
C                  1.2297930000      4.0008060000      3.9424480000
C                  0.8424110000      2.8358000000      3.3333400000
C                  0.1462980000      1.7699750000      4.0160520000
C                 -0.0874750000      2.0479370000      5.4090640000
C                  0.3202130000      3.2654000000      6.0505450000
O                  1.4488860000      5.3800880000      5.8781500000
O                 -0.2466480000      0.7222430000      3.3932480000
H                  1.7488380000      4.7726440000      3.3746430000
H                  1.0316620000      2.6690610000      2.2739410000
S                 -1.1174830000      0.8843230000      6.2576960000
C                  0.2349790000      3.4993230000      7.5193170000
O                  0.9767400000      3.0666200000      8.3751240000
O                 -0.7640330000      4.3822940000      7.8404660000
C                 -0.8307770000      4.7409530000      9.2130590000
H                 -1.6568000000      5.4516750000      9.2974060000
H                  0.1018620000      5.2100440000      9.5422840000
H                 -1.0224740000      3.8632550000      9.8381520000
C                 -2.6829260000      0.8479310000      5.3313740000
C                 -2.8395070000      0.0109440000      4.2209900000
C                 -3.7205390000      1.6878870000      5.7432630000
C                 -4.0533660000      0.0205910000      3.5325810000
C                 -4.9286760000      1.6864750000      5.0498170000
C                 -5.1000110000      0.8500250000      3.9401620000
O                 -0.5994750000     -0.5005370000      6.2446090000
O                 -1.4921360000      1.4443040000      7.5817460000
H                 -2.0040100000     -0.5984810000      3.9093730000
H                 -3.5630040000      2.3256150000      6.6048140000
H                 -4.1783770000     -0.6213710000      2.6647460000
H                 -5.7364140000      2.3373920000      5.3730400000
H                 -6.0401570000      0.8522280000      3.3948480000
$end

$rem
BASIS  =  6-311++G(d,p)
GUI  =  2
JOB_TYPE  =  SP
METHOD  =  B3LYP
SCF_CONVERGENCE  = 8
SOLVENT_METHOD = sm12
$end

$smx
solvent dimethylformamide
charges CM5
$end

--------------------------------------------------------------

             Standard Nuclear Orientation (Angstroms)
    I     Atom           X                Y                Z
 ----------------------------------------------------------------
    1      C       1.0080280000     4.2977880000     5.3424610000
    2      C       1.2297930000     4.0008060000     3.9424480000
    3      C       0.8424110000     2.8358000000     3.3333400000
    4      C       0.1462980000     1.7699750000     4.0160520000
    5      C      -0.0874750000     2.0479370000     5.4090640000
    6      C       0.3202130000     3.2654000000     6.0505450000
    7      O       1.4488860000     5.3800880000     5.8781500000
    8      O      -0.2466480000     0.7222430000     3.3932480000
    9      H       1.7488380000     4.7726440000     3.3746430000
   10      H       1.0316620000     2.6690610000     2.2739410000
   11      S      -1.1174830000     0.8843230000     6.2576960000
   12      C       0.2349790000     3.4993230000     7.5193170000
   13      O       0.9767400000     3.0666200000     8.3751240000
   14      O      -0.7640330000     4.3822940000     7.8404660000
   15      C      -0.8307770000     4.7409530000     9.2130590000
   16      H      -1.6568000000     5.4516750000     9.2974060000
   17      H       0.1018620000     5.2100440000     9.5422840000
   18      H      -1.0224740000     3.8632550000     9.8381520000
   19      C      -2.6829260000     0.8479310000     5.3313740000
   20      C      -2.8395070000     0.0109440000     4.2209900000
   21      C      -3.7205390000     1.6878870000     5.7432630000
   22      C      -4.0533660000     0.0205910000     3.5325810000
   23      C      -4.9286760000     1.6864750000     5.0498170000
   24      C      -5.1000110000     0.8500250000     3.9401620000
   25      O      -0.5994750000    -0.5005370000     6.2446090000
   26      O      -1.4921360000     1.4443040000     7.5817460000
   27      H      -2.0040100000    -0.5984810000     3.9093730000
   28      H      -3.5630040000     2.3256150000     6.6048140000
   29      H      -4.1783770000    -0.6213710000     2.6647460000
   30      H      -5.7364140000     2.3373920000     5.3730400000
   31      H      -6.0401570000     0.8522280000     3.3948480000
 ----------------------------------------------------------------

   17   -1389.2665688761      9.72e-09  Convergence criterion met
 Total energy in the final basis set =    -1389.5398132760

                    Orbital Energies (a.u.)
 --------------------------------------------------------------

 Alpha MOs
 -- Occupied --
-89.0302 -19.1459 -19.0955 -19.0937 -19.0923 -19.0332 -19.0203 -10.2871
-10.2130 -10.2037 -10.2018 -10.1907 -10.1905 -10.1905 -10.1888 -10.1869
-10.1848 -10.1726 -10.1559 -10.1548 -10.1538  -8.0933  -6.0564  -6.0553
 -6.0541  -1.0879  -1.0819  -1.0009  -0.9775  -0.9549  -0.9395  -0.8703
 -0.8090  -0.7737  -0.7600  -0.7511  -0.7235  -0.6834  -0.6519  -0.6194
 -0.6141  -0.5942  -0.5601  -0.5452  -0.5266  -0.4910  -0.4807  -0.4713
 -0.4700  -0.4662  -0.4614  -0.4547  -0.4484  -0.4380  -0.4336  -0.4260
 -0.4100  -0.3865  -0.3821  -0.3767  -0.3731  -0.3685  -0.3593  -0.3556
 -0.3479  -0.3405  -0.3270  -0.3177  -0.3027  -0.2920  -0.2837  -0.2823
 -0.2730  -0.2690  -0.2649  -0.2420  -0.2371  -0.2083  -0.1992  -0.1351

          Ground-State Mulliken Net Atomic Charges

     Atom                 Charge (a.u.)
  ----------------------------------------
      1 C                    -1.621169
      2 C                    -0.502962
      3 C                    -0.085284
      4 C                    -0.657277
      5 C                    -0.475202
      6 C                    -0.720559
      7 O                    -0.416407
      8 O                    -0.291153
      9 H                     0.124171
     10 H                     0.172198
     11 S                    -0.642678
     12 C                     1.121002
     13 O                    -0.109423
     14 O                     0.111859
     15 C                     0.265692
     16 H                     0.285794
     17 H                     0.181425
     18 H                     0.194709
     19 C                    -2.427990
     20 C                    -1.022639
     21 C                    -0.588271
     22 C                     0.797423
     23 C                     1.133380
     24 C                     1.860047
     25 O                    -0.077808
     26 O                    -0.101133
     27 H                     0.126284
     28 H                     0.136710
     29 H                     0.364069
     30 H                     0.392940
     31 H                     0.472253
  ----------------------------------------
  Sum of atomic charges =    -2.000000

                    Cartesian Multipole Moments
 -----------------------------------------------------------------
    Charge (ESU x 10^10)
                -9.6064
    Dipole Moment (Debye)
         X      -3.8991      Y     -23.4352      Z     -54.0737
       Tot      59.0625
    Quadrupole Moments (Debye-Ang)
        XX    -149.0836     XY     -31.4427     YY    -247.2940
        XZ     -21.2360     YZ    -131.9619     ZZ    -469.5035

 Total job time:  1003.52s(wall), 7640.19s(cpu)
        *  Thank you very much for using Q-Chem.  Have a nice day.  *
