 Gaussian 16, Revision A.03,
 Gaussian 16:  ES64L-G16RevA.03 25-Dec-2016

 ----------------------------------------------------------------------
 #P UB3LYP/6-311++G(d,p) nosym opt freq SCRF=(PCM,Solvent=n,n-DiMethylF
 ormamide)
 ----------------------------------------------------------------------

 -------
 Reduced
 -------
 Symbolic Z-matrix:
 Charge = -2 Multiplicity = 1

 SCF Done:  E(UB3LYP) =  -5764.86024807     A.U. after   17 cycles
 SCF Done:  E(UB3LYP) =  -5764.86086647     A.U. after   13 cycles
 SCF Done:  E(UB3LYP) =  -5764.86129211     A.U. after   12 cycles
 SCF Done:  E(UB3LYP) =  -5764.86128238     A.U. after   12 cycles
 SCF Done:  E(UB3LYP) =  -5764.86132571     A.U. after   12 cycles
 SCF Done:  E(UB3LYP) =  -5764.86133365     A.U. after   10 cycles
 SCF Done:  E(UB3LYP) =  -5764.86133395     A.U. after    9 cycles
 SCF Done:  E(UB3LYP) =  -5764.86133395     A.U. after    8 cycles
 SCF Done:  E(UB3LYP) =  -5764.86133399     A.U. after    8 cycles
 Optimization completed.
    -- Stationary point found.
 Normal termination of Gaussian 16 at Sat Feb 10 11:16:27 2024.

 ----------------------------------------------------------------------
 #P Geom=AllCheck Guess=TCheck SCRF=Check GenChk UB3LYP/6-311++G(d,p) F
 req
 ----------------------------------------------------------------------

 Structure from the checkpoint file:  "020-an.chk"
 -------
 Reduced
 -------
 Charge = -2 Multiplicity = 1

                          Input orientation:
 ---------------------------------------------------------------------
 Center     Atomic      Atomic             Coordinates (Angstroms)
 Number     Number       Type             X           Y           Z
 ---------------------------------------------------------------------
      1          6           0       -2.026106    0.358663    1.558396
      2          6           0       -2.890487    1.172130    0.738177
      3          6           0       -2.486976    1.478155   -0.567945
      4          6           0       -1.284743    1.077024   -1.225175
      5          6           0       -0.420382    0.263521   -0.404971
      6          6           0       -0.823895   -0.042508    0.901150
      7          8           0       -0.983960    1.404697   -2.444861
      8          8           0       -2.326943    0.030889    2.778041
      9         35           0        0.340450   -1.156241    2.052586
     10         35           0       -3.651370    2.591805   -1.719411
     11          6           0        0.896471   -0.227886   -1.001389
     12          6           0        1.854385    0.929125   -1.344893
     13          6           0        0.681202   -1.162798   -2.207112
     14          6           0       -4.207375    1.663477    1.334567
     15          6           0       -3.992178    2.598490    2.540226
     16          6           0       -5.165199    0.506415    1.678151
     17          1           0        1.394358   -0.822162   -0.234967
     18          1           0        2.079863    1.523322   -0.453254
     19          1           0        1.408832    1.585161   -2.093403
     20          1           0        2.802237    0.539503   -1.734197
     21          1           0        0.097545   -2.042303   -1.915795
     22          1           0        1.643566   -1.515522   -2.596012
     23          1           0        0.147423   -0.641094   -3.002496
     24          1           0       -4.705308    2.257665    0.568107
     25          1           0       -4.954571    2.951172    2.929097
     26          1           0       -3.408584    3.478016    2.248850
     27          1           0       -3.458366    2.076880    3.335649
     28          1           0       -6.113080    0.895989    2.067433
     29          1           0       -4.719593   -0.149538    2.426701
     30          1           0       -5.390635   -0.087857    0.786551
 ---------------------------------------------------------------------

 SCF Done:  E(UB3LYP) =  -5764.86133399     A.U. after    2 cycles

 Alpha  occ. eigenvalues -- -482.79759-482.79759 -62.45043 -62.45043 -56.27036
 Alpha  occ. eigenvalues --  -56.27036 -56.26723 -56.26723 -56.26692 -56.26692
 Alpha  occ. eigenvalues --  -19.01206 -19.01205 -10.17915 -10.17914 -10.17804
 Alpha  occ. eigenvalues --  -10.17803 -10.15365 -10.15365 -10.14226 -10.14225
 Alpha  occ. eigenvalues --  -10.13604 -10.13604 -10.13573 -10.13573  -8.66002
 Alpha  occ. eigenvalues --   -8.66002  -6.48997  -6.48997  -6.47960  -6.47960
 Alpha  occ. eigenvalues --   -6.47871  -6.47871  -2.60116  -2.60116  -2.59836
 Alpha  occ. eigenvalues --   -2.59835  -2.59768  -2.59768  -2.58942  -2.58942
 Alpha  occ. eigenvalues --   -2.58942  -2.58942  -0.93200  -0.92729  -0.81281
 Alpha  occ. eigenvalues --   -0.79445  -0.76329  -0.75869  -0.73411  -0.67628
 Alpha  occ. eigenvalues --   -0.66346  -0.66343  -0.63959  -0.59827  -0.55131
 Alpha  occ. eigenvalues --   -0.52851  -0.50225  -0.47241  -0.43362  -0.42199
 Alpha  occ. eigenvalues --   -0.41930  -0.40482  -0.39853  -0.38911  -0.37994
 Alpha  occ. eigenvalues --   -0.37253  -0.36969  -0.36637  -0.35507  -0.35186
 Alpha  occ. eigenvalues --   -0.32658  -0.32609  -0.32467  -0.31991  -0.31912
 Alpha  occ. eigenvalues --   -0.31534  -0.31094  -0.30826  -0.28197  -0.27555
 Alpha  occ. eigenvalues --   -0.26159  -0.25277  -0.22160  -0.20302  -0.19225
 Alpha  occ. eigenvalues --   -0.19108  -0.12102
 Alpha virt. eigenvalues --   -0.00801   0.00227   0.00858   0.00943   0.01234
 Alpha virt. eigenvalues --    0.02623   0.02704   0.02738   0.02760   0.03505
 Alpha virt. eigenvalues --    0.04590   0.04811   0.05190   0.05200   0.05318

  Beta  occ. eigenvalues -- -482.79759-482.79759 -62.45043 -62.45043 -56.27036
  Beta  occ. eigenvalues --  -56.27036 -56.26723 -56.26723 -56.26692 -56.26692
  Beta  occ. eigenvalues --  -19.01206 -19.01205 -10.17915 -10.17914 -10.17804
  Beta  occ. eigenvalues --  -10.17803 -10.15365 -10.15365 -10.14226 -10.14225
  Beta  occ. eigenvalues --  -10.13604 -10.13604 -10.13573 -10.13573  -8.66002
  Beta  occ. eigenvalues --   -8.66002  -6.48997  -6.48997  -6.47960  -6.47960
  Beta  occ. eigenvalues --   -6.47871  -6.47871  -2.60116  -2.60116  -2.59836
  Beta  occ. eigenvalues --   -2.59835  -2.59768  -2.59768  -2.58942  -2.58942
  Beta  occ. eigenvalues --   -2.58942  -2.58942  -0.93200  -0.92729  -0.81281
  Beta  occ. eigenvalues --   -0.79445  -0.76329  -0.75869  -0.73411  -0.67628
  Beta  occ. eigenvalues --   -0.66346  -0.66343  -0.63959  -0.59827  -0.55131
  Beta  occ. eigenvalues --   -0.52851  -0.50225  -0.47241  -0.43362  -0.42199
  Beta  occ. eigenvalues --   -0.41930  -0.40482  -0.39853  -0.38911  -0.37994
  Beta  occ. eigenvalues --   -0.37253  -0.36969  -0.36637  -0.35507  -0.35186
  Beta  occ. eigenvalues --   -0.32658  -0.32609  -0.32467  -0.31991  -0.31912
  Beta  occ. eigenvalues --   -0.31534  -0.31094  -0.30826  -0.28197  -0.27555
  Beta  occ. eigenvalues --   -0.26159  -0.25277  -0.22160  -0.20302  -0.19225
  Beta  occ. eigenvalues --   -0.19108  -0.12102
  Beta virt. eigenvalues --   -0.00801   0.00227   0.00858   0.00943   0.01234
  Beta virt. eigenvalues --    0.02623   0.02704   0.02738   0.02760   0.03505
  Beta virt. eigenvalues --    0.04590   0.04811   0.05190   0.05200   0.05318

 Mulliken charges and spin densities:
               1          2
     1  C   -1.183154  -0.000000
     2  C    1.347328   0.000000
     3  C   -0.159956   0.000000
     4  C   -1.183134  -0.000000
     5  C    1.347320   0.000000
     6  C   -0.159969   0.000000
     7  O   -0.577113   0.000000
     8  O   -0.577111   0.000000
     9  Br  -0.253832  -0.000000
    10  Br  -0.253832   0.000000
    11  C    0.244369  -0.000000
    12  C   -0.716504   0.000000
    13  C   -0.714946   0.000000
    14  C    0.244367  -0.000000
    15  C   -0.714957   0.000000
    16  C   -0.716496   0.000000
    17  H    0.144697   0.000000
    18  H    0.118323   0.000000
    19  H    0.185569   0.000000
    20  H    0.130472  -0.000000
    21  H    0.117920   0.000000
    22  H    0.129797  -0.000000
    23  H    0.187033   0.000000
    24  H    0.144696  -0.000000
    25  H    0.129804   0.000000
    26  H    0.117924   0.000000
    27  H    0.187030  -0.000000
    28  H    0.130465   0.000000
    29  H    0.185571  -0.000000
    30  H    0.118320   0.000000
 Sum of Mulliken charges =  -2.00000   0.00000

 Dipole moment (field-independent basis, Debye):
    X=             15.9029    Y=             -6.8955    Z=             -1.6003  Tot=             17.4072
 Quadrupole moment (field-independent basis, Debye-Ang):
   XX=           -175.3160   YY=           -151.6497   ZZ=           -191.5530
   XY=             17.4959   XZ=              6.8589   YZ=             19.3405

  Exact polarizability: 330.456 -60.421 270.798  -6.303 -50.059 349.012
 Approx polarizability: 342.662 -58.508 286.996  -8.914 -58.423 386.899

                      1                      2                      3
                      A                      A                      A
 Frequencies --     37.7386                53.0319                64.4701
 Red. masses --      7.5720                 4.2506                 4.1631
 Frc consts  --      0.0064                 0.0070                 0.0102
 IR Inten    --      0.3876                16.8920                 0.0000

                      4                      5                      6
                      A                      A                      A
 Frequencies --     76.1009                91.5389               142.7431
 Red. masses --      3.0717                 3.6144                 6.2139
 Frc consts  --      0.0105                 0.0178                 0.0746
 IR Inten    --      1.4576                 0.0000                 9.0577

                      7                      8                      9
                      A                      A                      A
 Frequencies --    151.8913               167.9714               181.1392
 Red. masses --      5.0535                 4.8636                 3.8394
 Frc consts  --      0.0687                 0.0809                 0.0742
 IR Inten    --      0.0000                 8.1879                10.5710

                     10                     11                     12
                      A                      A                      A
 Frequencies --    186.7809               206.0668               235.6272
 Red. masses --     53.1052                 2.2540                 1.8906
 Frc consts  --      1.0916                 0.0564                 0.0618
 IR Inten    --      0.0000                 0.0000                 0.0008

                     13                     14                     15
                      A                      A                      A
 Frequencies --    237.4395               242.1245               251.5130
 Red. masses --      1.1522                 1.5415                 1.0726
 Frc consts  --      0.0383                 0.0532                 0.0400
 IR Inten    --      2.1286                 0.0000                 1.7236

                     16                     17                     18
                      A                      A                      A
 Frequencies --    254.4679               293.7713               300.7764
 Red. masses --      1.1705                 7.8512                 9.6835
 Frc consts  --      0.0447                 0.3992                 0.5161
 IR Inten    --      0.0000                 0.0000                 1.2157

                     19                     20                     21
                      A                      A                      A
 Frequencies --    313.4130               317.4958               327.7139
 Red. masses --      3.2005                 4.2464                11.2843
 Frc consts  --      0.1852                 0.2522                 0.7140
 IR Inten    --     12.0489                 2.9778                 0.0000

                     22                     23                     24
                      A                      A                      A
 Frequencies --    428.4381               435.4200               465.8955
 Red. masses --      2.7223                 5.3001                 2.7589
 Frc consts  --      0.2944                 0.5920                 0.3528
 IR Inten    --      0.0000                64.8923                10.2582

                     25                     26                     27
                      A                      A                      A
 Frequencies --    473.0313               475.5806               518.7332
 Red. masses --      4.6129                 5.5402                 5.2029
 Frc consts  --      0.6081                 0.7383                 0.8249
 IR Inten    --      0.0000                 0.0000                 0.0000

                     28                     29                     30
                      A                      A                      A
 Frequencies --    597.5674               681.4801               724.7723
 Red. masses --      8.7457                 3.8982                 9.4453
 Frc consts  --      1.8400                 1.0667                 2.9233
 IR Inten    --      0.1756               295.3481                16.7785

                     31                     32                     33
                      A                      A                      A
 Frequencies --    732.8155               749.1892               775.7008
 Red. masses --      5.9144                10.0453                 7.1817
 Frc consts  --      1.8713                 3.3220                 2.5460
 IR Inten    --      0.0000                 0.0000                 0.0000

                     34                     35                     36
                      A                      A                      A
 Frequencies --    844.3014               867.9421               922.1918
 Red. masses --      4.5492                 2.7797                 1.1487
 Frc consts  --      1.9107                 1.2337                 0.5756
 IR Inten    --    235.7104                 0.0000                 1.6336

                     37                     38                     39
                      A                      A                      A
 Frequencies --    922.2043               936.5435               955.3585
 Red. masses --      1.1496                 3.1725                 1.5626
 Frc consts  --      0.5760                 1.6395                 0.8403
 IR Inten    --      5.7162               159.5718                 0.7514

                     40                     41                     42
                      A                      A                      A
 Frequencies --    955.3897              1022.1368              1031.2934
 Red. masses --      1.5618                 2.4035                 1.8463
 Frc consts  --      0.8399                 1.4795                 1.1569
 IR Inten    --      0.0006                 0.0000               241.2170

                     43                     44                     45
                      A                      A                      A
 Frequencies --   1113.0958              1120.0984              1122.2176
 Red. masses --      9.3946                 2.4311                 2.4374
 Frc consts  --      6.8579                 1.7970                 1.8086
 IR Inten    --    415.2813                 0.0000                10.8632

                     46                     47                     48
                      A                      A                      A
 Frequencies --   1134.3152              1183.3454              1196.0354
 Red. masses --      2.0644                 2.0925                 2.1187
 Frc consts  --      1.5650                 1.7264                 1.7857
 IR Inten    --      0.0000                32.0649                 0.0000

                     49                     50                     51
                      A                      A                      A
 Frequencies --   1226.4565              1334.1101              1335.1003
 Red. masses --      4.2678                 3.1269                 2.0585
 Frc consts  --      3.7823                 3.2791                 2.1619
 IR Inten    --     29.9996                 0.0001               497.8263

                     52                     53                     54
                      A                      A                      A
 Frequencies --   1355.6153              1355.6689              1365.9179
 Red. masses --      1.2664                 1.2673                 1.2307
 Frc consts  --      1.3712                 1.3722                 1.3529
 IR Inten    --      0.0001                11.1728                 0.0610

                     55                     56                     57
                      A                      A                      A
 Frequencies --   1365.9759              1368.7034              1376.1804
 Red. masses --      1.2306                 2.0722                 1.7133
 Frc consts  --      1.3529                 2.2872                 1.9118
 IR Inten    --     25.6994                 0.0000               535.4603

                     58                     59                     60
                      A                      A                      A
 Frequencies --   1386.4735              1393.6009              1411.9193
 Red. masses --      1.3975                 3.3295                 2.2710
 Frc consts  --      1.5828                 3.8098                 2.6674
 IR Inten    --      0.0003               360.1503               757.4897

                     61                     62                     63
                      A                      A                      A
 Frequencies --   1418.2482              1469.4192              1469.4502
 Red. masses --      4.5047                 1.0412                 1.0413
 Frc consts  --      5.3386                 1.3246                 1.3247
 IR Inten    --      0.0000                 0.0002                 0.1910

                     64                     65                     66
                      A                      A                      A
 Frequencies --   1482.2623              1483.1916              1500.0046
 Red. masses --      1.0655                 1.0680                 1.0527
 Frc consts  --      1.3793                 1.3842                 1.3955
 IR Inten    --      0.0000                 7.3991                 0.0023

                     67                     68                     69
                      A                      A                      A
 Frequencies --   1500.2336              1509.3904              1510.7320
 Red. masses --      1.0524                 1.0652                 1.0626
 Frc consts  --      1.3955                 1.4298                 1.4288
 IR Inten    --      3.3119                 0.0000                 2.3271

                     70                     71                     72
                      A                      A                      A
 Frequencies --   1566.0086              3001.5810              3001.5924
 Red. masses --      8.2189                 1.0388                 1.0388
 Frc consts  --     11.8755                 5.5144                 5.5145
 IR Inten    --      0.0000               169.7090                 1.5108

                     73                     74                     75
                      A                      A                      A
 Frequencies --   3006.2597              3006.9255              3055.1471
 Red. masses --      1.0396                 1.0395                 1.0998
 Frc consts  --      5.5358                 5.5377                 6.0483
 IR Inten    --    297.8028                 0.0003                 0.0045

                     76                     77                     78
                      A                      A                      A
 Frequencies --   3055.1963              3057.3064              3057.4093
 Red. masses --      1.0998                 1.0991                 1.0991
 Frc consts  --      6.0484                 6.0529                 6.0532
 IR Inten    --    119.7354               243.6588                 0.0064

                     79                     80                     81
                      A                      A                      A
 Frequencies --   3069.9135              3070.1399              3105.7438
 Red. masses --      1.0829                 1.0830                 1.0982
 Frc consts  --      6.0132                 6.0143                 6.2411
 IR Inten    --     28.4854                 0.0004                 3.2933

                     82                     83                     84
                      A                      A                      A
 Frequencies --   3105.7569              3113.2776              3113.3152
 Red. masses --      1.0982                 1.0967                 1.0966
 Frc consts  --      6.2411                 6.2627                 6.2625
 IR Inten    --     15.6311                 0.6713                87.9719

 - Thermochemistry -
 -------------------
 Temperature   298.150 Kelvin.  Pressure   1.00000 Atm.
 Atom     1 has atomic number  6 and mass  12.00000

 Molecular mass:   347.93605 amu.
 Principal axes and moments of inertia in atomic units:
                           1         2         3
     Eigenvalues --  4347.650547801.59771**********
           X            0.73672  -0.49788   0.45755
           Y           -0.56170  -0.07387   0.82403
           Z            0.37647   0.86409   0.33408
 This molecule is an asymmetric top.
 Rotational symmetry number  1.
 Warning -- assumption of classical behavior for rotation
           may cause significant error
 Rotational temperatures (Kelvin)      0.01992     0.01110     0.00763
 Rotational constants (GHZ):           0.41511     0.23133     0.15888
 Zero-point vibrational energy     601261.9 (Joules/Mol)
                                  143.70504 (Kcal/Mol)
 Warning -- explicit consideration of  28 degrees of freedom as
           vibrations may cause significant error
 Vibrational temperatures:     54.30    76.30    92.76   109.49   131.70
          (Kelvin)            205.38   218.54   241.67   260.62   268.74
                              296.48   339.02   341.62   348.36   361.87
                              366.12   422.67   432.75   450.93   456.81
                              471.51   616.43   626.47   670.32   680.59
                              684.25   746.34   859.77   980.50  1042.79
                             1054.36  1077.92  1116.06  1214.76  1248.78
                             1326.83  1326.85  1347.48  1374.55  1374.59
                             1470.63  1483.80  1601.50  1611.57  1614.62
                             1632.03  1702.57  1720.83  1764.60  1919.49
                             1920.91  1950.43  1950.51  1965.25  1965.33
                             1969.26  1980.02  1994.83  2005.08  2031.44
                             2040.54  2114.17  2114.21  2132.64  2133.98
                             2158.17  2158.50  2171.68  2173.61  2253.14
                             4318.61  4318.62  4325.34  4326.30  4395.68
                             4395.75  4398.78  4398.93  4416.92  4417.25
                             4468.47  4468.49  4479.31  4479.37

 Zero-point correction=                           0.229009 (Hartree/Particle)
 Thermal correction to Energy=                    0.246897
 Thermal correction to Enthalpy=                  0.247842
 Thermal correction to Gibbs Free Energy=         0.182236
 Sum of electronic and zero-point Energies=          -5764.632325
 Sum of electronic and thermal Energies=             -5764.614437
 Sum of electronic and thermal Enthalpies=           -5764.613492
 Sum of electronic and thermal Free Energies=        -5764.679098

                     E (Thermal)             CV                S
                      KCal/Mol        Cal/Mol-Kelvin    Cal/Mol-Kelvin
 Total                  154.930             64.830            138.078
 Electronic               0.000              0.000              0.000
 Translational            0.889              2.981             43.435
 Rotational               0.889              2.981             34.309
 Vibrational            153.153             58.868             60.334
 Vibration     1          0.594              1.982              5.374
 Vibration     2          0.596              1.976              4.701
 Vibration     3          0.597              1.971              4.315
 Vibration     4          0.599              1.965              3.989
 Vibration     5          0.602              1.955              3.627
 Vibration     6          0.616              1.910              2.767
 Vibration     7          0.619              1.901              2.648
 Vibration     8          0.625              1.882              2.458
 Vibration     9          0.630              1.865              2.317
 Vibration    10          0.632              1.858              2.260
 Vibration    11          0.641              1.831              2.078
 Vibration    12          0.655              1.786              1.836
 Vibration    13          0.656              1.783              1.822
 Vibration    14          0.658              1.776              1.787
 Vibration    15          0.663              1.760              1.720
 Vibration    16          0.665              1.755              1.699
 Vibration    17          0.689              1.685              1.452
 Vibration    18          0.693              1.672              1.413
 Vibration    19          0.701              1.648              1.344
 Vibration    20          0.704              1.640              1.323
 Vibration    21          0.711              1.620              1.271
 Vibration    22          0.790              1.408              0.864
 Vibration    23          0.796              1.393              0.841
 Vibration    24          0.823              1.326              0.749
 Vibration    25          0.830              1.310              0.729
 Vibration    26          0.832              1.304              0.722
 Vibration    27          0.874              1.209              0.613
 Vibration    28          0.955              1.037              0.454

 Optimization completed.
    -- Stationary point found.
 Normal termination of Gaussian 16 at Sat Feb 10 12:50:24 2024.
