 Q-Chem 5.4, Q-Chem, Inc., Pleasanton, CA (2021)
 Q-Chem 5.4.0 for Intel X86 EM64T Linux

User input:
--------------------------------------------------------------
$molecule
0 1
C                 -3.0683270000     -1.7240670000     -0.0188160000
O                 -2.3146120000     -0.5301640000      0.2744040000
C                 -0.9848730000     -0.4815580000      0.0982350000
C                 -0.4143650000      0.6999640000     -0.2760500000
O                 -1.2040520000      1.7447690000     -0.6103960000
C                 -1.0186590000      2.9877730000      0.0917310000
C                  1.0533570000      0.8119590000     -0.4729690000
O                  1.5545200000      1.8378040000     -0.9076650000
C                  1.9213050000     -0.3748150000     -0.1616870000
C                  1.3430760000     -1.5168220000      0.2352680000
C                 -0.1158850000     -1.6503840000      0.4328180000
O                 -0.5857700000     -2.6809590000      0.8919360000
C                  3.3966650000     -0.1968560000     -0.3421870000
H                 -3.0239060000     -2.4280530000      0.8092520000
H                 -4.0883330000     -1.3759160000     -0.1761260000
H                 -2.7002130000     -2.2022420000     -0.9288240000
H                 -1.1746170000      2.8378350000      1.1645150000
H                 -1.7870310000      3.6549640000     -0.2949090000
H                 -0.0302480000      3.4042790000     -0.0986940000
H                  1.9158640000     -2.4086130000      0.4662330000
H                  3.7709620000      0.6007720000      0.3057790000
H                  3.9317620000     -1.1198760000     -0.1163360000
H                  3.6233790000      0.1102050000     -1.3665920000
$end

$rem
BASIS  =  6-311++G(d,p)
GUI  =  2
JOB_TYPE  =  SP
METHOD  =  B3LYP
SCF_CONVERGENCE  = 8
SOLVENT_METHOD = sm12
$end

$smx
solvent dimethylformamide
charges CM5
$end

--------------------------------------------------------------

             Standard Nuclear Orientation (Angstroms)
    I     Atom           X                Y                Z
 ----------------------------------------------------------------
    1      C      -3.0683270000    -1.7240670000    -0.0188160000
    2      O      -2.3146120000    -0.5301640000     0.2744040000
    3      C      -0.9848730000    -0.4815580000     0.0982350000
    4      C      -0.4143650000     0.6999640000    -0.2760500000
    5      O      -1.2040520000     1.7447690000    -0.6103960000
    6      C      -1.0186590000     2.9877730000     0.0917310000
    7      C       1.0533570000     0.8119590000    -0.4729690000
    8      O       1.5545200000     1.8378040000    -0.9076650000
    9      C       1.9213050000    -0.3748150000    -0.1616870000
   10      C       1.3430760000    -1.5168220000     0.2352680000
   11      C      -0.1158850000    -1.6503840000     0.4328180000
   12      O      -0.5857700000    -2.6809590000     0.8919360000
   13      C       3.3966650000    -0.1968560000    -0.3421870000
   14      H      -3.0239060000    -2.4280530000     0.8092520000
   15      H      -4.0883330000    -1.3759160000    -0.1761260000
   16      H      -2.7002130000    -2.2022420000    -0.9288240000
   17      H      -1.1746170000     2.8378350000     1.1645150000
   18      H      -1.7870310000     3.6549640000    -0.2949090000
   19      H      -0.0302480000     3.4042790000    -0.0986940000
   20      H       1.9158640000    -2.4086130000     0.4662330000
   21      H       3.7709620000     0.6007720000     0.3057790000
   22      H       3.9317620000    -1.1198760000    -0.1163360000
   23      H       3.6233790000     0.1102050000    -1.3665920000
 ----------------------------------------------------------------

   15    -649.9978475268      8.10e-09  Convergence criterion met
 Total energy in the final basis set =     -650.0093789796

                    Orbital Energies (a.u.)
 --------------------------------------------------------------

 Alpha MOs
 -- Occupied --
-19.1664 -19.1544 -19.1366 -19.1345 -10.2855 -10.2816 -10.2606 -10.2514
-10.2200 -10.2172 -10.2163 -10.1996 -10.1732  -1.0943  -1.0774  -1.0621
 -1.0531  -0.8600  -0.8021  -0.7342  -0.7272  -0.6939  -0.6692  -0.6110
 -0.5927  -0.5490  -0.5253  -0.5173  -0.4901  -0.4757  -0.4657  -0.4616
 -0.4509  -0.4458  -0.4392  -0.4206  -0.4134  -0.4064  -0.4004  -0.3918
 -0.3720  -0.3635  -0.3359  -0.3170  -0.2962  -0.2771  -0.2735  -0.2427

          Ground-State Mulliken Net Atomic Charges

     Atom                 Charge (a.u.)
  ----------------------------------------
      1 C                    -0.220089
      2 O                    -0.195737
      3 C                     0.061840
      4 C                    -0.770906
      5 O                    -0.185529
      6 C                    -0.231175
      7 C                    -0.869867
      8 O                    -0.292614
      9 C                     1.482832
     10 C                    -0.280953
     11 C                    -0.448445
     12 O                    -0.300498
     13 C                     0.262735
     14 H                     0.182912
     15 H                     0.202077
     16 H                     0.185463
     17 H                     0.177952
     18 H                     0.196746
     19 H                     0.153692
     20 H                     0.266000
     21 H                     0.191298
     22 H                     0.245975
     23 H                     0.186291
  ----------------------------------------
  Sum of atomic charges =     0.000000

                    Cartesian Multipole Moments
 -----------------------------------------------------------------
    Charge (ESU x 10^10)
                -0.0000
    Dipole Moment (Debye)
         X       0.7621      Y      -0.4299      Z       0.4084
       Tot       0.9656
    Quadrupole Moments (Debye-Ang)
        XX     -66.4920     XY      -3.5721     YY     -78.7540
        XZ       2.1382     YZ       7.9734     ZZ     -78.7896

 Total job time:  304.16s(wall), 2378.92s(cpu)
        *  Thank you very much for using Q-Chem.  Have a nice day.  *
