 Gaussian 16, Revision A.03,
 Gaussian 16:  ES64L-G16RevA.03 25-Dec-2016

 --------------------------------------
 #P UB3LYP/6-311++G(d,p) nosym opt freq
 --------------------------------------

 --------
 Oxidized
 --------
 Symbolic Z-matrix:
 Charge =  0 Multiplicity = 1

 SCF Done:  E(UB3LYP) =  -649.998541366     A.U. after   16 cycles
 Optimization completed.
    -- Stationary point found.
 Normal termination of Gaussian 16 at Wed Jan 10 04:51:28 2024.

 ----------------------------------------------------------------------
 #P Geom=AllCheck Guess=TCheck SCRF=Check GenChk UB3LYP/6-311++G(d,p) F
 req
 ----------------------------------------------------------------------

 Structure from the checkpoint file:  "087.chk"
 --------
 Oxidized
 --------
 Charge =  0 Multiplicity = 1

                          Input orientation:
 ---------------------------------------------------------------------
 Center     Atomic      Atomic             Coordinates (Angstroms)
 Number     Number       Type             X           Y           Z
 ---------------------------------------------------------------------
      1          6           0       -3.068327   -1.724067   -0.018816
      2          8           0       -2.314612   -0.530164    0.274404
      3          6           0       -0.984873   -0.481558    0.098235
      4          6           0       -0.414365    0.699964   -0.276050
      5          8           0       -1.204052    1.744769   -0.610396
      6          6           0       -1.018659    2.987773    0.091731
      7          6           0        1.053357    0.811959   -0.472969
      8          8           0        1.554520    1.837804   -0.907665
      9          6           0        1.921305   -0.374815   -0.161687
     10          6           0        1.343076   -1.516822    0.235268
     11          6           0       -0.115885   -1.650384    0.432818
     12          8           0       -0.585770   -2.680959    0.891936
     13          6           0        3.396665   -0.196856   -0.342187
     14          1           0       -3.023906   -2.428053    0.809252
     15          1           0       -4.088333   -1.375916   -0.176126
     16          1           0       -2.700213   -2.202242   -0.928824
     17          1           0       -1.174617    2.837835    1.164515
     18          1           0       -1.787031    3.654964   -0.294909
     19          1           0       -0.030248    3.404279   -0.098694
     20          1           0        1.915864   -2.408613    0.466233
     21          1           0        3.770962    0.600772    0.305779
     22          1           0        3.931762   -1.119876   -0.116336
     23          1           0        3.623379    0.110205   -1.366592
 ---------------------------------------------------------------------

 SCF Done:  E(UB3LYP) =  -649.998541366     A.U. after    2 cycles

 Alpha  occ. eigenvalues --  -19.16994 -19.15714 -19.13878 -19.13648 -10.28791
 Alpha  occ. eigenvalues --  -10.28397 -10.26271 -10.25365 -10.22860 -10.22411
 Alpha  occ. eigenvalues --  -10.22292 -10.20664 -10.18716  -1.09754  -1.07973
 Alpha  occ. eigenvalues --   -1.06409  -1.05539  -0.86504  -0.80754  -0.74202
 Alpha  occ. eigenvalues --   -0.73341  -0.69925  -0.67564  -0.61591  -0.59796
 Alpha  occ. eigenvalues --   -0.55294  -0.52986  -0.52155  -0.49390  -0.48120
 Alpha  occ. eigenvalues --   -0.47007  -0.46670  -0.45821  -0.45190  -0.44588
 Alpha  occ. eigenvalues --   -0.42526  -0.42115  -0.41439  -0.40673  -0.40458
 Alpha  occ. eigenvalues --   -0.37723  -0.36851  -0.33938  -0.31913  -0.30220
 Alpha  occ. eigenvalues --   -0.27931  -0.27548  -0.24529
 Alpha virt. eigenvalues --   -0.13006  -0.02152  -0.01052  -0.00253   0.00105
 Alpha virt. eigenvalues --    0.00695   0.01861   0.01903   0.02592   0.02866
 Alpha virt. eigenvalues --    0.03935   0.04345   0.04640   0.05419   0.05840

  Beta  occ. eigenvalues --  -19.16994 -19.15714 -19.13878 -19.13648 -10.28791
  Beta  occ. eigenvalues --  -10.28397 -10.26271 -10.25365 -10.22860 -10.22411
  Beta  occ. eigenvalues --  -10.22292 -10.20664 -10.18716  -1.09754  -1.07973
  Beta  occ. eigenvalues --   -1.06409  -1.05539  -0.86504  -0.80754  -0.74202
  Beta  occ. eigenvalues --   -0.73341  -0.69925  -0.67564  -0.61591  -0.59796
  Beta  occ. eigenvalues --   -0.55294  -0.52986  -0.52155  -0.49390  -0.48120
  Beta  occ. eigenvalues --   -0.47007  -0.46670  -0.45821  -0.45190  -0.44588
  Beta  occ. eigenvalues --   -0.42526  -0.42115  -0.41439  -0.40673  -0.40458
  Beta  occ. eigenvalues --   -0.37723  -0.36851  -0.33938  -0.31913  -0.30220
  Beta  occ. eigenvalues --   -0.27931  -0.27548  -0.24529
  Beta virt. eigenvalues --   -0.13006  -0.02152  -0.01052  -0.00253   0.00105
  Beta virt. eigenvalues --    0.00695   0.01861   0.01903   0.02592   0.02866
  Beta virt. eigenvalues --    0.03935   0.04345   0.04640   0.05419   0.05840

 Mulliken charges and spin densities:
               1          2
     1  C   -0.278749   0.000000
     2  O   -0.156461   0.000000
     3  C    0.346864  -0.000000
     4  C   -0.339717  -0.000000
     5  O   -0.127438  -0.000000
     6  C   -0.288850  -0.000000
     7  C   -0.385507   0.000000
     8  O   -0.234841   0.000000
     9  C    1.265119   0.000000
    10  C   -0.802470  -0.000000
    11  C   -0.179611  -0.000000
    12  O   -0.237615   0.000000
    13  C   -0.283877  -0.000000
    14  H    0.194207   0.000000
    15  H    0.152019  -0.000000
    16  H    0.159065  -0.000000
    17  H    0.144002   0.000000
    18  H    0.157600  -0.000000
    19  H    0.175944   0.000000
    20  H    0.190686   0.000000
    21  H    0.184278   0.000000
    22  H    0.157385  -0.000000
    23  H    0.187966   0.000000
 Sum of Mulliken charges =  -0.00000   0.00000

 Dipole moment (field-independent basis, Debye):
    X=              0.5831    Y=             -0.3092    Z=              0.3787  Tot=              0.7609
 Quadrupole moment (field-independent basis, Debye-Ang):
   XX=            -68.1826   YY=            -78.8675   ZZ=            -78.6780
   XY=             -3.0398   XZ=              1.9934   YZ=              7.5943

  Exact polarizability: 143.495  21.841 156.646 -10.798 -20.207  81.696
 Approx polarizability: 200.468  68.312 282.995 -28.602 -56.738 135.433

                      1                      2                      3
                      A                      A                      A
 Frequencies --     49.8020                53.7435                71.8052
 Red. masses --      2.3041                 3.0595                 3.1121
 Frc consts  --      0.0034                 0.0052                 0.0095
 IR Inten    --      8.4678                 6.7287                 2.7510

                      4                      5                      6
                      A                      A                      A
 Frequencies --     80.3983               128.2339               132.9613
 Red. masses --      4.3738                 1.5344                 1.2265
 Frc consts  --      0.0167                 0.0149                 0.0128
 IR Inten    --      5.9189                 0.6751                 0.5333

                      7                      8                      9
                      A                      A                      A
 Frequencies --    154.3542               175.6948               211.7991
 Red. masses --      1.3046                 2.1377                 3.3838
 Frc consts  --      0.0183                 0.0389                 0.0894
 IR Inten    --      0.1183                 4.1505                 2.8225

                     10                     11                     12
                      A                      A                      A
 Frequencies --    232.7031               289.0527               310.5713
 Red. masses --      3.6106                 3.5680                 6.3479
 Frc consts  --      0.1152                 0.1756                 0.3607
 IR Inten    --      4.5179                 3.9244                 1.5787

                     13                     14                     15
                      A                      A                      A
 Frequencies --    339.7428               365.0985               392.7268
 Red. masses --      4.8322                 4.3936                 8.2241
 Frc consts  --      0.3286                 0.3451                 0.7473
 IR Inten    --      2.9689                 1.8193                14.8094

                     16                     17                     18
                      A                      A                      A
 Frequencies --    399.2855               434.0954               465.9081
 Red. masses --      8.8428                 5.3780                 8.2475
 Frc consts  --      0.8306                 0.5971                 1.0548
 IR Inten    --      2.7740                11.2157                 8.6130

                     19                     20                     21
                      A                      A                      A
 Frequencies --    544.2454               631.9977               681.4480
 Red. masses --      7.1460                 6.6775                 4.5216
 Frc consts  --      1.2471                 1.5714                 1.2371
 IR Inten    --      8.3544                 1.7850                 5.0502

                     22                     23                     24
                      A                      A                      A
 Frequencies --    689.5204               719.0258               783.1487
 Red. masses --      4.4635                 4.1926                 9.4198
 Frc consts  --      1.2503                 1.2771                 3.4039
 IR Inten    --     18.3000                 7.6762                 2.3687

                     25                     26                     27
                      A                      A                      A
 Frequencies --    899.4944               907.5252               934.2082
 Red. masses --      1.5077                 7.0481                 5.4602
 Frc consts  --      0.7187                 3.4201                 2.8077
 IR Inten    --     33.0034                56.5208                47.2630

                     28                     29                     30
                      A                      A                      A
 Frequencies --   1002.2952              1025.2187              1056.9586
 Red. masses --      5.8755                 1.8868                 1.5189
 Frc consts  --      3.4776                 1.1684                 0.9997
 IR Inten    --     34.7588                 9.0684                 2.5750

                     31                     32                     33
                      A                      A                      A
 Frequencies --   1116.3030              1158.8920              1161.6987
 Red. masses --      3.8634                 1.5994                 1.2727
 Frc consts  --      2.8365                 1.2656                 1.0119
 IR Inten    --    106.4664                37.4913                25.3719

                     34                     35                     36
                      A                      A                      A
 Frequencies --   1164.0942              1196.2893              1215.4842
 Red. masses --      1.8113                 1.5559                 1.9688
 Frc consts  --      1.4461                 1.3119                 1.7138
 IR Inten    --     78.1752                40.7807               122.5410

                     37                     38                     39
                      A                      A                      A
 Frequencies --   1238.1427              1294.9586              1340.2821
 Red. masses --      2.2667                 3.7364                 5.2885
 Frc consts  --      2.0473                 3.6916                 5.5972
 IR Inten    --    132.3072               377.7620               123.8293

                     40                     41                     42
                      A                      A                      A
 Frequencies --   1365.8693              1415.5692              1465.1323
 Red. masses --      3.1948                 1.2859                 1.1900
 Frc consts  --      3.5117                 1.5181                 1.5050
 IR Inten    --      1.6064                 9.4432                20.6000

                     43                     44                     45
                      A                      A                      A
 Frequencies --   1466.7256              1479.1312              1481.3698
 Red. masses --      1.0433                 1.0727                 1.1789
 Frc consts  --      1.3224                 1.3828                 1.5242
 IR Inten    --      9.0018                 2.1577                49.0989

                     46                     47                     48
                      A                      A                      A
 Frequencies --   1486.9888              1489.0572              1496.3974
 Red. masses --      1.0543                 1.0776                 1.0480
 Frc consts  --      1.3735                 1.4077                 1.3826
 IR Inten    --      1.3518                10.8738                35.1544

                     49                     50                     51
                      A                      A                      A
 Frequencies --   1510.3608              1628.9427              1695.6199
 Red. masses --      1.0481                 8.8561                10.3689
 Frc consts  --      1.4087                13.8453                17.5646
 IR Inten    --     16.7769               219.8158                 0.1149

                     52                     53                     54
                      A                      A                      A
 Frequencies --   1704.1253              1715.2438              3026.4556
 Red. masses --     12.0464                 8.8409                 1.0385
 Frc consts  --     20.6115                15.3249                 5.6042
 IR Inten    --    499.8565                48.5606                64.3188

                     55                     56                     57
                      A                      A                      A
 Frequencies --   3036.5794              3045.6400              3087.7247
 Red. masses --      1.0358                 1.0319                 1.0985
 Frc consts  --      5.6271                 5.6397                 6.1708
 IR Inten    --      8.6056                53.7355                 5.8329

                     58                     59                     60
                      A                      A                      A
 Frequencies --   3113.6848              3121.7684              3126.2145
 Red. masses --      1.0951                 1.1033                 1.1030
 Frc consts  --      6.2552                 6.3352                 6.3514
 IR Inten    --     25.3436                11.5853                27.6011

                     61                     62                     63
                      A                      A                      A
 Frequencies --   3146.9893              3150.0279              3177.0730
 Red. masses --      1.1069                 1.1077                 1.0923
 Frc consts  --      6.4587                 6.4757                 6.4957
 IR Inten    --     10.4291                10.2538                 3.6641

 - Thermochemistry -
 -------------------
 Temperature   298.150 Kelvin.  Pressure   1.00000 Atm.
 Atom     1 has atomic number  6 and mass  12.00000

 Molecular mass:   182.05791 amu.
 Principal axes and moments of inertia in atomic units:
                           1         2         3
     Eigenvalues --  1785.854342353.165773978.94638
           X            0.86324  -0.49950   0.07290
           Y            0.47890   0.85604   0.19454
           Z           -0.15958  -0.13302   0.97818
 This molecule is an asymmetric top.
 Rotational symmetry number  1.
 Warning -- assumption of classical behavior for rotation
           may cause significant error
 Rotational temperatures (Kelvin)      0.04850     0.03681     0.02177
 Rotational constants (GHZ):           1.01058     0.76694     0.45357
 Zero-point vibrational energy     463444.7 (Joules/Mol)
                                  110.76593 (Kcal/Mol)
 Warning -- explicit consideration of  19 degrees of freedom as
           vibrations may cause significant error
 Vibrational temperatures:     71.65    77.32   103.31   115.68   184.50
          (Kelvin)            191.30   222.08   252.79   304.73   334.81
                              415.88   446.84   488.81   525.30   565.05
                              574.48   624.57   670.34   783.05   909.30
                              980.45   992.07  1034.52  1126.78  1294.17
                             1305.73  1344.12  1442.08  1475.06  1520.73
                             1606.11  1667.39  1671.43  1674.87  1721.19
                             1748.81  1781.41  1863.16  1928.37  1965.18
                             2036.69  2108.00  2110.29  2128.14  2131.36
                             2139.45  2142.42  2152.98  2173.07  2343.69
                             2439.62  2451.86  2467.85  4354.39  4368.96
                             4382.00  4442.55  4479.90  4491.53  4497.93
                             4527.82  4532.19  4571.10

 Zero-point correction=                           0.176517 (Hartree/Particle)
 Thermal correction to Energy=                    0.190165
 Thermal correction to Enthalpy=                  0.191110
 Thermal correction to Gibbs Free Energy=         0.135556
 Sum of electronic and zero-point Energies=           -649.822025
 Sum of electronic and thermal Energies=              -649.808376
 Sum of electronic and thermal Enthalpies=            -649.807432
 Sum of electronic and thermal Free Energies=         -649.862985

                     E (Thermal)             CV                S
                      KCal/Mol        Cal/Mol-Kelvin    Cal/Mol-Kelvin
 Total                  119.331             47.868            116.922
 Electronic               0.000              0.000              0.000
 Translational            0.889              2.981             41.504
 Rotational               0.889              2.981             31.192
 Vibrational            117.553             41.906             44.226
 Vibration     1          0.595              1.978              4.825
 Vibration     2          0.596              1.976              4.675
 Vibration     3          0.598              1.967              4.103
 Vibration     4          0.600              1.962              3.881
 Vibration     5          0.611              1.925              2.972
 Vibration     6          0.613              1.920              2.903
 Vibration     7          0.620              1.898              2.618
 Vibration     8          0.628              1.872              2.374
 Vibration     9          0.643              1.823              2.028
 Vibration    10          0.653              1.791              1.858
 Vibration    11          0.686              1.694              1.480
 Vibration    12          0.699              1.654              1.359
 Vibration    13          0.720              1.596              1.213
 Vibration    14          0.738              1.544              1.100
 Vibration    15          0.760              1.486              0.990
 Vibration    16          0.765              1.472              0.965
 Vibration    17          0.795              1.396              0.845
 Vibration    18          0.823              1.326              0.749
 Vibration    19          0.899              1.152              0.556

                           ! Non-Optimized Parameters !
 Normal termination of Gaussian 16 at Wed Jan 10 05:22:55 2024.
