 Q-Chem 5.4, Q-Chem, Inc., Pleasanton, CA (2021)
 Q-Chem 5.4.0 for Intel X86 EM64T Linux

User input:
--------------------------------------------------------------
$molecule
0 1
C                 -1.3509150000      1.9274880000      0.8183630000
C                 -2.6652790000      1.3991290000      0.3112820000
C                 -2.6761330000      0.2378820000     -0.3610790000
C                 -1.4554690000     -0.5334660000     -0.6606590000
C                 -0.1243980000     -0.0058370000     -0.1949090000
C                 -0.1125040000      1.1544140000      0.4923570000
O                 -1.5263510000     -1.5820690000     -1.2814450000
H                 -3.5905860000     -0.2077950000     -0.7342320000
O                 -1.3106260000      2.9458190000      1.4810820000
I                  1.6735270000      2.0070080000      1.2120960000
C                  1.0856490000     -0.8215370000     -0.5353740000
C                 -3.8878360000      2.2433320000      0.5999300000
C                 -3.9376260000      3.4508890000     -0.3631160000
C                 -5.2017420000      1.4545540000      0.5591140000
H                  0.7953840000     -1.7078980000     -1.0963490000
H                  1.6121530000     -1.1267050000      0.3734220000
H                  1.7911250000     -0.2333420000     -1.1290860000
H                 -3.7521480000      2.6450730000      1.6088710000
H                 -4.7855750000      4.0928850000     -0.1103950000
H                 -4.0618230000      3.1156620000     -1.3971810000
H                 -3.0298880000      4.0524160000     -0.2976470000
H                 -6.0270070000      2.0990090000      0.8716980000
H                 -5.1772230000      0.5912990000      1.2292340000
H                 -5.4339090000      1.0979600000     -0.4489160000
$end
$rem
MAX_SCF_CYCLES=200
BASIS  =  6-311++G(d,p)
GUI  =  2
JOB_TYPE  =  SP
METHOD  =  B3LYP
SOLVENT_METHOD = PCM
$end
$pcm
theory = CPCM
$end
$solvent
dielectric 37.219
opticaldielectric 1.43
$end

--------------------------------------------------------------

             Standard Nuclear Orientation (Angstroms)
    I     Atom           X                Y                Z
 ----------------------------------------------------------------
    1      C      -1.3509150000     1.9274880000     0.8183630000
    2      C      -2.6652790000     1.3991290000     0.3112820000
    3      C      -2.6761330000     0.2378820000    -0.3610790000
    4      C      -1.4554690000    -0.5334660000    -0.6606590000
    5      C      -0.1243980000    -0.0058370000    -0.1949090000
    6      C      -0.1125040000     1.1544140000     0.4923570000
    7      O      -1.5263510000    -1.5820690000    -1.2814450000
    8      H      -3.5905860000    -0.2077950000    -0.7342320000
    9      O      -1.3106260000     2.9458190000     1.4810820000
   10      I       1.6735270000     2.0070080000     1.2120960000
   11      C       1.0856490000    -0.8215370000    -0.5353740000
   12      C      -3.8878360000     2.2433320000     0.5999300000
   13      C      -3.9376260000     3.4508890000    -0.3631160000
   14      C      -5.2017420000     1.4545540000     0.5591140000
   15      H       0.7953840000    -1.7078980000    -1.0963490000
   16      H       1.6121530000    -1.1267050000     0.3734220000
   17      H       1.7911250000    -0.2333420000    -1.1290860000
   18      H      -3.7521480000     2.6450730000     1.6088710000
   19      H      -4.7855750000     4.0928850000    -0.1103950000
   20      H      -4.0618230000     3.1156620000    -1.3971810000
   21      H      -3.0298880000     4.0524160000    -0.2976470000
   22      H      -6.0270070000     2.0990090000     0.8716980000
   23      H      -5.1772230000     0.5912990000     1.2292340000
   24      H      -5.4339090000     1.0979600000    -0.4489160000
 ----------------------------------------------------------------

    9   -7457.7951831781      4.17e-06  Convergence criterion met
 Total energy in the final basis set =    -7457.7951831781

                    Orbital Energies (a.u.)
 --------------------------------------------------------------

 Alpha MOs
 -- Occupied --
********-176.3091-165.7128-165.7109-165.7106 -35.8056 -31.2986 -31.2931
-31.2925 -22.9491 -22.9479 -22.9475 -22.9437 -22.9437 -19.1475 -19.1447
-10.2965 -10.2901 -10.2468 -10.2285 -10.2199 -10.2029 -10.1909 -10.1764
-10.1625 -10.1607  -6.3550  -4.7669  -4.7534  -4.7521  -2.0329  -2.0287
 -2.0278  -2.0161  -2.0160  -1.0826  -1.0760  -0.8753  -0.8352  -0.7787
 -0.7403  -0.6959  -0.6889  -0.6711  -0.6221  -0.5938  -0.5669  -0.5389
 -0.5020  -0.4781  -0.4677  -0.4552  -0.4538  -0.4372  -0.4340  -0.4208
 -0.4150  -0.4070  -0.4008  -0.3864  -0.3800  -0.3628  -0.3520  -0.3422
 -0.3242  -0.3001  -0.2968  -0.2855  -0.2707  -0.2624

          Ground-State Mulliken Net Atomic Charges

     Atom                 Charge (a.u.)
  ----------------------------------------
      1 C                    -1.095456
      2 C                     1.197803
      3 C                    -0.368856
      4 C                    -0.940848
      5 C                     1.091928
      6 C                     0.120848
      7 O                    -0.285505
      8 H                     0.237885
      9 O                    -0.210626
     10 I                     0.035368
     11 C                    -0.357240
     12 C                     0.098668
     13 C                    -0.734254
     14 C                    -0.568829
     15 H                     0.197138
     16 H                     0.187638
     17 H                     0.185243
     18 H                     0.221897
     19 H                     0.162305
     20 H                     0.160501
     21 H                     0.172834
     22 H                     0.189132
     23 H                     0.146716
     24 H                     0.155709
  ----------------------------------------
  Sum of atomic charges =     0.000000

                    Cartesian Multipole Moments
 -----------------------------------------------------------------
    Charge (ESU x 10^10)
                 0.0000
    Dipole Moment (Debye)
         X      -1.4171      Y      -0.1198      Z      -0.5076
       Tot       1.5100
    Quadrupole Moments (Debye-Ang)
        XX     -84.4510     XY      -6.9894     YY    -112.7013
        XZ      -1.4009     YZ      -9.2034     ZZ    -105.2907

 Total job time:  85.28s(wall), 247.08s(cpu)
        *  Thank you very much for using Q-Chem.  Have a nice day.  *
