 Gaussian 16, Revision A.03,
 Gaussian 16:  ES64L-G16RevA.03 25-Dec-2016

 ----------------------------------------------------------------
 #P UB3LYP/6-311++G(d,p) SCRF=(PCM,Solvent=n,n-DiMethylFormamide)
 ----------------------------------------------------------------

 ------------------
 Radical PCM in DMF
 ------------------
 Symbolic Z-matrix:
 Charge = -1 Multiplicity = 2

                         Standard orientation:
 ---------------------------------------------------------------------
 Center     Atomic      Atomic             Coordinates (Angstroms)
 Number     Number       Type             X           Y           Z
 ---------------------------------------------------------------------
      1          6           0        3.602467    0.702813    0.000006
      2          6           0        3.602385   -0.702772   -0.000007
      3          6           0        2.399889   -1.397578    0.000020
      4          6           0        1.153886   -0.723286    0.000010
      5          7           0       -0.000103   -1.438671    0.000002
      6          6           0       -1.154315   -0.722584    0.000005
      7          6           0       -2.399792   -1.397564    0.000017
      8          6           0       -3.602526   -0.703137   -0.000009
      9          6           0       -3.602262    0.702662    0.000007
     10          6           0       -2.400031    1.397487   -0.000018
     11          6           0       -1.153828    0.723338   -0.000010
     12          7           0        0.000006    1.438958   -0.000001
     13          6           0        1.154459    0.722755   -0.000005
     14          6           0        2.399766    1.397574   -0.000018
     15          1           0        4.543161    1.246036    0.000032
     16          1           0        4.542642   -1.246548   -0.000043
     17          1           0        2.376403   -2.482915   -0.000050
     18          1           0       -2.375304   -2.482809   -0.000045
     19          1           0       -4.543338   -1.245965   -0.000033
     20          1           0       -4.542717    1.246291    0.000042
     21          1           0       -2.376473    2.482861    0.000052
     22          1           0        2.375722    2.482794    0.000045
 ---------------------------------------------------------------------

 SCF Done:  E(UB3LYP) =  -571.869762280     A.U. after   15 cycles

 The electronic state is 2-A.
 Alpha  occ. eigenvalues --  -14.28071 -14.28069 -10.19146 -10.19145 -10.19108
 Alpha  occ. eigenvalues --  -10.19106 -10.16139 -10.16138 -10.16088 -10.16088
 Alpha  occ. eigenvalues --  -10.15593 -10.15592 -10.15591 -10.15590  -0.94581
 Alpha  occ. eigenvalues --   -0.87839  -0.84230  -0.81352  -0.74279  -0.73525
 Alpha  occ. eigenvalues --   -0.71395  -0.66500  -0.61734  -0.59031  -0.57875
 Alpha  occ. eigenvalues --   -0.54329  -0.52757  -0.47728  -0.46732  -0.45774
 Alpha  occ. eigenvalues --   -0.44449  -0.41891  -0.41876  -0.41151  -0.40715
 Alpha  occ. eigenvalues --   -0.37173  -0.35931  -0.35858  -0.33985  -0.33724
 Alpha  occ. eigenvalues --   -0.33281  -0.31256  -0.28580  -0.25193  -0.24265
 Alpha  occ. eigenvalues --   -0.22988  -0.21199  -0.12632
 Alpha virt. eigenvalues --   -0.01114  -0.00249  -0.00046   0.00482   0.01014
 Alpha virt. eigenvalues --    0.01225   0.02352   0.02473   0.04243   0.04464
 Alpha virt. eigenvalues --    0.04558   0.04675   0.05369   0.06518   0.06767

  Beta  occ. eigenvalues --  -14.27476 -14.27473 -10.19172 -10.19170 -10.19133
  Beta  occ. eigenvalues --  -10.19132 -10.16068 -10.16067 -10.16018 -10.16018
  Beta  occ. eigenvalues --  -10.15477 -10.15476 -10.15474 -10.15473  -0.93901
  Beta  occ. eigenvalues --   -0.86822  -0.83959  -0.80974  -0.74004  -0.73287
  Beta  occ. eigenvalues --   -0.71048  -0.65901  -0.61624  -0.58715  -0.57633
  Beta  occ. eigenvalues --   -0.54050  -0.52574  -0.47547  -0.46500  -0.45656
  Beta  occ. eigenvalues --   -0.44339  -0.41769  -0.41035  -0.40713  -0.40554
  Beta  occ. eigenvalues --   -0.37078  -0.35680  -0.35205  -0.33894  -0.33554
  Beta  occ. eigenvalues --   -0.31146  -0.30040  -0.27855  -0.24412  -0.23430
  Beta  occ. eigenvalues --   -0.22423  -0.19415
  Beta virt. eigenvalues --   -0.06784  -0.00950  -0.00038   0.00481   0.00751
  Beta virt. eigenvalues --    0.01235   0.02282   0.02371   0.02469   0.04277
  Beta virt. eigenvalues --    0.04469   0.04559   0.05608   0.05966   0.06569

 Mulliken charges and spin densities:
               1          2
     1  C   -0.330338   0.059085
     2  C   -0.329243   0.058297
     3  C   -0.218379   0.049688
     4  C    0.051415   0.014928
     5  N   -0.175135   0.276342
     6  C    0.053250   0.015779
     7  C   -0.218624   0.048889
     8  C   -0.330461   0.059104
     9  C   -0.329090   0.058414
    10  C   -0.218399   0.049465
    11  C    0.051326   0.015039
    12  N   -0.175302   0.276412
    13  C    0.053380   0.015703
    14  C   -0.218426   0.048895
    15  H    0.168967  -0.004065
    16  H    0.168960  -0.003999
    17  H    0.164541  -0.007499
    18  H    0.164539  -0.007460
    19  H    0.168974  -0.004067
    20  H    0.168967  -0.004005
    21  H    0.164526  -0.007489
    22  H    0.164551  -0.007458
 Sum of Mulliken charges =  -1.00000   1.00000

 Dipole moment (field-independent basis, Debye):
    X=              0.0007    Y=             -0.0009    Z=              0.0000  Tot=              0.0011
 Quadrupole moment (field-independent basis, Debye-Ang):
   XX=            -92.5451   YY=            -95.3688   ZZ=            -91.1394
   XY=             -0.0027   XZ=             -0.0001   YZ=              0.0009

 Normal termination of Gaussian 16 at Sat Jan 13 19:17:36 2024.
