 Q-Chem 5.4, Q-Chem, Inc., Pleasanton, CA (2021)
 Q-Chem 5.4.0 for Intel X86 EM64T Linux

User input:
--------------------------------------------------------------
$molecule
-2 1
C                 -0.5489840000     -2.0416460000      2.1022620000
C                  0.8165940000     -2.4256230000      1.9514670000
C                  1.8441150000     -1.5148100000      1.7148000000
C                  1.5977080000     -0.0877370000      1.6956080000
C                  0.2353640000      0.2975750000      1.8833410000
C                 -0.8007710000     -0.6193080000      2.0463730000
O                 -1.5222080000     -2.8812400000      2.2967050000
O                  2.5773850000      0.7514720000      1.5540440000
N                 -2.1705210000     -0.2408120000      2.2542730000
N                  3.2295070000     -1.8876100000      1.6098970000
C                 -2.9631610000      0.2871330000      1.1051030000
C                 -4.4410200000      0.1906880000      1.5224290000
C                 -2.6164420000      1.7617560000      0.8432390000
C                 -2.7473460000     -0.5305870000     -0.1880920000
C                  3.7280680000     -2.5114060000      0.3610140000
C                  3.2260840000     -3.9606240000      0.2411960000
C                  5.2645890000     -2.5249100000      0.4662440000
C                  3.3035320000     -1.7142230000     -0.8944630000
H                  1.0361190000     -3.4863610000      2.0332300000
H                  0.0354630000      1.3639130000      1.9375060000
H                 -2.5990180000     -1.1349070000      2.5143890000
H                  3.7021790000     -0.9816190000      1.6936120000
H                 -4.7266590000     -0.8533020000      1.6906010000
H                 -5.1010700000      0.6009880000      0.7486020000
H                 -4.6084940000      0.7447150000      2.4519650000
H                 -2.7511610000      2.3493690000      1.7570620000
H                 -3.2629790000      2.1760810000      0.0587700000
H                 -1.5784140000      1.8646100000      0.5223290000
H                 -2.9619590000     -1.5870870000     -0.0049210000
H                 -1.7061810000     -0.4568450000     -0.5121320000
H                 -3.3947830000     -0.1665990000     -0.9977990000
H                  2.1404510000     -3.9875350000      0.1349940000
H                  3.4953040000     -4.5279440000      1.1375870000
H                  3.6743910000     -4.4495320000     -0.6329790000
H                  5.5799800000     -3.0930130000      1.3474270000
H                  5.6538950000     -1.5054810000      0.5647950000
H                  5.7208620000     -2.9774220000     -0.4217870000
H                  2.2130290000     -1.6555780000     -0.9408840000
H                  3.6728470000     -2.1846980000     -1.8153380000
H                  3.6797840000     -0.6893410000     -0.8363000000
$end

$rem
BASIS  =  6-311++G(d,p)
GUI  =  2
JOB_TYPE  =  SP
METHOD  =  B3LYP
SCF_CONVERGENCE  = 8
SOLVENT_METHOD = sm12
$end

$smx
solvent dimethylformamide
charges CM5
$end

--------------------------------------------------------------

             Standard Nuclear Orientation (Angstroms)
    I     Atom           X                Y                Z
 ----------------------------------------------------------------
    1      C      -0.5489840000    -2.0416460000     2.1022620000
    2      C       0.8165940000    -2.4256230000     1.9514670000
    3      C       1.8441150000    -1.5148100000     1.7148000000
    4      C       1.5977080000    -0.0877370000     1.6956080000
    5      C       0.2353640000     0.2975750000     1.8833410000
    6      C      -0.8007710000    -0.6193080000     2.0463730000
    7      O      -1.5222080000    -2.8812400000     2.2967050000
    8      O       2.5773850000     0.7514720000     1.5540440000
    9      N      -2.1705210000    -0.2408120000     2.2542730000
   10      N       3.2295070000    -1.8876100000     1.6098970000
   11      C      -2.9631610000     0.2871330000     1.1051030000
   12      C      -4.4410200000     0.1906880000     1.5224290000
   13      C      -2.6164420000     1.7617560000     0.8432390000
   14      C      -2.7473460000    -0.5305870000    -0.1880920000
   15      C       3.7280680000    -2.5114060000     0.3610140000
   16      C       3.2260840000    -3.9606240000     0.2411960000
   17      C       5.2645890000    -2.5249100000     0.4662440000
   18      C       3.3035320000    -1.7142230000    -0.8944630000
   19      H       1.0361190000    -3.4863610000     2.0332300000
   20      H       0.0354630000     1.3639130000     1.9375060000
   21      H      -2.5990180000    -1.1349070000     2.5143890000
   22      H       3.7021790000    -0.9816190000     1.6936120000
   23      H      -4.7266590000    -0.8533020000     1.6906010000
   24      H      -5.1010700000     0.6009880000     0.7486020000
   25      H      -4.6084940000     0.7447150000     2.4519650000
   26      H      -2.7511610000     2.3493690000     1.7570620000
   27      H      -3.2629790000     2.1760810000     0.0587700000
   28      H      -1.5784140000     1.8646100000     0.5223290000
   29      H      -2.9619590000    -1.5870870000    -0.0049210000
   30      H      -1.7061810000    -0.4568450000    -0.5121320000
   31      H      -3.3947830000    -0.1665990000    -0.9977990000
   32      H       2.1404510000    -3.9875350000     0.1349940000
   33      H       3.4953040000    -4.5279440000     1.1375870000
   34      H       3.6743910000    -4.4495320000    -0.6329790000
   35      H       5.5799800000    -3.0930130000     1.3474270000
   36      H       5.6538950000    -1.5054810000     0.5647950000
   37      H       5.7208620000    -2.9774220000    -0.4217870000
   38      H       2.2130290000    -1.6555780000    -0.9408840000
   39      H       3.6728470000    -2.1846980000    -1.8153380000
   40      H       3.6797840000    -0.6893410000    -0.8363000000
 ----------------------------------------------------------------

   18    -806.8637434271      2.62e-09  Convergence criterion met
 Total energy in the final basis set =     -807.1479973505

                    Orbital Energies (a.u.)
 --------------------------------------------------------------

 Alpha MOs
 -- Occupied --
-19.0189 -19.0185 -14.2899 -14.2892 -10.2158 -10.2151 -10.1725 -10.1717
-10.1682 -10.1681 -10.1674 -10.1673 -10.1651 -10.1639 -10.1589 -10.1586
-10.1311 -10.1308  -0.9399  -0.9358  -0.8981  -0.8961  -0.7988  -0.7888
 -0.7565  -0.7037  -0.6974  -0.6962  -0.6957  -0.6848  -0.6383  -0.5867
 -0.5541  -0.5531  -0.5247  -0.4873  -0.4738  -0.4721  -0.4554  -0.4517
 -0.4514  -0.4384  -0.4256  -0.4194  -0.4122  -0.4039  -0.3976  -0.3941
 -0.3867  -0.3796  -0.3754  -0.3745  -0.3692  -0.3661  -0.3539  -0.3506
 -0.3476  -0.3421  -0.3339  -0.3309  -0.3205  -0.3104  -0.2720  -0.2520
 -0.2115  -0.2015  -0.1964  -0.1925  -0.1149

          Ground-State Mulliken Net Atomic Charges

     Atom                 Charge (a.u.)
  ----------------------------------------
      1 C                    -0.797126
      2 C                    -1.075521
      3 C                    -0.643174
      4 C                    -0.885188
      5 C                    -1.147627
      6 C                    -0.457371
      7 O                    -0.339106
      8 O                    -0.339167
      9 N                     0.050534
     10 N                     0.084275
     11 C                    -0.224900
     12 C                     0.908722
     13 C                    -0.010627
     14 C                    -0.408018
     15 C                    -0.216154
     16 C                    -0.070631
     17 C                     0.947167
     18 C                    -0.341121
     19 H                    -0.178621
     20 H                    -0.148822
     21 H                     0.150524
     22 H                     0.152335
     23 H                     0.217278
     24 H                     0.324037
     25 H                     0.225285
     26 H                     0.122631
     27 H                     0.383597
     28 H                     0.018168
     29 H                    -0.016499
     30 H                    -0.205867
     31 H                     0.441030
     32 H                    -0.004262
     33 H                     0.108779
     34 H                     0.393582
     35 H                     0.217163
     36 H                     0.226199
     37 H                     0.323845
     38 H                    -0.212782
     39 H                     0.424837
     40 H                     0.002596
  ----------------------------------------
  Sum of atomic charges =    -2.000000

                    Cartesian Multipole Moments
 -----------------------------------------------------------------
    Charge (ESU x 10^10)
                -9.6064
    Dipole Moment (Debye)
         X      -5.1164      Y      10.2461      Z     -18.8712
       Tot      22.0745
    Quadrupole Moments (Debye-Ang)
        XX    -171.6737     XY      -7.9961     YY    -169.5009
        XZ      -3.9149     YZ      23.4752     ZZ    -168.9900

 Total job time:  1715.89s(wall), 13218.99s(cpu)
        *  Thank you very much for using Q-Chem.  Have a nice day.  *
