 Gaussian 16, Revision A.03,
 Gaussian 16:  ES64L-G16RevA.03 25-Dec-2016

 ----------------------------------------------------------------
 #P UB3LYP/6-311++G(d,p) SCRF=(PCM,Solvent=n,n-DiMethylFormamide)
 ----------------------------------------------------------------

 -------
 Reduced
 -------
 Symbolic Z-matrix:
 Charge = -2 Multiplicity = 1

                         Standard orientation:
 ---------------------------------------------------------------------
 Center     Atomic      Atomic             Coordinates (Angstroms)
 Number     Number       Type             X           Y           Z
 ---------------------------------------------------------------------
      1          7           0        3.817336    1.032487    0.155392
      2          6           0        2.615399    1.687977    0.214059
      3          6           0        1.313832    1.125161    0.174629
      4          6           0        2.692504    3.107425    0.283339
      5          6           0        0.168418    1.933270    0.229074
      6          6           0        1.559429    3.892390    0.324732
      7          6           0        0.275268    3.337371    0.305783
      8         16           0       -1.143930    4.465435    0.462863
      9          8           0       -2.209139    3.846160   -0.404488
     10          8           0       -1.524645    4.485461    1.900117
     11          8           0       -0.671092    5.780460   -0.044660
     12          7           0       -1.148466    1.399044    0.116221
     13          6           0       -1.664908    0.207111    0.430982
     14          7           0       -0.889845   -0.778887    0.961632
     15          6           0       -1.547342   -1.877287    1.228624
     16          7           0       -2.817930   -2.164016    1.054175
     17          6           0       -3.511923   -1.114914    0.512768
     18          7           0       -3.001315    0.057995    0.190716
     19         17           0       -0.577821   -3.190097    1.944068
     20          7           0       -4.838578   -1.411334    0.327280
     21          6           0       -5.934725   -0.669236   -0.153928
     22          6           0       -5.867782    0.676212   -0.531317
     23          6           0       -7.164036   -1.352077   -0.236597
     24          6           0       -7.027903    1.306974   -0.987435
     25          6           0       -8.305094   -0.706600   -0.689585
     26          6           0       -8.243611    0.635598   -1.072325
     27         16           0       -9.904043   -1.600871   -0.755867
     28          8           0       -9.559859   -3.025159   -0.490454
     29          8           0      -10.736980   -0.977090    0.310232
     30          8           0      -10.424934   -1.349738   -2.128631
     31          1           0        4.670387    1.624326   -0.014052
     32          1           0        1.176858    0.064601    0.069948
     33          1           0        3.675295    3.567048    0.292325
     34          1           0        1.643248    4.972033    0.363430
     35          1           0       -1.838912    2.112157   -0.173625
     36          1           0       -5.047848   -2.356925    0.611732
     37          1           0       -4.930374    1.208704   -0.467715
     38          1           0       -7.240541   -2.397391    0.044915
     39          1           0       -6.965553    2.350543   -1.279813
     40          1           0       -9.135944    1.131353   -1.434645
     41          6           0        4.214200   -0.313421    0.156960
     42          6           0        5.616225   -0.584211   -0.148468
     43          6           0        3.370417   -1.361257    0.484467
     44          6           0        3.821001   -2.694699    0.443412
     45          6           0        6.078162   -1.970252   -0.160608
     46          6           0        5.121382   -3.016617    0.102729
     47          6           0        7.474567   -2.308328   -0.375186
     48          6           0        8.370784   -1.212286   -0.640164
     49          6           0        7.915568    0.150556   -0.645255
     50          6           0        6.542881    0.500813   -0.390197
     51          6           0        9.742060   -1.469405   -0.902033
     52          6           0       10.645620   -0.454497   -1.139403
     53          6           0       10.198331    0.896279   -1.125302
     54          6           0        8.869822    1.175760   -0.882040
     55          8           0        7.935564   -3.522148   -0.329650
     56          8           0        6.198912    1.758691   -0.362394
     57          7           0        5.493390   -4.372191   -0.020199
     58          1           0        2.354364   -1.175131    0.797245
     59          1           0        3.115309   -3.495671    0.652803
     60          1           0       10.049259   -2.509813   -0.901712
     61          1           0       11.694011   -0.678890   -1.336334
     62          1           0       10.905674    1.703120   -1.310903
     63          1           0        8.501542    2.195802   -0.862346
     64          1           0        6.523675   -4.438618   -0.049531
     65          1           0        5.044028   -4.960256    0.669797
 ---------------------------------------------------------------------

 SCF Done:  E(UB3LYP) =  -3358.50745422     A.U. after   17 cycles

 The electronic state is 1-A.
 Alpha  occ. eigenvalues -- -101.56324 -89.05499 -89.04442 -19.12514 -19.12252
 Alpha  occ. eigenvalues --  -19.09872 -19.09729 -19.09631 -19.08966 -19.08878
 Alpha  occ. eigenvalues --  -19.08865 -14.36757 -14.36305 -14.35761 -14.32965
 Alpha  occ. eigenvalues --  -14.32920 -14.32813 -14.32457 -10.31652 -10.31139
 Alpha  occ. eigenvalues --  -10.30706 -10.27783 -10.27754 -10.25847 -10.24928
 Alpha  occ. eigenvalues --  -10.24873 -10.24377 -10.23742 -10.21757 -10.21468
 Alpha  occ. eigenvalues --  -10.21031 -10.20922 -10.20903 -10.20754 -10.20531
 Alpha  occ. eigenvalues --  -10.20253 -10.19968 -10.19923 -10.19662 -10.19643
 Alpha  occ. eigenvalues --  -10.19188 -10.18955 -10.18743 -10.18487 -10.18457
 Alpha  occ. eigenvalues --  -10.18161 -10.17996  -9.47817  -8.11349  -8.10320
 Alpha  occ. eigenvalues --   -7.24255  -7.23335  -7.23245  -6.07628  -6.07602
 Alpha  occ. eigenvalues --   -6.07535  -6.06590  -6.06581  -6.06499  -1.11460
 Alpha  occ. eigenvalues --   -1.10653  -1.05930  -1.03455  -1.02861  -0.99735
 Alpha  occ. eigenvalues --   -0.98007  -0.97740  -0.97209  -0.97132  -0.96941
 Alpha  occ. eigenvalues --   -0.96912  -0.93253  -0.91851  -0.90477  -0.88689
 Alpha  occ. eigenvalues --   -0.87102  -0.86233  -0.85248  -0.84642  -0.81823
 Alpha  occ. eigenvalues --   -0.78630  -0.77859  -0.77142  -0.76825  -0.76693
 Alpha  occ. eigenvalues --   -0.76212  -0.74526  -0.70903  -0.69417  -0.68022
 Alpha  occ. eigenvalues --   -0.67498  -0.66265  -0.64908  -0.64889  -0.63382
 Alpha  occ. eigenvalues --   -0.62309  -0.60652  -0.60240  -0.59333  -0.59086
 Alpha  occ. eigenvalues --   -0.58447  -0.57248  -0.56577  -0.55522  -0.53485
 Alpha  occ. eigenvalues --   -0.53024  -0.52871  -0.52473  -0.51336  -0.50699
 Alpha  occ. eigenvalues --   -0.50343  -0.49794  -0.49453  -0.49156  -0.48465
 Alpha  occ. eigenvalues --   -0.47928  -0.47711  -0.47051  -0.46346  -0.46148
 Alpha  occ. eigenvalues --   -0.45947  -0.45694  -0.45412  -0.45101  -0.45082
 Alpha  occ. eigenvalues --   -0.44658  -0.44568  -0.44483  -0.44116  -0.43748
 Alpha  occ. eigenvalues --   -0.43417  -0.43262  -0.43022  -0.42289  -0.41899
 Alpha  occ. eigenvalues --   -0.41139  -0.41011  -0.40598  -0.40415  -0.40048
 Alpha  occ. eigenvalues --   -0.39001  -0.38290  -0.38051  -0.37962  -0.36799
 Alpha  occ. eigenvalues --   -0.36704  -0.36495  -0.36239  -0.35958  -0.34147
 Alpha  occ. eigenvalues --   -0.33941  -0.33576  -0.33388  -0.33239  -0.33005
 Alpha  occ. eigenvalues --   -0.32349  -0.31184  -0.30691  -0.30464  -0.29855
 Alpha  occ. eigenvalues --   -0.29799  -0.29646  -0.29500  -0.29436  -0.29146
 Alpha  occ. eigenvalues --   -0.28773  -0.28589  -0.28414  -0.27771  -0.27644
 Alpha  occ. eigenvalues --   -0.27312  -0.26215  -0.26118  -0.25473  -0.25396
 Alpha  occ. eigenvalues --   -0.24064  -0.23041  -0.20869
 Alpha virt. eigenvalues --   -0.13571  -0.07120  -0.05518  -0.04884  -0.04649
 Alpha virt. eigenvalues --   -0.03298  -0.02755  -0.01260  -0.00744  -0.00455
 Alpha virt. eigenvalues --   -0.00258  -0.00071   0.00403   0.00698   0.00826

  Beta  occ. eigenvalues -- -101.56324 -89.05499 -89.04442 -19.12514 -19.12252
  Beta  occ. eigenvalues --  -19.09872 -19.09729 -19.09631 -19.08966 -19.08878
  Beta  occ. eigenvalues --  -19.08865 -14.36757 -14.36305 -14.35761 -14.32965
  Beta  occ. eigenvalues --  -14.32920 -14.32813 -14.32457 -10.31652 -10.31139
  Beta  occ. eigenvalues --  -10.30706 -10.27783 -10.27754 -10.25847 -10.24928
  Beta  occ. eigenvalues --  -10.24873 -10.24377 -10.23742 -10.21757 -10.21468
  Beta  occ. eigenvalues --  -10.21031 -10.20922 -10.20903 -10.20754 -10.20531
  Beta  occ. eigenvalues --  -10.20253 -10.19968 -10.19923 -10.19662 -10.19643
  Beta  occ. eigenvalues --  -10.19188 -10.18955 -10.18743 -10.18487 -10.18457
  Beta  occ. eigenvalues --  -10.18161 -10.17996  -9.47817  -8.11349  -8.10320
  Beta  occ. eigenvalues --   -7.24255  -7.23335  -7.23245  -6.07628  -6.07602
  Beta  occ. eigenvalues --   -6.07535  -6.06590  -6.06581  -6.06499  -1.11460
  Beta  occ. eigenvalues --   -1.10653  -1.05930  -1.03455  -1.02861  -0.99735
  Beta  occ. eigenvalues --   -0.98007  -0.97740  -0.97209  -0.97132  -0.96941
  Beta  occ. eigenvalues --   -0.96912  -0.93253  -0.91851  -0.90477  -0.88689
  Beta  occ. eigenvalues --   -0.87102  -0.86233  -0.85248  -0.84642  -0.81823
  Beta  occ. eigenvalues --   -0.78630  -0.77859  -0.77142  -0.76825  -0.76693
  Beta  occ. eigenvalues --   -0.76212  -0.74526  -0.70903  -0.69417  -0.68022
  Beta  occ. eigenvalues --   -0.67498  -0.66265  -0.64908  -0.64889  -0.63382
  Beta  occ. eigenvalues --   -0.62309  -0.60652  -0.60240  -0.59333  -0.59086
  Beta  occ. eigenvalues --   -0.58447  -0.57248  -0.56577  -0.55522  -0.53485
  Beta  occ. eigenvalues --   -0.53024  -0.52871  -0.52473  -0.51336  -0.50699
  Beta  occ. eigenvalues --   -0.50343  -0.49794  -0.49453  -0.49156  -0.48465
  Beta  occ. eigenvalues --   -0.47928  -0.47711  -0.47051  -0.46346  -0.46148
  Beta  occ. eigenvalues --   -0.45947  -0.45694  -0.45412  -0.45101  -0.45082
  Beta  occ. eigenvalues --   -0.44658  -0.44568  -0.44483  -0.44116  -0.43748
  Beta  occ. eigenvalues --   -0.43417  -0.43262  -0.43022  -0.42289  -0.41899
  Beta  occ. eigenvalues --   -0.41139  -0.41011  -0.40598  -0.40415  -0.40048
  Beta  occ. eigenvalues --   -0.39001  -0.38290  -0.38051  -0.37962  -0.36799
  Beta  occ. eigenvalues --   -0.36704  -0.36495  -0.36239  -0.35958  -0.34147
  Beta  occ. eigenvalues --   -0.33941  -0.33576  -0.33388  -0.33239  -0.33005
  Beta  occ. eigenvalues --   -0.32349  -0.31184  -0.30691  -0.30464  -0.29855
  Beta  occ. eigenvalues --   -0.29799  -0.29646  -0.29500  -0.29436  -0.29146
  Beta  occ. eigenvalues --   -0.28773  -0.28589  -0.28414  -0.27771  -0.27644
  Beta  occ. eigenvalues --   -0.27312  -0.26215  -0.26118  -0.25473  -0.25396
  Beta  occ. eigenvalues --   -0.24064  -0.23041  -0.20869
  Beta virt. eigenvalues --   -0.13571  -0.07120  -0.05518  -0.04884  -0.04649
  Beta virt. eigenvalues --   -0.03298  -0.02755  -0.01260  -0.00744  -0.00455
  Beta virt. eigenvalues --   -0.00258  -0.00071   0.00403   0.00698   0.00826

 Mulliken charges and spin densities:
               1          2
     1  N    0.030598  -0.000000
     2  C   -0.088229  -0.000000
     3  C   -0.306073   0.000000
     4  C   -0.452020   0.000000
     5  C    0.687991   0.000000
     6  C    0.137896  -0.000000
     7  C   -1.340731   0.000000
     8  S    0.573169  -0.000000
     9  O   -0.428711  -0.000000
    10  O   -0.289284  -0.000000
    11  O   -0.311450  -0.000000
    12  N   -0.138306   0.000000
    13  C   -0.134377   0.000000
    14  N   -0.002755   0.000000
    15  C   -0.575530  -0.000000
    16  N    0.051148  -0.000000
    17  C   -0.063756   0.000000
    18  N   -0.147129  -0.000000
    19  Cl   0.527552   0.000000
    20  N   -0.148269   0.000000
    21  C    0.424315  -0.000000
    22  C    0.021217   0.000000
    23  C   -0.034723   0.000000
    24  C   -0.081385   0.000000
    25  C   -1.232338  -0.000000
    26  C   -0.741286  -0.000000
    27  S    0.699997   0.000000
    28  O   -0.425823  -0.000000
    29  O   -0.366828   0.000000
    30  O   -0.389073  -0.000000
    31  H    0.550398   0.000000
    32  H    0.254023   0.000000
    33  H    0.161003   0.000000
    34  H    0.247486  -0.000000
    35  H    0.493694   0.000000
    36  H    0.409831   0.000000
    37  H    0.226734   0.000000
    38  H    0.211240  -0.000000
    39  H    0.212300  -0.000000
    40  H    0.205841   0.000000
    41  C    0.174267  -0.000000
    42  C    0.376922  -0.000000
    43  C   -0.408707  -0.000000
    44  C   -0.486341  -0.000000
    45  C    0.413446   0.000000
    46  C    0.017147   0.000000
    47  C   -0.639367   0.000000
    48  C    0.494786  -0.000000
    49  C    0.332614  -0.000000
    50  C   -0.445716   0.000000
    51  C    0.029517  -0.000000
    52  C   -0.434367   0.000000
    53  C   -0.457871  -0.000000
    54  C   -0.113075   0.000000
    55  O   -0.354317   0.000000
    56  O   -0.345470  -0.000000
    57  N   -0.357416   0.000000
    58  H    0.148297  -0.000000
    59  H    0.226560   0.000000
    60  H    0.200473  -0.000000
    61  H    0.208186   0.000000
    62  H    0.212508  -0.000000
    63  H    0.181933  -0.000000
    64  H    0.326161  -0.000000
    65  H    0.271477   0.000000
 Sum of Mulliken charges =  -2.00000  -0.00000

 Dipole moment (field-independent basis, Debye):
    X=             57.7866    Y=            -10.6594    Z=              1.1705  Tot=             58.7731
 Quadrupole moment (field-independent basis, Debye-Ang):
   XX=           -830.0039   YY=           -429.3996   ZZ=           -324.6233
   XY=            -49.9392   XZ=            -33.3722   YZ=            -25.1584

 Normal termination of Gaussian 16 at Sun Jan 14 01:51:45 2024.
