 Gaussian 16, Revision A.03,
 Gaussian 16:  ES64L-G16RevA.03 25-Dec-2016

 ----------------------------------------------------------------
 #P UB3LYP/6-311++G(d,p) SCRF=(PCM,Solvent=n,n-DiMethylFormamide)
 ----------------------------------------------------------------

 ------------------
 Radical PCM in DMF
 ------------------
 Symbolic Z-matrix:
 Charge = -2 Multiplicity = 2

                         Standard orientation:
 ---------------------------------------------------------------------
 Center     Atomic      Atomic             Coordinates (Angstroms)
 Number     Number       Type             X           Y           Z
 ---------------------------------------------------------------------
      1          6           0        3.449473   -2.049136    0.002216
      2          6           0        4.790264   -1.716469    0.018568
      3          6           0        5.188385   -0.368848    0.029648
      4          6           0        2.425251   -1.051439   -0.004099
      5          6           0        2.829132    0.317165    0.006760
      6          6           0        4.188401    0.622052    0.023221
      7          6           0        1.041319   -1.474322   -0.020808
      8          6           0        0.010916   -0.420857   -0.023091
      9          6           0        0.341774    0.954970   -0.014833
     10          6           0        1.796506    1.456726   -0.001684
     11          6           0       -1.355774   -0.797022   -0.036117
     12          6           0       -2.367013    0.151781   -0.040911
     13          6           0       -2.041627    1.510776   -0.035635
     14          6           0       -0.700209    1.889524   -0.023273
     15          8           0        0.726460   -2.703426   -0.031339
     16         16           0       -4.136908   -0.323426    0.015647
     17          8           0       -4.242657   -1.594296   -0.749803
     18          8           0       -4.454052   -0.470940    1.465844
     19          8           0       -4.852520    0.823120   -0.621556
     20          6           0        2.008024    2.332002    1.265934
     21          6           0        2.031810    2.332423   -1.265084
     22          1           0        3.119570   -3.081322   -0.006284
     23          1           0        5.541838   -2.504142    0.023146
     24          1           0        6.238404   -0.091978    0.042741
     25          1           0        4.500857    1.663086    0.031490
     26          1           0       -1.587888   -1.853908   -0.053412
     27          1           0       -2.835485    2.247071   -0.059611
     28          1           0       -0.470107    2.951734   -0.024227
     29          1           0        1.847721    1.731239    2.164584
     30          1           0        1.304854    3.169800    1.289611
     31          1           0        3.025251    2.734768    1.302431
     32          1           0        1.329876    3.170828   -1.301639
     33          1           0        1.888024    1.731882   -2.166723
     34          1           0        3.049980    2.734136   -1.282487
 ---------------------------------------------------------------------

 SCF Done:  E(UB3LYP) =  -1317.12850302     A.U. after   19 cycles

 The electronic state is 2-A.
 Alpha  occ. eigenvalues --  -89.03502 -19.08254 -19.08118 -19.08059 -19.04753
 Alpha  occ. eigenvalues --  -10.19190 -10.18924 -10.18157 -10.17207 -10.16810
 Alpha  occ. eigenvalues --  -10.16182 -10.16176 -10.16095 -10.15943 -10.15913
 Alpha  occ. eigenvalues --  -10.15820 -10.15713 -10.15663 -10.15414 -10.15409
 Alpha  occ. eigenvalues --  -10.15114  -8.09396  -6.05676  -6.05668  -6.05550
 Alpha  occ. eigenvalues --   -1.09786  -0.97144  -0.96355  -0.96043  -0.86135
 Alpha  occ. eigenvalues --   -0.83982  -0.80255  -0.75508  -0.74041  -0.72918
 Alpha  occ. eigenvalues --   -0.71690  -0.68142  -0.63781  -0.63450  -0.60865
 Alpha  occ. eigenvalues --   -0.58466  -0.56987  -0.54736  -0.51957  -0.51102
 Alpha  occ. eigenvalues --   -0.47783  -0.46317  -0.45541  -0.44635  -0.44226
 Alpha  occ. eigenvalues --   -0.43640  -0.42828  -0.42467  -0.42251  -0.40796
 Alpha  occ. eigenvalues --   -0.40257  -0.39463  -0.39230  -0.38672  -0.38196
 Alpha  occ. eigenvalues --   -0.36429  -0.35522  -0.35328  -0.34354  -0.34005
 Alpha  occ. eigenvalues --   -0.33054  -0.32597  -0.32534  -0.31834  -0.30165
 Alpha  occ. eigenvalues --   -0.29251  -0.28604  -0.27746  -0.24723  -0.24666
 Alpha  occ. eigenvalues --   -0.24276  -0.24007  -0.23721  -0.21994  -0.10617
 Alpha virt. eigenvalues --   -0.01513  -0.00808  -0.00333   0.00022   0.00759
 Alpha virt. eigenvalues --    0.01173   0.02148   0.02211   0.02536   0.03348
 Alpha virt. eigenvalues --    0.04408   0.04486   0.04687   0.05163   0.05440

  Beta  occ. eigenvalues --  -89.03501 -19.08255 -19.08123 -19.08060 -19.04190
  Beta  occ. eigenvalues --  -10.18941 -10.18772 -10.18241 -10.17072 -10.16654
  Beta  occ. eigenvalues --  -10.16224 -10.16222 -10.16032 -10.15893 -10.15875
  Beta  occ. eigenvalues --  -10.15736 -10.15707 -10.15473 -10.15387 -10.15382
  Beta  occ. eigenvalues --  -10.14922  -8.09395  -6.05675  -6.05667  -6.05547
  Beta  occ. eigenvalues --   -1.09789  -0.96359  -0.96071  -0.96049  -0.85911
  Beta  occ. eigenvalues --   -0.83782  -0.80100  -0.75088  -0.73867  -0.72658
  Beta  occ. eigenvalues --   -0.71542  -0.68088  -0.63470  -0.62879  -0.60713
  Beta  occ. eigenvalues --   -0.58257  -0.56896  -0.54551  -0.51731  -0.50999
  Beta  occ. eigenvalues --   -0.47580  -0.46229  -0.45475  -0.44531  -0.44145
  Beta  occ. eigenvalues --   -0.43585  -0.42694  -0.42393  -0.41948  -0.40733
  Beta  occ. eigenvalues --   -0.40143  -0.39349  -0.39121  -0.38242  -0.37025
  Beta  occ. eigenvalues --   -0.36366  -0.35105  -0.34979  -0.33912  -0.33795
  Beta  occ. eigenvalues --   -0.32595  -0.32589  -0.31809  -0.31726  -0.30069
  Beta  occ. eigenvalues --   -0.29070  -0.28587  -0.27762  -0.24725  -0.23853
  Beta  occ. eigenvalues --   -0.23430  -0.23207  -0.22525  -0.21499
  Beta virt. eigenvalues --   -0.04585  -0.01042  -0.00333  -0.00045   0.00753
  Beta virt. eigenvalues --    0.00785   0.01174   0.02160   0.02218   0.02521
  Beta virt. eigenvalues --    0.03351   0.04407   0.04479   0.04756   0.05210

 Mulliken charges and spin densities:
               1          2
     1  C   -0.125220   0.185886
     2  C   -0.406475  -0.071413
     3  C   -0.527916   0.199787
     4  C    0.563435  -0.064168
     5  C    0.345994   0.136485
     6  C   -0.259139  -0.064289
     7  C   -0.624567   0.265901
     8  C    0.687237  -0.038353
     9  C    0.302962   0.121811
    10  C    0.388280  -0.099422
    11  C   -0.040828   0.160796
    12  C   -0.966936  -0.075962
    13  C   -0.535973   0.158015
    14  C   -0.295211  -0.049516
    15  O   -0.547862   0.214600
    16  S    0.790724   0.004615
    17  O   -0.408287  -0.000356
    18  O   -0.375993  -0.001709
    19  O   -0.428815  -0.000810
    20  C   -0.809327   0.019674
    21  C   -0.804743   0.019328
    22  H    0.174571  -0.011780
    23  H    0.165994   0.004224
    24  H    0.171499  -0.014574
    25  H    0.119753   0.003053
    26  H    0.197277  -0.011488
    27  H    0.201407  -0.012451
    28  H    0.128432   0.002330
    29  H    0.165957   0.000633
    30  H    0.148642   0.004578
    31  H    0.146172   0.004680
    32  H    0.147896   0.004898
    33  H    0.164795   0.000915
    34  H    0.146265   0.004080
 Sum of Mulliken charges =  -2.00000   1.00000

 Dipole moment (field-independent basis, Debye):
    X=             20.0853    Y=             11.5618    Z=             -0.1808  Tot=             23.1760
 Quadrupole moment (field-independent basis, Debye-Ang):
   XX=           -271.3049   YY=           -163.3799   ZZ=           -150.9107
   XY=              0.2137   XZ=              0.9706   YZ=             -0.2049

 Normal termination of Gaussian 16 at Sat Jan 13 19:25:51 2024.
